24
 energy: -31.817003052138 gnorm: 0.021546611612 xtb: 6.7.1 (edcfbbe)
C           -3.04616590230936       -1.46466890208824       -0.00065433252875
C           -1.74596424085527       -0.71552830570420       -0.00003784394590
C           -0.54502083220880       -1.39161839454921        0.00014755583166
C            0.69805257190518       -0.71445719386733        0.00021518352092
C            1.93698704287517       -1.40132016869432        0.00022955107356
C            3.12458372380241       -0.70631821243999       -0.00004744687405
C            3.12459046731388        0.70631412283542       -0.00030622490617
C            1.93699983264246        1.40132571301688       -0.00018731375464
C            0.69806051136816        0.71447312155548        0.00009219421538
C           -0.54500367906203        1.39164836368221        0.00018441457207
C           -1.74595482178539        0.71557346227531        0.00012729163633
C           -3.04614232210563        1.46473985441325        0.00002225545866
H           -3.65169647576615       -1.21191350838747        0.87753912420302
H           -3.65024024687363       -1.21265811201713       -0.88008823107703
H           -2.87504889013952       -2.54365244139469       -0.00008945530520
H           -0.54121280108769       -2.47920490111340        0.00013218764251
H            1.93252709766231       -2.48803701450120        0.00041249449248
H            4.06873635231503       -1.24224197715376       -0.00008565896555
H            4.06874634977553        1.24223186418482       -0.00061404343656
H            1.93254719989131        2.48804252198500       -0.00037091044377
H           -0.54118493199074        2.47923450122579        0.00024940463581
H           -3.65171042683051        1.21125317112025        0.87798007921530
H           -2.87499702090512        2.54371823273909        0.00151358947724
H           -3.65019099668677        1.21349448725783       -0.87964689831394
24
 energy: -31.818156244307 gnorm: 0.005913726663 xtb: 6.7.1 (edcfbbe)
C           -3.03861352181007       -1.45933908357190       -0.00062911432221
C           -1.74210545488518       -0.71120313323012       -0.00007222675201
C           -0.54671925864249       -1.38367325064962        0.00010080181256
C            0.69239208047092       -0.71017248049456        0.00017836179546
C            1.92728061735249       -1.39311654597939        0.00019416076260
C            3.10883446461176       -0.70226338610234       -0.00004137417597
C            3.10884221520858        0.70225773791880       -0.00026992854761
C            1.92729540694709        1.39312262790606       -0.00016061460622
C            0.69240051911992        0.71019076239687        0.00008280984507
C           -0.54670189494683        1.38370654642656        0.00015865412775
C           -1.74209634550004        0.71125159089039        0.00008592795079
C           -3.03859186053623        1.45940987471860        0.00000103441399
H           -3.63315297794878       -1.20499950531437        0.87830959815592
H           -3.63181556690008       -1.20567347825136       -0.88068232244735
H           -2.86411488304948       -2.53331120179676       -0.00009658899169
H           -0.54122966715270       -2.46660707664462        0.00008629875291
H            1.92418379999851       -2.47518896740260        0.00035326262876
H            4.05059785371671       -1.23389072591853       -0.00007651200082
H            4.05061034895804        1.23387651633803       -0.00053232978805
H            1.92420788957486        2.47519504505740       -0.00031184150993
H           -0.54120000908120        2.46664017522376        0.00022437575173
H           -3.63319016621365        1.20436494405476        0.87869479670086
H           -2.86407123431929        2.53337774759537        0.00141590249269
H           -3.63174479402805        1.20647555120997       -0.88029616562582
24
 energy: -31.818216812224 gnorm: 0.001531446310 xtb: 6.7.1 (edcfbbe)
C           -3.03701912849394       -1.45798783554032       -0.00059460944377
C           -1.74073232960440       -0.70991540544748       -0.00009202239875
C           -0.54712845274065       -1.38214240288797        0.00005475658955
C            0.69067759389100       -0.70901182982847        0.00013542213289
C            1.92404971218735       -1.39177647479985        0.00014997375509
C            3.10424361017074       -0.70167263504597       -0.00003899449937
C            3.10425206427445        0.70166562128354       -0.00022002738333
C            1.92406608080777        1.39178287617061       -0.00012514960509
C            0.69068639760921        0.70903211119200        0.00006822502347
C           -0.54711087888516        1.38217829477698        0.00013485158225
C           -1.74072331430676        0.70996655252234        0.00005945264989
C           -3.03699907262550        1.45805834258363       -0.00002688145227
H           -3.62723630548135       -1.20242013524260        0.87843833118192
H           -3.62604437712494       -1.20300482256875       -0.88060688277580
H           -2.86064467705248       -2.53033005679151       -0.00012301748253
H           -0.54031406136549       -2.46378632527119        0.00002889390096
H            1.92024249975286       -2.47263252102581        0.00027736704373
H            4.04544336181297       -1.23173726631516       -0.00006851975334
H            4.04545766841986        1.23171978064394       -0.00043791922492
H            1.92027008475292        2.47263893743863       -0.00024347459492
H           -0.54028312896705        2.46382208108864        0.00020336452201
H           -3.62729829135608        1.20182167396357        0.87875403763376
H           -2.86060716349492        2.53039702362289        0.00127997182367
H           -3.62595033123558        1.20376469985872       -0.88029018280169
24
 energy: -31.818219010562 gnorm: 0.000333471463 xtb: 6.7.1 (edcfbbe)
C           -3.03749761202181       -1.45791704435292       -0.00055400263375
C           -1.74046723432488       -0.70978830496367       -0.00011507636289
C           -0.54709741926712       -1.38254022319162        0.00000312206158
C            0.69057578756386       -0.70893522436602        0.00008914731399
C            1.92378975050781       -1.39216481951100        0.00010035328260
C            3.10396295256482       -0.70188185373811       -0.00003556783320
C            3.10397178667187        0.70187390389891       -0.00016505175488
C            1.92380709718277        1.39217137633736       -0.00008576596092
C            0.69058478629850        0.70895687016002        0.00005491928992
C           -0.54707973318193        1.38257772231714        0.00010915655937
C           -1.74045820191838        0.70984113713251        0.00002948675810
C           -3.03747855632776        1.45798734782890       -0.00005747739942
H           -3.62668850231936       -1.20198979458563        0.87862950022574
H           -3.62566990175005       -1.20246934426434       -0.88056636343032
H           -2.86045628978478       -2.53002264258650       -0.00016104120381
H           -0.53950793352923       -2.46410524239978       -0.00003475759917
H            1.91921681687024       -2.47298808597891        0.00018908711292
H            4.04537694481188       -1.23138827411378       -0.00005959576565
H            4.04539228656074        1.23136872092905       -0.00032707963105
H            1.91924688805440        2.47299467952873       -0.00016595261039
H           -0.53947639984874        2.46414262289106        0.00017902833788
H           -3.62677731101051        1.20143621776912        0.87886930385639
H           -2.86042255778476        2.53008996145510        0.00111724854522
H           -3.62554988307274        1.20318057818478       -0.88032565473485
24
 energy: -31.818219142347 gnorm: 0.000087468782 xtb: 6.7.1 (edcfbbe)
C           -3.03766403893427       -1.45792505401712       -0.00051884754834
C           -1.74042123000226       -0.70978936878246       -0.00013773620981
C           -0.54709062465299       -1.38269074184301       -0.00004170509576
C            0.69061371218609       -0.70892138408636        0.00004845069119
C            1.92394158576797       -1.39222540536028        0.00005673089939
C            3.10405455162087       -0.70191020382377       -0.00003198523301
C            3.10406349011015        0.70190190044532       -0.00011277107285
C            1.92395926885916        1.39223201937298       -0.00004797814595
C            0.69062275902433        0.70894357699107        0.00004318319549
C           -0.54707293477997        1.38272879545967        0.00008521904331
C           -1.74041217317437        0.70984273818714       -0.00000090660633
C           -3.03764531328138        1.45799525401762       -0.00008511891596
H           -3.62681930775385       -1.20203918018022        0.87875769634428
H           -3.62596471253022       -1.20241630278865       -0.88048364926500
H           -2.86065739603606       -2.53006764770988       -0.00020345217064
H           -0.53927424810760       -2.46427234317579       -0.00008992958233
H            1.91915779949119       -2.47308163996978        0.00011066187898
H            4.04566117904477       -1.23119440825776       -0.00005255657845
H            4.04567683181086        1.23117415135715       -0.00022865016612
H            1.91918894776304        2.47308830924901       -0.00009690909634
H           -0.53924266330174        2.46431029013145        0.00015791145358
H           -3.62692818447241        1.20152989534427        0.87893451988934
H           -2.86062488121544        2.53013513472585        0.00096085722335
H           -3.62582485649105        1.20308189909394       -0.88030606850861
24
 energy: -31.818219155842 gnorm: 0.000031895632 xtb: 6.7.1 (edcfbbe)
C           -3.03762684493311       -1.45790249446227       -0.00049170256973
C           -1.74041106996292       -0.70977952849090       -0.00015772063855
C           -0.54710437796954       -1.38268215250493       -0.00007827681130
C            0.69058359286062       -0.70890168178490        0.00001622424874
C            1.92391772156568       -1.39222026750687        0.00002213082356
C            3.10399963729670       -0.70192015448424       -0.00002871837084
C            3.10400860871192        0.70191173761938       -0.00007220574647
C            1.92393550943560        1.39222690704802       -0.00001875211948
C            0.69059265356325        0.70892405883633        0.00003412021554
C           -0.54708669803956        1.38272037291144        0.00006635253935
C           -1.74040200889516        0.70983303332256       -0.00002612593320
C           -3.03760820872490        1.45797265317036       -0.00010741307459
H           -3.62669230669415       -1.20204624603126        0.87884282524212
H           -3.62597484648847       -1.20233247677818       -0.88039485316278
H           -2.86062726800074       -2.53003608392211       -0.00024450815931
H           -0.53923708037349       -2.46424695637891       -0.00013279509883
H            1.91907314523628       -2.47306651449960        0.00004770923942
H            4.04563691393481       -1.23113689486237       -0.00004590996397
H            4.04565265481938        1.23111643901892       -0.00014744957913
H            1.91910467966194        2.47307321558126       -0.00003983282334
H           -0.53920553495014        2.46428507585291        0.00014035352935
H           -3.62681429577508        1.20157567618260        0.87897273548262
H           -2.86059505194541        2.53010365242048        0.00082509555258
H           -3.62582196338866        1.20295891412267       -0.88026431639837
