
                                 *****************
                                 * O   R   C   A *
                                 *****************

                                            #,                                       
                                            ###                                      
                                            ####                                     
                                            #####                                    
                                            ######                                   
                                           ########,                                 
                                     ,,################,,,,,                         
                               ,,#################################,,                 
                          ,,##########################################,,             
                       ,#########################################, ''#####,          
                    ,#############################################,,   '####,        
                  ,##################################################,,,,####,       
                ,###########''''           ''''###############################       
              ,#####''   ,,,,##########,,,,          '''####'''          '####       
            ,##' ,,,,###########################,,,                        '##       
           ' ,,###''''                  '''############,,,                           
         ,,##''                                '''############,,,,        ,,,,,,###''
      ,#''                                            '''#######################'''  
     '                                                          ''''####''''         
             ,#######,   #######,   ,#######,      ##                                
            ,#'     '#,  ##    ##  ,#'     '#,    #''#        ,####,   ,####,        
            ##       ##  ##   ,#'  ##            #'  '#       #'       #'  '#        
            ##       ##  #######   ##           ,######,      #####,   #    #        
            '#,     ,#'  ##    ##  '#,     ,#' ,#      #,     #,   #   #,  ,#        
             '#######'   ##     ##  '#######'  #'      '#     '####' # '####'        



                #########################################################
                #                        -***-                          #
                #          Department of theory and spectroscopy        #
                #                                                       #
                #                      Frank Neese                      #
                #                                                       #
                #     Directorship, Architecture, Infrastructure        #
                #                    SHARK, DRIVERS                     #
                #        Core code/Algorithms in most modules           #
                #                                                       #
                #        Max Planck Institute fuer Kohlenforschung      #
                #                Kaiser Wilhelm Platz 1                 #
                #                 D-45470 Muelheim/Ruhr                 #
                #                      Germany                          #
                #                                                       #
                #                  All rights reserved                  #
                #                        -***-                          #
                #########################################################


                         Program Version 6.0.0  -   RELEASE  -


 With contributions from (in alphabetic order):
   Daniel Aravena         : Magnetic Suceptibility
   Michael Atanasov       : Ab Initio Ligand Field Theory (pilot matlab implementation)
   Alexander A. Auer      : GIAO ZORA, VPT2 properties, NMR spectrum
   Ute Becker             : All parallelization in ORCA, NUMFREQ, NUMCALC
   Giovanni Bistoni       : ED, misc. LED, open-shell LED, HFLD
   Martin Brehm           : Molecular dynamics
   Dmytro Bykov           : pre 5.0 version of the SCF Hessian
   Marcos Casanova-Páez   : Triplet and SCS-CIS(D). UHF-(DLPNO)-IP/EA/STEOM-CCSD. UHF-CVS-IP/STEOM-CCSD
   Vijay G. Chilkuri      : MRCI spin determinant printing, contributions to CSF-ICE
   Pauline Colinet        : FMM embedding
   Dipayan Datta          : RHF DLPNO-CCSD density
   Achintya Kumar Dutta   : EOM-CC, STEOM-CC
   Nicolas Foglia         : Exact transition moments, OPA infrastructure, MCD improvements
   Dmitry Ganyushin       : Spin-Orbit,Spin-Spin,Magnetic field MRCI
   Miquel Garcia          : C-PCM and meta-GGA Hessian, CCSD/C-PCM, Gaussian charge scheme
   Tiago L. C. Gouveia    : GS-ROHF, GS-ROCIS
   Yang Guo               : DLPNO-NEVPT2, F12-NEVPT2, CIM, IAO-localization
   Andreas Hansen         : Spin unrestricted coupled pair/coupled cluster methods
   Ingolf Harden          : AUTO-CI MPn and infrastructure 
   Benjamin Helmich-Paris : MC-RPA, TRAH-(SCF,CASSCF), AVAS, COSX integrals, SCF dyn. polar.
   Lee Huntington         : MR-EOM, pCC
   Robert Izsak           : Overlap fitted RIJCOSX, COSX-SCS-MP3, EOM
   Riya Kayal             : Wick's Theorem for AUTO-CI, AUTO-CI UHF-CCSDT
   Emily Kempfer          : AUTO-CI, RHF CISDT and CCSDT
   Christian Kollmar      : KDIIS, OOCD, Brueckner-CCSD(T), CCSD density, CASPT2, CASPT2-K, improved NEVPT2
   Axel Koslowski         : Symmetry handling
   Simone Kossmann        : Meta GGA functionals, TD-DFT gradient, OOMP2, (MP2 Hessian; deprecated post 5.0)
   Lucas Lang             : DCDCAS
   Marvin Lechner         : AUTO-CI (C++ implementation), FIC-MRCC
   Spencer Leger          : CASSCF response
   Dagmar Lenk            : GEPOL surface, SMD, ORCA-2-JSON
   Dimitrios Liakos       : Extrapolation schemes; Compound Job, initial MDCI parallelization
   Dimitrios Manganas     : Further ROCIS development; embedding schemes. LFT, Crystal Embedding
   Dimitrios Pantazis     : SARC Basis sets
   Anastasios Papadopoulos: AUTO-CI, single reference methods and gradients
   Taras Petrenko         : pre 6.0 DFT Hessian and TD-DFT gradient, (ASA, deprecated), ECA, 1-Electron XAS/XES, NRVS
   Peter Pinski           : DLPNO-MP2, DLPNO-MP2 Gradient
   Christoph Reimann      : Effective Core Potentials
   Marius Retegan         : Local ZFS, SOC
   Christoph Riplinger    : Optimizer, TS searches, QM/MM, DLPNO-CCSD(T), (RO)-DLPNO pert. Triples
   Michael Roemelt        : Original ROCIS implementation
   Masaaki Saitow         : Open-shell DLPNO-CCSD energy and density
   Barbara Sandhoefer     : DKH picture change effects
   Kantharuban Sivalingam : CASSCF convergence/infrastructure, NEVPT2 and variants, FIC-MRCI
   Bernardo de Souza      : ESD, SOC TD-DFT
   Georgi Stoychev        : AutoAux, RI-MP2 NMR, DLPNO-MP2 response, X2C
   Van Anh Tran           : RI-MP2 g-tensors
   Willem Van den Heuvel  : Paramagnetic NMR
   Zikuan Wang            : NOTCH, Electric field optimization 
   Frank Wennmohs         : Technical directorship and infrastructure
   Hang Xu                : AUTO-CI-Response properties 


 We gratefully acknowledge several colleagues who have allowed us to
 interface, adapt or use parts of their codes:
   Stefan Grimme, W. Hujo, H. Kruse, P. Pracht,  : VdW corrections, initial TS optimization,
                  C. Bannwarth, S. Ehlert,         DFT functionals, gCP, sTDA/sTD-DF
                  L. Wittmann, M. Mueller
   Ed Valeev, F. Pavosevic, A. Kumar             : LibInt (2-el integral package), F12 methods
   Garnet Chan, S. Sharma, J. Yang, R. Olivares  : DMRG
   Ulf Ekstrom                                   : XCFun DFT Library
   Mihaly Kallay                                 : mrcc  (arbitrary order and MRCC methods)
   Frank Weinhold                                : gennbo (NPA and NBO analysis)
   Simon Mueller                                 : openCOSMO-RS
   Christopher J. Cramer and Donald G. Truhlar   : smd solvation model
   Lars Goerigk                                  : TD-DFT with DH, B97 family of functionals
   V. Asgeirsson, H. Jonsson                     : NEB implementation
   FAccTs GmbH                                   : IRC, NEB, NEB-TS, DLPNO-Multilevel, CI-OPT
                                                   MM, QMMM, 2- and 3-layer-ONIOM, Crystal-QMMM,
                                                   LR-CPCM, SF, NACMEs, symmetry and pop. for TD-DFT,
                                                   nearIR, NL-DFT gradient (VV10), updates on ESD,
                                                   ML-optimized integration grids, MBIS, APM,
                                                   GOAT, DOCKER, SOLVATOR, interface openCOSMO-RS
   S Lehtola, MJT Oliveira, MAL Marques          : LibXC Library
   Liviu Ungur et al                             : ANISO software


 Your calculation uses the libint2 library for the computation of 2-el integrals
 For citations please refer to: http://libint.valeyev.net

 Your ORCA version has been built with support for libXC version: 6.2.2
 For citations please refer to: https://libxc.gitlab.io

 This ORCA versions uses:
   CBLAS   interface :  Fast vector & matrix operations
   LAPACKE interface :  Fast linear algebra routines
   SCALAPACK package :  Parallel linear algebra routines
   Shared memory     :  Shared parallel matrices
   BLAS/LAPACK       :  OpenBLAS 0.3.27  USE64BITINT DYNAMIC_ARCH NO_AFFINITY SkylakeX SINGLE_THREADED
        Core in use  :  SkylakeX
   Copyright (c) 2011-2014, The OpenBLAS Project


Your calculation utilizes the geometrical counterpoise correction gCP
Please cite in your paper:
H.Kruse, S. Grimme J.Chem.Phys., 136, (2012), 154101 
   

Your calculation utilizes the atom-pairwise dispersion correction
based on EEQ partial charges (D4)


Your calculation utilizes the SMD solvation module
Please cite in your paper:
A.V. Marenich, C.J. Cramer, D.G. Truhlar J. Phys. Chem. B, 113, (2009), 6378 

================================================================================

----- Orbital basis set information -----
Your calculation utilizes the basis: def2-mTZVPP
   Stefan Grimme, Andreas Hansen, Sebastian Ehlert, and Jan-Michael Mewes 
   J. Chem. Phys. 154, 064103 (2021). DOI: 10.1063/5.0040021

----- AuxJ basis set information -----
Your calculation utilizes the auxiliary basis: def2/J
   F. Weigend, Phys. Chem. Chem. Phys. 8, 1057 (2006).

================================================================================
                                        WARNINGS
                       Please study these warnings very carefully!
================================================================================

Using LibXC functional ID 497 : Re-regularized SCAN exchange by Furness et al
[ 1]  J. W. Furness, A. D. Kaplan, J. Ning, J. P. Perdew, and J. Sun.,  J. Phys. Chem. Lett. 11, 8208-8215 (2020)
[ 2]  J. W. Furness, A. D. Kaplan, J. Ning, J. P. Perdew, and J. Sun.,  J. Phys. Chem. Lett. 11, 9248-9248 (2020)
Using LibXC functional ID 498 : Re-regularized SCAN correlation by Furness et al
[ 1]  J. W. Furness, A. D. Kaplan, J. Ning, J. P. Perdew, and J. Sun.,  J. Phys. Chem. Lett. 11, 8208-8215 (2020)
[ 2]  J. W. Furness, A. D. Kaplan, J. Ning, J. P. Perdew, and J. Sun.,  J. Phys. Chem. Lett. 11, 9248-9248 (2020)
Using LibXC functional ID 497 : Re-regularized SCAN exchange by Furness et al
[ 1]  J. W. Furness, A. D. Kaplan, J. Ning, J. P. Perdew, and J. Sun.,  J. Phys. Chem. Lett. 11, 8208-8215 (2020)
[ 2]  J. W. Furness, A. D. Kaplan, J. Ning, J. P. Perdew, and J. Sun.,  J. Phys. Chem. Lett. 11, 9248-9248 (2020)
Using LibXC functional ID 498 : Re-regularized SCAN correlation by Furness et al
[ 1]  J. W. Furness, A. D. Kaplan, J. Ning, J. P. Perdew, and J. Sun.,  J. Phys. Chem. Lett. 11, 8208-8215 (2020)
[ 2]  J. W. Furness, A. D. Kaplan, J. Ning, J. P. Perdew, and J. Sun.,  J. Phys. Chem. Lett. 11, 9248-9248 (2020)

================================================================================
                                       INPUT FILE
================================================================================
NAME = sp_solv.inp
|  1> ! r2scan-3c def2/J RI DEFGRID2 scfconv6 printgap
|  2> %output
|  3>     printlevel normal
|  4> end
|  5> %cpcm
|  6>     smd true
|  7>     smdsolvent "water"
|  8> end
|  9> * xyz 0 1
| 10> C 1.5710328513 -0.0342078185 0.5637419466
| 11> C 0.6723217115 0.3645108108 -0.6016233291
| 12> C -0.6722762456 -0.3644820258 -0.601619455
| 13> C -1.5710694991 0.0341811608 0.563734066
| 14> H 2.5387794829 0.4542140641 0.4771241373
| 15> H 1.1297326512 0.2555507851 1.5134785458
| 16> H 1.7288906956 -1.1105633486 0.5700520593
| 17> H 0.4958986992 1.4421606176 -0.5714355521
| 18> H 1.189428277 0.1406039187 -1.5377855701
| 19> H -1.1893526245 -0.140526338 -1.5377850602
| 20> H -0.4958898427 -1.4421368401 -0.5714969422
| 21> H -2.5387511817 -0.4544039471 0.4771661959
| 22> H -1.7291102671 1.110534373 0.5700286075
| 23> H -1.1297309682 -0.2554586325 1.5134989905
| 24> *
| 25> 
| 26>                          ****END OF INPUT****
================================================================================

                       ****************************
                       * Single Point Calculation *
                       ****************************

---------------------------------
CARTESIAN COORDINATES (ANGSTROEM)
---------------------------------
  C      1.571033   -0.034208    0.563742
  C      0.672322    0.364511   -0.601623
  C     -0.672276   -0.364482   -0.601619
  C     -1.571069    0.034181    0.563734
  H      2.538779    0.454214    0.477124
  H      1.129733    0.255551    1.513479
  H      1.728891   -1.110563    0.570052
  H      0.495899    1.442161   -0.571436
  H      1.189428    0.140604   -1.537786
  H     -1.189353   -0.140526   -1.537785
  H     -0.495890   -1.442137   -0.571497
  H     -2.538751   -0.454404    0.477166
  H     -1.729110    1.110534    0.570029
  H     -1.129731   -0.255459    1.513499

----------------------------
CARTESIAN COORDINATES (A.U.)
----------------------------
  NO LB      ZA    FRAG     MASS         X           Y           Z
   0 C     6.0000    0    12.011    2.968822   -0.064643    1.065318
   1 C     6.0000    0    12.011    1.270504    0.688826   -1.136903
   2 C     6.0000    0    12.011   -1.270418   -0.688771   -1.136896
   3 C     6.0000    0    12.011   -2.968891    0.064593    1.065303
   4 H     1.0000    0     1.008    4.797598    0.858340    0.901634
   5 H     1.0000    0     1.008    2.134885    0.482921    2.860060
   6 H     1.0000    0     1.008    3.267130   -2.098661    1.077242
   7 H     1.0000    0     1.008    0.937113    2.725289   -1.079857
   8 H     1.0000    0     1.008    2.247694    0.265703   -2.905994
   9 H     1.0000    0     1.008   -2.247551   -0.265556   -2.905993
  10 H     1.0000    0     1.008   -0.937096   -2.725244   -1.079973
  11 H     1.0000    0     1.008   -4.797544   -0.858699    0.901713
  12 H     1.0000    0     1.008   -3.267545    2.098606    1.077198
  13 H     1.0000    0     1.008   -2.134882   -0.482747    2.860099

--------------------------------
INTERNAL COORDINATES (ANGSTROEM)
--------------------------------
 C      0   0   0     0.000000000000     0.00000000     0.00000000
 C      1   0   0     1.524707999572     0.00000000     0.00000000
 C      2   1   0     1.529501298485   113.17456046     0.00000000
 C      3   2   1     1.524732920152   113.17843180    67.51283450
 H      1   2   3     1.087470516043   110.25561147   175.80512307
 H      1   2   3     1.086602743798   111.03444398   295.63213396
 H      1   2   3     1.087887927916   110.40754611    56.04629578
 H      2   1   3     1.092412690903   109.39276336   121.94969635
 H      2   1   3     1.092672520880   108.80250435   239.23028146
 H      3   2   1     1.092671117983   108.56151527   188.41604947
 H      3   2   1     1.092409917425   109.16186397   305.42916277
 H      4   3   2     1.087482065431   110.25659980   175.81469844
 H      4   3   2     1.087912102615   110.41035612    56.05383574
 H      4   3   2     1.086611393521   111.03444895   295.64027715

---------------------------
INTERNAL COORDINATES (A.U.)
---------------------------
 C      0   0   0     0.000000000000     0.00000000     0.00000000
 C      1   0   0     2.881280553390     0.00000000     0.00000000
 C      2   1   0     2.890338575613   113.17456046     0.00000000
 C      3   2   1     2.881327646461   113.17843180    67.51283450
 H      1   2   3     2.055021454036   110.25561147   175.80512307
 H      1   2   3     2.053381602145   111.03444398   295.63213396
 H      1   2   3     2.055810248161   110.40754611    56.04629578
 H      2   1   3     2.064360811026   109.39276336   121.94969635
 H      2   1   3     2.064851818525   108.80250435   239.23028146
 H      3   2   1     2.064849167433   108.56151527   188.41604947
 H      3   2   1     2.064355569914   109.16186397   305.42916277
 H      4   3   2     2.055043279216   110.25659980   175.81469844
 H      4   3   2     2.055855931721   110.41035612    56.05383574
 H      4   3   2     2.053397947754   111.03444895   295.64027715

---------------------
BASIS SET INFORMATION
---------------------
There are 2 groups of distinct atoms

 Group   1 Type C   : 11s6p1d contracted to 5s3p1d pattern {62111/411/1}
 Group   2 Type H   : 4s1p contracted to 2s1p pattern {31/1}

Atom   0C    basis set group =>   1
Atom   1C    basis set group =>   1
Atom   2C    basis set group =>   1
Atom   3C    basis set group =>   1
Atom   4H    basis set group =>   2
Atom   5H    basis set group =>   2
Atom   6H    basis set group =>   2
Atom   7H    basis set group =>   2
Atom   8H    basis set group =>   2
Atom   9H    basis set group =>   2
Atom  10H    basis set group =>   2
Atom  11H    basis set group =>   2
Atom  12H    basis set group =>   2
Atom  13H    basis set group =>   2
---------------------------------
AUXILIARY/J BASIS SET INFORMATION
---------------------------------
There are 2 groups of distinct atoms

 Group   1 Type C   : 12s5p4d2f1g contracted to 6s4p3d1f1g pattern {711111/2111/211/2/1}
 Group   2 Type H   : 5s2p1d contracted to 3s1p1d pattern {311/2/1}

Atom   0C    basis set group =>   1
Atom   1C    basis set group =>   1
Atom   2C    basis set group =>   1
Atom   3C    basis set group =>   1
Atom   4H    basis set group =>   2
Atom   5H    basis set group =>   2
Atom   6H    basis set group =>   2
Atom   7H    basis set group =>   2
Atom   8H    basis set group =>   2
Atom   9H    basis set group =>   2
Atom  10H    basis set group =>   2
Atom  11H    basis set group =>   2
Atom  12H    basis set group =>   2
Atom  13H    basis set group =>   2

Checking for AutoStart:
The File: sp_solv.gbw exists
Trying to determine its content:
     ... Fine, the file contains calculation information
     ... Fine, the calculation information was read
     ... Fine, the file contains a basis set
     ... Fine, the basis set was read
     ... Fine, the file contains a geometry
     ... Fine, the geometry was read
     ... Fine, the file contains a set of orbitals
     ... Fine, the orbitals can be read
     => possible old guess file was deleted
     => GBW file was renamed to GES file
     => GES file is set as startup file
     => Guess is set to MORead
     ... now leaving AutoStart

------------------------------------------------------------------------------
                             ORCA STARTUP CALCULATIONS
                           -- RI-GTO INTEGRALS CHOSEN --
------------------------------------------------------------------------------
------------------------------------------------------------------------------
                   ___                                                        
                  /   \      - P O W E R E D   B Y -                         
                 /     \                                                     
                 |  |  |   _    _      __       _____    __    __             
                 |  |  |  | |  | |    /  \     |  _  \  |  |  /  |          
                  \  \/   | |  | |   /    \    | | | |  |  | /  /          
                 / \  \   | |__| |  /  /\  \   | |_| |  |  |/  /          
                |  |  |   |  __  | /  /__\  \  |    /   |      \           
                |  |  |   | |  | | |   __   |  |    \   |  |\   \          
                \     /   | |  | | |  |  |  |  | |\  \  |  | \   \       
                 \___/    |_|  |_| |__|  |__|  |_| \__\ |__|  \__/        
                                                                              
                      - O R C A' S   B I G   F R I E N D -                    
                                      &                                       
                       - I N T E G R A L  F E E D E R -                       
                                                                              
 v1 FN, 2020, v2 2021, v3 2022-2024                                           
------------------------------------------------------------------------------


----------------------
SHARK INTEGRAL PACKAGE
----------------------

Number of atoms                             ...     14
Number of basis functions                   ...    126
Number of shells                            ...     66
Maximum angular momentum                    ...      2
Integral batch strategy                     ... SHARK/LIBINT Hybrid
RI-J (if used) integral strategy            ... SPLIT-RIJ (Revised 2003 algorithm where possible)
Printlevel                                  ...      1
Contraction scheme used                     ... SEGMENTED contraction
Prescreening option                         ... SCHWARTZ
   Thresh                                   ... 1.000e-10
   Tcut                                     ... 1.000e-11
   Tpresel                                  ... 1.000e-11 
Coulomb Range Separation                    ... NOT USED
Exchange Range Separation                   ... NOT USED
Multipole approximations                    ... NOT USED
Finite Nucleus Model                        ... NOT USED
CABS basis                                  ... NOT available
Auxiliary Coulomb fitting basis             ... AVAILABLE
   # of basis functions in Aux-J            ...    306
   # of shells in Aux-J                     ...    110
   Maximum angular momentum in Aux-J        ...      4
Auxiliary J/K fitting basis                 ... NOT available
Auxiliary Correlation fitting basis         ... NOT available
Auxiliary 'external' fitting basis          ... NOT available

Checking pre-screening integrals            ... done (  0.0 sec) Dimension = 66
Check shell pair data                       ... done (  0.0 sec)
Shell pair information
Shell pair cut-off parameter TPreSel        ...   1.0e-11
Total number of shell pairs                 ...      2211
Shell pairs after pre-screening             ...      2155
Total number of primitive shell pairs       ...      7621
Primitive shell pairs kept                  ...      5789
          la=0 lb=0:    794 shell pairs
          la=1 lb=0:    856 shell pairs
          la=1 lb=1:    247 shell pairs
          la=2 lb=0:    160 shell pairs
          la=2 lb=1:     88 shell pairs
          la=2 lb=2:     10 shell pairs

Calculating one electron integrals          ... done (  0.0 sec)
Calculating RI/J V-Matrix + Cholesky decomp.... done (  0.0 sec)
Calculating Nuclear repulsion               ... done (  0.0 sec) ENN=    133.064250086899 Eh

Diagonalization of the overlap matrix:
Smallest eigenvalue                        ... 3.940e-04
Time for diagonalization                   ...    0.002 sec
Threshold for overlap eigenvalues          ... 1.000e-07
Number of eigenvalues below threshold      ... 0
Time for construction of square roots      ...    0.012 sec
Total time needed                          ...    0.020 sec

-------------------
DFT GRID GENERATION
-------------------

General Integration Accuracy     IntAcc      ... 4.388
Radial Grid Type                 RadialGrid  ... OptM3 with GC (2021)
Angular Grid (max. ang.)         AngularGrid ... 4 (Lebedev-302)
Angular grid pruning method      GridPruning ... 4 (adaptive)
Weight generation scheme         WeightScheme... mBecke (2022)
Basis function cutoff            BFCut       ... 1.0000e-10
Integration weight cutoff        WCut        ... 1.0000e-14
Partially contracted basis set               ... off
Rotationally invariant grid construction     ... off
Angular grids for H and He will be reduced by one unit

Total number of grid points                  ...    56326
Total number of batches                      ...      888
Average number of points per batch           ...       63
Average number of grid points per atom       ...     4023
Initializing property integral containers    ... done (  0.0 sec)

SHARK setup successfully completed in   0.6 seconds

Maximum memory used throughout the entire STARTUP-calculation: 23.1 MB
-------------------------------------------------------------------------------
                                 ORCA GUESS
                   Start orbitals & Density for SCF / CASSCF
-------------------------------------------------------------------------------

------------
SCF SETTINGS
------------
Hamiltonian:
 Density Functional     Method          .... DFT(GTOs)
  Functional kind                       .... Exchange
  Functional name                       .... Re-regularized SCAN exchange by Furness et al
  Functional family                     .... MGGA
  Functional refs                              
    [ 0] J. W. Furness, A. D. Kaplan, J. Ning, J. P. Perdew, and J. Sun.,  J. Phys. Chem. Lett. 11, 8208-8215 (2020), doi: 10.1021/acs.jpclett.0c02405
    [ 1] J. W. Furness, A. D. Kaplan, J. Ning, J. P. Perdew, and J. Sun.,  J. Phys. Chem. Lett. 11, 9248-9248 (2020), doi: 10.1021/acs.jpclett.0c03077
  Functional external parameters        .... 6
    Parameter  0 _c1        =  6.670000e-01 : c1 parameter        
    Parameter  1 _c2        =  8.000000e-01 : c2 parameter        
    Parameter  2 _d         =  1.240000e+00 : d parameter         
    Parameter  3 _k1        =  6.500000e-02 : k1 parameter        
    Parameter  4 _eta       =  1.000000e-03 : eta parameter       
    Parameter  5 _dp2       =  3.610000e-01 : dp2 parameter       
  Functional kind                       .... Correlation
  Functional name                       .... Re-regularized SCAN correlation by Furness et al
  Functional family                     .... MGGA
  Functional refs                              
    [ 0] J. W. Furness, A. D. Kaplan, J. Ning, J. P. Perdew, and J. Sun.,  J. Phys. Chem. Lett. 11, 8208-8215 (2020), doi: 10.1021/acs.jpclett.0c02405
    [ 1] J. W. Furness, A. D. Kaplan, J. Ning, J. P. Perdew, and J. Sun.,  J. Phys. Chem. Lett. 11, 9248-9248 (2020), doi: 10.1021/acs.jpclett.0c03077
  Functional external parameters        .... 1
    Parameter  0 _eta       =  1.000000e-03 : Regularization parameter
 Gradients option       PostSCFGGA      .... off
 RI-approximation to the Coulomb term is turned on
   Number of AuxJ basis functions       .... 306


General Settings:
 Integral files         IntName         .... sp_solv
 Hartree-Fock type      HFTyp           .... RHF
 Total Charge           Charge          ....    0
 Multiplicity           Mult            ....    1
 Number of Electrons    NEL             ....   34
 Basis Dimension        Dim             ....  126
 Nuclear Repulsion      ENuc            ....    133.0642500869 Eh

Convergence Acceleration:
 AO-DIIS                CNVDIIS         .... on
   Start iteration      DIISMaxIt       ....    12
   Startup error        DIISStart       ....  0.200000
   # of expansion vecs  DIISMaxEq       ....     5
   Bias factor          DIISBfac        ....   1.050
   Max. coefficient     DIISMaxC        ....  10.000
 MO-DIIS                CNVKDIIS        .... off
 Trust-Rad. Augm. Hess. CNVTRAH         .... auto
   Auto Start mean grad. ratio tolernc. ....  1.125000
   Auto Start start iteration           ....     1
   Auto Start num. interpolation iter.  ....    10
   Max. Number of Micro iterations      ....    24
   Max. Number of Macro iterations      .... Maxiter - #DIIS iter
   Number of Davidson start vectors     ....     2
   Converg. threshold    (grad. norm)   ....   3.330e-04
   Grad. Scal. Fac. for Micro threshold ....   0.100
   Minimum threshold for Micro iter.    ....   1.000e-02
   NR start threshold (gradient norm)   ....   1.000e-04
   Initial trust radius                 ....   0.400
   Minimum AH scaling param. (alpha)    ....   1.000
   Maximum AH scaling param. (alpha)    .... 1000.000
   Quad. conv. algorithm                .... NR
   White noise on init. David. guess    .... on
   Maximum white noise                  ....   0.010
   Pseudo random numbers                .... off
   Inactive MOs                         .... canonical
   Orbital update algorithm             .... Taylor
   Preconditioner                       .... Diag
   Full preconditioner red. dimension   ....   250
   COSX micro iterations for RIJONX calc.... off
 SOSCF                  CNVSOSCF        .... on
   Start iteration      SOSCFMaxIt      ....   150
   Startup grad/error   SOSCFStart      ....  0.003300
   Hessian update       SOSCFHessUp     .... L-BFGS
 Level Shifting         CNVShift        .... on
   Level shift para.    LevelShift      ....    0.2500
   Turn off err/grad.   ShiftErr        ....    0.0010
 Zerner damping         CNVZerner       .... off
 Static damping         CNVDamp         .... on
   Fraction old density DampFac         ....    0.7000
   Max. Damping (<1)    DampMax         ....    0.9800
   Min. Damping (>=0)   DampMin         ....    0.0000
   Turn off err/grad.   DampErr         ....    0.1000

SCF Procedure:
 Maximum # iterations   MaxIter         ....   125
 SCF integral mode      SCFMode         .... Direct
   Integral package                     .... SHARK and LIBINT hybrid scheme
 Reset frequency        DirectResetFreq ....    20
 Integral Threshold     Thresh          ....  1.000e-10 Eh
 Primitive CutOff       TCut            ....  1.000e-11 Eh

Convergence Tolerance:
 Convergence Check Mode ConvCheckMode   .... Total+1el-Energy
 Convergence forced     ConvForced      .... 0
 Energy Change          TolE            ....  1.000e-06 Eh
 1-El. energy change                    ....  1.000e-03 Eh
 Orbital Gradient       TolG            ....  3.330e-04
 Orbital Rotation angle TolX            ....  3.330e-04
 DIIS Error             TolErr          ....  1.000e-06

---------------------
INITIAL GUESS: MOREAD
---------------------
Guess MOs are being read from file: sp_solv.ges
Input Geometry matches current geometry (good)
Atom 0: N(Shells)= 9 and 6 - projection required
Input basis set needs projection
NBasis(read)= 76
NBasis(calc)= 126
Basis set overlap was calculated
Using GuessMode=FMatrix for the initial guess
C*T matrix was formed
Effective Fockian was calculated
Effective Fockian was diagonalized
Initial density was built
                      ------------------
                      INITIAL GUESS DONE (   0.0 sec)
                      ------------------
             **** ENERGY FILE WAS UPDATED (sp_solv.en.tmp) ****
Finished Guess after   0.2 sec
Maximum memory used throughout the entire GUESS-calculation: 9.0 MB

-------------------------------------------------------------------------------------------
                                      ORCA LEAN-SCF
                              memory conserving SCF solver
-------------------------------------------------------------------------------------------

--------------------
CPCM SOLVATION MODEL
--------------------
CPCM parameters:
  Epsilon                                         ...      78.3550
  Refrac                                          ...       1.3328
  Rsolv                                           ...       1.3000
  Surface type                                    ... GAUSSIAN VDW
  Discretization scheme                           ... Constant charge density
    Threshold for H atoms                         ...       5.0000 (charges/Ang^2)
    Threshold for non-H atoms                     ...       5.0000 (charges/Ang^2)
  Epsilon function type                           ...         CPCM
Solvent:                                          ... WATER
SMD-CDS solvent descriptors:
  Soln                                            ...       1.3328
  Soln25                                          ...       1.3323
  Sola                                            ...       0.0000
  Solb                                            ...       0.0000
  Solg                                            ...       0.0000
  Solc                                            ...       0.0000
  Solh                                            ...       0.0000
Radii:
  Scheme                                          ... Element-dependent radii
  Radius for C  used is    3.4960 Bohr (=   1.8500 Ang.)
  Radius for H  used is    2.2677 Bohr (=   1.2000 Ang.)
Calculating surface                               ...        done! (  0.0s)
Cavity surface points                             ...         1054
Cavity Volume                                     ...     563.3439
Cavity Surface-area                               ...     391.7677
Calculating surface distance matrix               ...        done! (  0.0s)
Performing Cholesky decomposition & store         ...        done! (  0.0s)
Overall time for CPCM initialization              ...                 0.1s

----------------------------------------D-I-I-S--------------------------------------------
Iteration    Energy (Eh)           Delta-E    RMSDP     MaxDP     DIISErr   Damp  Time(sec)
-------------------------------------------------------------------------------------------
               ***  Starting incremental Fock matrix formation  ***
    1    -158.3078099788886277     0.00e+00  3.75e-03  8.43e-02  2.80e-01  0.700   1.3
    2    -158.3331975885245413    -2.54e-02  3.13e-03  7.08e-02  1.97e-01  0.700   1.3
                               ***Turning on AO-DIIS***
    3    -158.3512044213239562    -1.80e-02  2.37e-03  5.28e-02  1.38e-01  0.700   1.2
    4    -158.3638596860672862    -1.27e-02  1.71e-03  3.78e-02  9.65e-02  0.700   1.3
    5    -158.3727428163589650    -8.88e-03  4.07e-03  8.91e-02  6.75e-02  0.000   1.2
                              *** Initializing SOSCF ***
---------------------------------------S-O-S-C-F--------------------------------------
Iteration    Energy (Eh)           Delta-E    RMSDP     MaxDP     MaxGrad    Time(sec)
--------------------------------------------------------------------------------------
    6    -158.3935611732312339    -2.08e-02  6.82e-05  1.06e-03  2.16e-04     1.3
               *** Restarting incremental Fock matrix formation ***
    7    -158.3935618900193560    -7.17e-07  2.65e-05  2.95e-04  4.67e-05     1.3
                  *** Gradient check signals convergence ***

               *****************************************************
               *                     SUCCESS                       *
               *           SCF CONVERGED AFTER   7 CYCLES          *
               *****************************************************


SMD CDS free energy correction energy :                 2.73488     Kcal/mol
Total Energy after SMD CDS correction =              -158.389203581 Eh
             **** ENERGY FILE WAS UPDATED (sp_solv.en.tmp) ****

----------------
TOTAL SCF ENERGY
----------------

Total Energy       :       -158.38920358144472 Eh           -4309.98935 eV

Components:
Nuclear Repulsion  :        133.06425008689925 Eh            3620.86233 eV
Electronic Energy  :       -291.45613247579729 Eh           -7930.92457 eV
One Electron Energy:       -474.74164841095711 Eh          -12918.37701 eV
Two Electron Energy:        183.28551593515982 Eh            4987.45245 eV
CPCM Dielectric    :         -0.00167950112132 Eh              -0.04570 eV
SMD CDS (Gcds)     :          0.00435830857463 Eh               0.11860 eV

Virial components:
Potential Energy   :       -316.01027665094932 Eh           -8599.07680 eV
Kinetic Energy     :        157.62107306950460 Eh            4289.08745 eV
Virial Ratio       :          2.00487327295127

DFT components:
N(Alpha)           :       17.000004319536 electrons
N(Beta)            :       17.000004319536 electrons
N(Total)           :       34.000008639072 electrons
E(X)               :      -24.371625978505 Eh       
E(C)               :       -1.029059990544 Eh       
E(XC)              :      -25.400685969050 Eh       

CPCM Solvation Model Properties:
Surface-charge          :         -0.04224117788512
Corrected charge        :         -0.00000000000000
Outlying charge corr.   :          0.00016348788088 Eh               0.00445 eV
Free-energy (cav+disp)  :          0.00435830857463 Eh               0.11860 eV

---------------
SCF CONVERGENCE
---------------

  Last Energy change         ...    7.1679e-07  Tolerance :   1.0000e-06
  Last MAX-Density change    ...    2.9494e-04  Tolerance :   1.0000e-05
  Last RMS-Density change    ...    2.6514e-05  Tolerance :   1.0000e-06
  Last DIIS Error            ...    2.1574e-04  Tolerance :   1.0000e-06
  Last Orbital Gradient      ...    4.6731e-05  Tolerance :   3.3300e-04
  Last Orbital Rotation      ...    8.6779e-05  Tolerance :   3.3300e-04


----------------
ORBITAL ENERGIES
----------------

  NO   OCC          E(Eh)            E(eV) 
   0   2.0000     -10.014294      -272.5028 
   1   2.0000     -10.014163      -272.4992 
   2   2.0000     -10.006144      -272.2810 
   3   2.0000     -10.006136      -272.2808 
   4   2.0000      -0.753519       -20.5043 
   5   2.0000      -0.679396       -18.4873 
   6   2.0000      -0.598435       -16.2842 
   7   2.0000      -0.524855       -14.2820 
   8   2.0000      -0.417934       -11.3726 
   9   2.0000      -0.416266       -11.3272 
  10   2.0000      -0.379311       -10.3216 
  11   2.0000      -0.343766        -9.3544 
  12   2.0000      -0.343420        -9.3449 
  13   2.0000      -0.320842        -8.7306 
  14   2.0000      -0.286207        -7.7881 
  15   2.0000      -0.282164        -7.6781 
  16   2.0000      -0.281583        -7.6623 
  17   0.0000       0.100312         2.7296 
  18   0.0000       0.129437         3.5221 
  19   0.0000       0.132754         3.6124 
  20   0.0000       0.141790         3.8583 
  21   0.0000       0.154596         4.2068 
  22   0.0000       0.165854         4.5131 
  23   0.0000       0.166275         4.5246 
  24   0.0000       0.197206         5.3662 
  25   0.0000       0.197782         5.3819 
  26   0.0000       0.210757         5.7350 
  27   0.0000       0.217614         5.9216 
*Only the first 10 virtual orbitals were printed.

                    ********************************
                    * MULLIKEN POPULATION ANALYSIS *
                    ********************************

-----------------------
MULLIKEN ATOMIC CHARGES
-----------------------
   0 C :   -0.517526
   1 C :   -0.227960
   2 C :   -0.227987
   3 C :   -0.517528
   4 H :    0.153466
   5 H :    0.157570
   6 H :    0.151633
   7 H :    0.137602
   8 H :    0.145228
   9 H :    0.145224
  10 H :    0.137605
  11 H :    0.153468
  12 H :    0.151635
  13 H :    0.157569
Sum of atomic charges:    0.0000000

--------------------------------
MULLIKEN REDUCED ORBITAL CHARGES
--------------------------------
  0 C s       :     3.332952  s :     3.332952
      pz      :     1.007057  p :     3.157480
      px      :     1.068790
      py      :     1.081633
      dz2     :     0.008209  d :     0.027094
      dxz     :     0.005786
      dyz     :     0.002711
      dx2y2   :     0.006215
      dxy     :     0.004174

  1 C s       :     3.194713  s :     3.194713
      pz      :     1.010956  p :     2.996149
      px      :     0.949614
      py      :     1.035579
      dz2     :     0.008611  d :     0.037097
      dxz     :     0.010042
      dyz     :     0.002827
      dx2y2   :     0.009417
      dxy     :     0.006199

  2 C s       :     3.194733  s :     3.194733
      pz      :     1.010958  p :     2.996158
      px      :     0.949615
      py      :     1.035585
      dz2     :     0.008611  d :     0.037096
      dxz     :     0.010042
      dyz     :     0.002826
      dx2y2   :     0.009417
      dxy     :     0.006199

  3 C s       :     3.332954  s :     3.332954
      pz      :     1.007061  p :     3.157480
      px      :     1.068776
      py      :     1.081643
      dz2     :     0.008209  d :     0.027094
      dxz     :     0.005786
      dyz     :     0.002710
      dx2y2   :     0.006213
      dxy     :     0.004176

  4 H s       :     0.828158  s :     0.828158
      pz      :     0.003730  p :     0.018376
      px      :     0.009519
      py      :     0.005127

  5 H s       :     0.823964  s :     0.823964
      pz      :     0.009301  p :     0.018466
      px      :     0.004977
      py      :     0.004188

  6 H s       :     0.830096  s :     0.830096
      pz      :     0.003635  p :     0.018271
      px      :     0.003781
      py      :     0.010855

  7 H s       :     0.844485  s :     0.844485
      pz      :     0.003477  p :     0.017914
      px      :     0.003589
      py      :     0.010848

  8 H s       :     0.836883  s :     0.836883
      pz      :     0.008947  p :     0.017890
      px      :     0.005134
      py      :     0.003808

  9 H s       :     0.836886  s :     0.836886
      pz      :     0.008947  p :     0.017890
      px      :     0.005134
      py      :     0.003808

 10 H s       :     0.844481  s :     0.844481
      pz      :     0.003477  p :     0.017914
      px      :     0.003589
      py      :     0.010848

 11 H s       :     0.828156  s :     0.828156
      pz      :     0.003730  p :     0.018375
      px      :     0.009518
      py      :     0.005128

 12 H s       :     0.830095  s :     0.830095
      pz      :     0.003635  p :     0.018270
      px      :     0.003781
      py      :     0.010854

 13 H s       :     0.823965  s :     0.823965
      pz      :     0.009301  p :     0.018466
      px      :     0.004977
      py      :     0.004187


------------------------
MULLIKEN OVERLAP CHARGES
------------------------
B(  0-C ,  1-C ) :   0.4207 B(  0-C ,  2-C ) :  -0.2406 B(  0-C ,  3-C ) :   0.0536 
B(  0-C ,  4-H ) :   0.7878 B(  0-C ,  5-H ) :   0.8573 B(  0-C ,  6-H ) :   0.8415 
B(  0-C ,  7-H ) :  -0.0738 B(  0-C ,  8-H ) :  -0.0555 B(  1-C ,  2-C ) :   0.5449 
B(  1-C ,  3-C ) :  -0.2405 B(  1-C ,  4-H ) :  -0.0626 B(  1-C ,  5-H ) :  -0.0957 
B(  1-C ,  6-H ) :  -0.0920 B(  1-C ,  7-H ) :   0.8497 B(  1-C ,  8-H ) :   0.8232 
B(  1-C ,  9-H ) :  -0.0904 B(  1-C , 10-H ) :  -0.0936 B(  2-C ,  3-C ) :   0.4207 
B(  2-C ,  7-H ) :  -0.0936 B(  2-C ,  8-H ) :  -0.0904 B(  2-C ,  9-H ) :   0.8232 
B(  2-C , 10-H ) :   0.8497 B(  2-C , 11-H ) :  -0.0626 B(  2-C , 12-H ) :  -0.0919 
B(  2-C , 13-H ) :  -0.0957 B(  3-C ,  9-H ) :  -0.0555 B(  3-C , 10-H ) :  -0.0738 
B(  3-C , 11-H ) :   0.7878 B(  3-C , 12-H ) :   0.8415 B(  3-C , 13-H ) :   0.8573 
B(  5-H ,  6-H ) :  -0.0510 B( 12-H , 13-H ) :  -0.0510 


                     *******************************
                     * LOEWDIN POPULATION ANALYSIS *
                     *******************************

----------------------
LOEWDIN ATOMIC CHARGES
----------------------
   0 C :   -0.436195
   1 C :   -0.324363
   2 C :   -0.324365
   3 C :   -0.436199
   4 H :    0.152385
   5 H :    0.151412
   6 H :    0.152115
   7 H :    0.152131
   8 H :    0.152519
   9 H :    0.152516
  10 H :    0.152130
  11 H :    0.152388
  12 H :    0.152117
  13 H :    0.151411

-------------------------------
LOEWDIN REDUCED ORBITAL CHARGES
-------------------------------
  0 C s       :     2.973713  s :     2.973713
      pz      :     1.118172  p :     3.399359
      px      :     1.127492
      py      :     1.153695
      dz2     :     0.018783  d :     0.063123
      dxz     :     0.013790
      dyz     :     0.005745
      dx2y2   :     0.015080
      dxy     :     0.009725

  1 C s       :     2.941345  s :     2.941345
      pz      :     1.104817  p :     3.302996
      px      :     1.072450
      py      :     1.125729
      dz2     :     0.018956  d :     0.080022
      dxz     :     0.021892
      dyz     :     0.005375
      dx2y2   :     0.020579
      dxy     :     0.013218

  2 C s       :     2.941349  s :     2.941349
      pz      :     1.104815  p :     3.302997
      px      :     1.072451
      py      :     1.125731
      dz2     :     0.018956  d :     0.080020
      dxz     :     0.021892
      dyz     :     0.005375
      dx2y2   :     0.020580
      dxy     :     0.013218

  3 C s       :     2.973727  s :     2.973727
      pz      :     1.118172  p :     3.399353
      px      :     1.127484
      py      :     1.153697
      dz2     :     0.018783  d :     0.063119
      dxz     :     0.013791
      dyz     :     0.005742
      dx2y2   :     0.015075
      dxy     :     0.009729

  4 H s       :     0.803786  s :     0.803786
      pz      :     0.008500  p :     0.043829
      px      :     0.023340
      py      :     0.011989

  5 H s       :     0.804279  s :     0.804279
      pz      :     0.022993  p :     0.044309
      px      :     0.011754
      py      :     0.009562

  6 H s       :     0.804242  s :     0.804242
      pz      :     0.008168  p :     0.043643
      px      :     0.008433
      py      :     0.027043

  7 H s       :     0.804652  s :     0.804652
      pz      :     0.008089  p :     0.043217
      px      :     0.008461
      py      :     0.026667

  8 H s       :     0.804317  s :     0.804317
      pz      :     0.021828  p :     0.043164
      px      :     0.012445
      py      :     0.008891

  9 H s       :     0.804319  s :     0.804319
      pz      :     0.021828  p :     0.043164
      px      :     0.012444
      py      :     0.008892

 10 H s       :     0.804653  s :     0.804653
      pz      :     0.008089  p :     0.043218
      px      :     0.008461
      py      :     0.026668

 11 H s       :     0.803784  s :     0.803784
      pz      :     0.008499  p :     0.043828
      px      :     0.023338
      py      :     0.011991

 12 H s       :     0.804242  s :     0.804242
      pz      :     0.008167  p :     0.043641
      px      :     0.008433
      py      :     0.027041

 13 H s       :     0.804281  s :     0.804281
      pz      :     0.022993  p :     0.044308
      px      :     0.011754
      py      :     0.009561


---------------------------------
LOEWDIN BOND ORDERS (THRESH 0.050000)
---------------------------------
B(  0-C ,  1-C ) :   1.1431 B(  0-C ,  2-C ) :   0.0634 B(  0-C ,  4-H ) :   0.9307 
B(  0-C ,  5-H ) :   0.9285 B(  0-C ,  6-H ) :   0.9299 B(  1-C ,  2-C ) :   1.1178 
B(  1-C ,  3-C ) :   0.0634 B(  1-C ,  7-H ) :   0.8967 B(  1-C ,  8-H ) :   0.8969 
B(  2-C ,  3-C ) :   1.1431 B(  2-C ,  9-H ) :   0.8969 B(  2-C , 10-H ) :   0.8967 
B(  3-C , 11-H ) :   0.9307 B(  3-C , 12-H ) :   0.9299 B(  3-C , 13-H ) :   0.9285 


------------------------------------------
LOEWDIN REDUCED ORBITAL POPULATIONS PER MO
-------------------------------------------
THRESHOLD FOR PRINTING IS 0.1%%
                      0         1         2         3         4         5   
                 -10.01429 -10.01416 -10.00614 -10.00614  -0.75352  -0.67940
                   2.00000   2.00000   2.00000   2.00000   2.00000   2.00000
                  --------  --------  --------  --------  --------  --------
 0 C  s               0.0       0.0       2.5      97.2      10.9      20.2
 0 C  pz              0.0       0.0       0.0       0.0       1.3       0.3
 0 C  px              0.0       0.0       0.0       0.0       1.4       0.1
 1 C  s              49.4      50.3       0.0       0.0      22.7       6.6
 1 C  pz              0.0       0.0       0.0       0.1       0.6       1.2
 1 C  px              0.0       0.0       0.0       0.0       0.7       6.2
 1 C  py              0.0       0.0       0.0       0.0       0.8       0.0
 2 C  s              50.3      49.4       0.0       0.0      22.7       6.6
 2 C  pz              0.0       0.0       0.0       0.0       0.6       1.2
 2 C  px              0.0       0.0       0.0       0.0       0.7       6.2
 2 C  py              0.0       0.0       0.0       0.0       0.8       0.0
 3 C  s               0.0       0.0      97.2       2.5      10.9      20.2
 3 C  pz              0.0       0.0       0.0       0.0       1.3       0.3
 3 C  px              0.0       0.0       0.0       0.0       1.4       0.1
 4 H  s               0.0       0.0       0.0       0.0       1.4       4.1
 4 H  px              0.0       0.0       0.0       0.0       0.1       0.3
 5 H  s               0.0       0.0       0.0       0.0       1.5       3.6
 5 H  pz              0.0       0.0       0.0       0.0       0.1       0.2
 6 H  s               0.0       0.0       0.0       0.0       1.5       3.7
 6 H  py              0.0       0.0       0.0       0.0       0.1       0.3
 7 H  s               0.0       0.0       0.0       0.0       3.0       1.1
 7 H  py              0.0       0.0       0.0       0.0       0.3       0.1
 8 H  s               0.0       0.0       0.0       0.0       3.0       1.4
 8 H  pz              0.0       0.0       0.0       0.0       0.2       0.1
 9 H  s               0.0       0.0       0.0       0.0       3.0       1.4
 9 H  pz              0.0       0.0       0.0       0.0       0.2       0.1
10 H  s               0.0       0.0       0.0       0.0       3.0       1.1
10 H  py              0.0       0.0       0.0       0.0       0.3       0.1
11 H  s               0.0       0.0       0.0       0.0       1.4       4.1
11 H  px              0.0       0.0       0.0       0.0       0.1       0.3
12 H  s               0.0       0.0       0.0       0.0       1.5       3.7
12 H  py              0.0       0.0       0.0       0.0       0.1       0.3
13 H  s               0.0       0.0       0.0       0.0       1.5       3.6
13 H  pz              0.0       0.0       0.0       0.0       0.1       0.3

                      6         7         8         9        10        11   
                  -0.59843  -0.52486  -0.41793  -0.41627  -0.37931  -0.34377
                   2.00000   2.00000   2.00000   2.00000   2.00000   2.00000
                  --------  --------  --------  --------  --------  --------
 0 C  s              12.9       3.5       0.2       0.2       0.0       0.1
 0 C  pz              2.4       4.1       6.9       2.5       0.0       2.7
 0 C  px              1.1       1.2       0.2      14.7       0.0      22.7
 0 C  py              0.1       2.1       6.7       0.0      21.4       2.6
 0 C  dz2             0.0       0.0       0.0       0.0       0.0       0.1
 0 C  dx2y2           0.0       0.0       0.0       0.0       0.1       0.1
 0 C  dxy             0.0       0.0       0.0       0.1       0.0       0.2
 1 C  s               6.2      10.1       0.3       0.1       0.0       0.5
 1 C  pz              5.3       1.3       1.7      11.7       1.9       1.3
 1 C  px              3.8       1.2       5.0       6.8       2.4       0.2
 1 C  py              0.0       6.5      14.2       0.1       8.6       0.0
 2 C  s               6.2      10.1       0.3       0.1       0.0       0.5
 2 C  pz              5.3       1.3       1.7      11.7       1.9       1.3
 2 C  px              3.8       1.2       5.0       6.8       2.4       0.2
 2 C  py              0.0       6.5      14.2       0.1       8.6       0.0
 3 C  s              12.9       3.5       0.2       0.2       0.0       0.1
 3 C  pz              2.4       4.1       6.9       2.5       0.0       2.7
 3 C  px              1.1       1.2       0.2      14.7       0.0      22.7
 3 C  py              0.1       2.1       6.7       0.0      21.4       2.6
 3 C  dz2             0.0       0.0       0.0       0.0       0.0       0.1
 3 C  dx2y2           0.0       0.0       0.0       0.0       0.1       0.1
 3 C  dxy             0.0       0.0       0.0       0.1       0.0       0.2
 4 H  s               4.2       1.3       1.1       5.2       1.7      13.3
 4 H  px              0.2       0.0       0.1       0.1       0.1       0.1
 5 H  s               4.5       1.9       3.4       2.2       0.4       4.3
 5 H  pz              0.2       0.1       0.1       0.1       0.0       0.1
 5 H  py              0.0       0.0       0.0       0.0       0.1       0.1
 6 H  s               3.8       3.0       1.3       0.3       9.1       0.7
 6 H  px              0.0       0.0       0.0       0.1       0.0       0.2
 6 H  py              0.3       0.2       0.0       0.0       0.2       0.0
 7 H  s               1.7       7.3       4.1       0.0       3.1       0.2
 7 H  py              0.1       0.4       0.1       0.0       0.1       0.0
 8 H  s               2.3       4.9       4.0       5.3       0.3       0.1
 8 H  pz              0.1       0.2       0.2       0.1       0.0       0.0
 9 H  s               2.3       4.9       4.0       5.3       0.3       0.1
 9 H  pz              0.1       0.2       0.2       0.1       0.0       0.0
10 H  s               1.7       7.3       4.1       0.0       3.1       0.2
10 H  py              0.1       0.4       0.1       0.0       0.1       0.0
11 H  s               4.2       1.3       1.1       5.2       1.7      13.3
11 H  px              0.2       0.0       0.1       0.1       0.1       0.1
12 H  s               3.8       3.0       1.3       0.3       9.1       0.7
12 H  px              0.0       0.0       0.0       0.1       0.0       0.2
12 H  py              0.3       0.2       0.0       0.0       0.2       0.0
13 H  s               4.5       1.9       3.4       2.2       0.4       4.3
13 H  pz              0.2       0.1       0.1       0.1       0.0       0.1
13 H  py              0.0       0.0       0.0       0.0       0.1       0.1

                     12        13        14        15        16        17   
                  -0.34342  -0.32084  -0.28621  -0.28216  -0.28158   0.10031
                   2.00000   2.00000   2.00000   2.00000   2.00000   0.00000
                  --------  --------  --------  --------  --------  --------
 0 C  s               0.2       0.1       0.2       0.0       0.3      15.6
 0 C  pz             21.1       0.4       0.3       0.0      13.6       1.4
 0 C  px              0.2       3.2       2.5       8.6       0.4       0.8
 0 C  py              0.4      17.4       4.8       1.7       0.3       0.1
 0 C  dz2             0.0       0.2       0.2       0.2       0.1       0.2
 0 C  dxz             0.2       0.0       0.0       0.0       0.1       0.3
 0 C  dx2y2           0.0       0.2       0.1       0.2       0.0       0.1
 0 C  dxy             0.0       0.0       0.0       0.1       0.0       0.1
 1 C  s               0.2       0.0       0.2       0.5       0.1      10.1
 1 C  pz             11.9       2.6       0.1       0.5      15.3       1.3
 1 C  px              2.4       2.3       2.1      20.2       0.3       0.6
 1 C  py              0.3       6.3      15.2       3.7       0.5       1.1
 1 C  dz2             0.0       0.1       0.3       0.2       0.1       0.0
 1 C  dxz             0.0       0.1       0.0       0.0       0.7       0.4
 1 C  dx2y2           0.0       0.0       0.7       0.1       0.0       0.0
 1 C  dxy             0.0       0.1       0.0       0.3       0.0       0.1
 2 C  s               0.2       0.0       0.2       0.4       0.1      10.1
 2 C  pz             11.9       2.6       0.1       0.4      15.4       1.3
 2 C  px              2.4       2.3       2.1      20.2       0.3       0.6
 2 C  py              0.3       6.3      15.2       3.8       0.4       1.1
 2 C  dz2             0.0       0.1       0.3       0.2       0.1       0.0
 2 C  dxz             0.0       0.1       0.0       0.0       0.7       0.4
 2 C  dx2y2           0.0       0.0       0.7       0.1       0.0       0.0
 2 C  dxy             0.0       0.1       0.0       0.3       0.0       0.1
 3 C  s               0.2       0.1       0.2       0.0       0.3      15.6
 3 C  pz             21.1       0.4       0.3       0.0      13.6       1.4
 3 C  px              0.2       3.2       2.5       8.7       0.4       0.8
 3 C  py              0.4      17.4       4.8       1.7       0.2       0.1
 3 C  dz2             0.0       0.2       0.2       0.2       0.1       0.2
 3 C  dxz             0.2       0.0       0.0       0.0       0.1       0.3
 3 C  dx2y2           0.0       0.2       0.1       0.2       0.0       0.1
 3 C  dxy             0.0       0.0       0.0       0.1       0.0       0.1
 4 H  s               0.0       0.1       0.0       7.5       0.0       3.3
 4 H  pz              0.2       0.0       0.0       0.0       0.1       0.2
 4 H  px              0.0       0.1       0.0       0.0       0.0       0.8
 4 H  py              0.0       0.1       0.0       0.0       0.0       0.3
 5 H  s               9.5       1.2       1.1       1.0       5.6       2.6
 5 H  pz              0.0       0.1       0.0       0.0       0.0       0.4
 5 H  px              0.1       0.0       0.0       0.1       0.1       1.0
 5 H  py              0.0       0.1       0.0       0.0       0.0       0.1
 6 H  s               0.2      10.7       4.7       0.8       0.5       1.4
 6 H  pz              0.2       0.0       0.0       0.0       0.1       0.1
 6 H  py              0.0       0.1       0.0       0.0       0.0       0.7
 7 H  s               0.1       4.2      14.2       0.6       0.5       1.6
 7 H  pz              0.1       0.1       0.0       0.0       0.1       0.1
 7 H  px              0.0       0.0       0.0       0.2       0.0       0.2
 7 H  py              0.0       0.1       0.1       0.0       0.0       0.8
 8 H  s               2.2       0.0       2.7       3.1      10.7       2.8
 8 H  pz              0.0       0.0       0.1       0.0       0.0       0.8
 8 H  px              0.1       0.0       0.0       0.1       0.1       0.3
 8 H  py              0.0       0.1       0.1       0.1       0.0       0.2
 9 H  s               2.2       0.0       2.7       3.0      10.9       2.8
 9 H  pz              0.0       0.0       0.1       0.0       0.0       0.8
 9 H  px              0.1       0.0       0.0       0.1       0.1       0.3
 9 H  py              0.0       0.1       0.1       0.1       0.0       0.2
10 H  s               0.1       4.2      14.2       0.6       0.5       1.6
10 H  pz              0.1       0.1       0.0       0.0       0.1       0.1
10 H  px              0.0       0.0       0.0       0.2       0.0       0.2
10 H  py              0.0       0.1       0.1       0.0       0.0       0.8
11 H  s               0.0       0.1       0.0       7.5       0.0       3.3
11 H  pz              0.2       0.0       0.0       0.0       0.1       0.2
11 H  px              0.0       0.1       0.0       0.0       0.0       0.8
11 H  py              0.0       0.1       0.0       0.0       0.0       0.3
12 H  s               0.2      10.7       4.7       0.8       0.5       1.4
12 H  pz              0.2       0.0       0.0       0.0       0.1       0.1
12 H  py              0.0       0.1       0.0       0.0       0.0       0.7
13 H  s               9.5       1.2       1.1       0.9       5.6       2.6
13 H  pz              0.0       0.1       0.0       0.0       0.0       0.4
13 H  px              0.1       0.0       0.0       0.1       0.1       1.0
13 H  py              0.0       0.1       0.0       0.0       0.0       0.1

                     18        19        20        21        22        23   
                   0.12944   0.13275   0.14179   0.15460   0.16585   0.16627
                   0.00000   0.00000   0.00000   0.00000   0.00000   0.00000
                  --------  --------  --------  --------  --------  --------
 0 C  s               8.6      11.5       0.9       2.8       1.2       0.1
 0 C  pz              9.8       0.2       1.0       3.8      13.8       7.3
 0 C  px              4.3       8.3       4.3       1.0       1.0       6.7
 0 C  py              1.1       3.2       0.2      14.5       2.3       0.1
 0 C  dz2             0.5       0.0       0.1       0.1       0.1       0.4
 0 C  dxz             0.1       0.0       0.3       0.1       0.7       0.9
 0 C  dyz             0.1       0.1       0.0       0.5       0.1       0.5
 0 C  dx2y2           0.0       0.2       0.1       0.0       0.5       0.1
 0 C  dxy             0.1       0.3       0.5       0.0       0.5       0.0
 1 C  s               6.6       1.6       7.5       3.3       1.7       1.1
 1 C  pz              5.9       4.3       7.4       0.2       0.2       6.9
 1 C  px              3.4       3.9      10.6       1.4       1.8       0.8
 1 C  py              0.3       1.5       6.8       7.3       7.7       1.3
 1 C  dz2             0.4       0.2       0.2       0.1       0.2       0.7
 1 C  dxz             0.3       0.2       0.1       0.0       0.0       1.4
 1 C  dyz             0.0       0.6       0.4       0.0       0.2       0.0
 1 C  dx2y2           0.1       0.2       0.0       0.3       1.5       0.0
 1 C  dxy             0.1       0.0       0.8       0.2       0.0       0.2
 2 C  s               6.6       1.6       7.5       3.3       1.7       1.1
 2 C  pz              6.0       4.2       7.4       0.2       0.2       7.0
 2 C  px              3.4       3.9      10.6       1.4       1.8       0.8
 2 C  py              0.3       1.5       6.8       7.3       7.7       1.3
 2 C  dz2             0.4       0.2       0.2       0.1       0.2       0.7
 2 C  dxz             0.3       0.2       0.1       0.0       0.0       1.4
 2 C  dyz             0.0       0.6       0.4       0.0       0.2       0.0
 2 C  dx2y2           0.1       0.2       0.0       0.3       1.5       0.0
 2 C  dxy             0.1       0.0       0.8       0.2       0.0       0.2
 3 C  s               8.6      11.5       0.9       2.8       1.2       0.1
 3 C  pz              9.9       0.2       1.0       3.8      13.9       7.2
 3 C  px              4.3       8.3       4.3       1.0       1.1       6.7
 3 C  py              1.1       3.2       0.2      14.5       2.3       0.1
 3 C  dz2             0.5       0.0       0.1       0.1       0.1       0.4
 3 C  dxz             0.1       0.0       0.3       0.1       0.8       0.9
 3 C  dyz             0.1       0.1       0.0       0.5       0.1       0.5
 3 C  dx2y2           0.0       0.2       0.1       0.0       0.5       0.1
 3 C  dxy             0.1       0.3       0.5       0.0       0.5       0.0
 4 H  s               0.4       1.2       2.2       1.1       3.0       1.0
 4 H  pz              0.0       0.0       0.3       0.0       0.2       0.3
 4 H  px              0.4       0.3       0.0       0.1       0.8       0.4
 4 H  py              0.0       0.1       0.8       0.2       0.1       0.1
 5 H  s               2.4       1.9       0.2       1.1       0.8       7.0
 5 H  pz              1.8       0.6       0.0       0.0       0.1       1.0
 5 H  px              0.0       0.0       0.0       0.0       0.1       0.6
 5 H  py              0.0       0.6       0.0       0.1       0.4       0.3
 6 H  s               0.2       3.0       0.6       2.4       1.9       0.1
 6 H  pz              0.1       0.1       0.0       0.3       0.3       0.7
 6 H  px              0.2       0.3       0.5       0.0       0.1       0.0
 6 H  py              0.2       1.0       0.2       1.7       0.2       0.0
 7 H  s               0.2       1.5       0.1       4.6       3.3       1.7
 7 H  pz              0.0       0.7       0.4       0.0       0.1       0.1
 7 H  px              0.2       0.1       0.4       0.3       0.0       0.1
 7 H  py              0.4       0.3       0.7       1.9       0.8       0.4
 8 H  s               0.5       0.8       0.9       0.3       3.2       6.0
 8 H  pz              1.2       0.0       0.1       0.1       0.8       0.9
 8 H  px              0.1       0.3       0.4       0.0       0.4       0.4
 8 H  py              0.0       0.5       0.5       0.2       0.0       0.1
 9 H  s               0.5       0.8       0.9       0.3       3.2       6.1
 9 H  pz              1.2       0.0       0.1       0.1       0.8       0.9
 9 H  px              0.1       0.3       0.4       0.0       0.4       0.4
 9 H  py              0.0       0.5       0.5       0.2       0.0       0.1
10 H  s               0.2       1.5       0.1       4.6       3.2       1.7
10 H  pz              0.0       0.7       0.4       0.0       0.1       0.1
10 H  px              0.2       0.1       0.4       0.3       0.0       0.1
10 H  py              0.4       0.3       0.7       1.9       0.8       0.4
11 H  s               0.4       1.2       2.2       1.1       3.0       1.0
11 H  pz              0.0       0.0       0.3       0.0       0.3       0.3
11 H  px              0.4       0.3       0.0       0.1       0.8       0.4
11 H  py              0.0       0.1       0.8       0.2       0.1       0.1
12 H  s               0.2       3.0       0.6       2.4       1.9       0.1
12 H  pz              0.1       0.1       0.0       0.3       0.3       0.7
12 H  px              0.2       0.3       0.5       0.0       0.1       0.0
12 H  py              0.2       1.0       0.2       1.7       0.2       0.0
13 H  s               2.4       1.9       0.2       1.1       0.9       6.9
13 H  pz              1.8       0.6       0.0       0.0       0.1       1.0
13 H  px              0.0       0.0       0.0       0.0       0.1       0.6
13 H  py              0.0       0.6       0.0       0.1       0.4       0.2

                     24        25        26        27        28        29   
                   0.19721   0.19778   0.21076   0.21761   0.22247   0.23362
                   0.00000   0.00000   0.00000   0.00000   0.00000   0.00000
                  --------  --------  --------  --------  --------  --------
 0 C  s               0.2       1.1       0.3       0.1       0.8       0.2
 0 C  pz              2.8       1.4       0.2       0.7      25.2       0.6
 0 C  px             15.3       0.9       5.2       6.8       4.2      11.3
 0 C  py              1.8       9.5      15.2      12.5       0.9       3.5
 0 C  dz2             0.1       0.5       0.3       1.6       0.0       0.6
 0 C  dxz             0.1       0.2       0.1       0.1       0.4       0.4
 0 C  dyz             0.1       0.0       0.1       0.0       0.1       0.2
 0 C  dx2y2           1.3       1.7       0.0       0.2       0.0       0.1
 0 C  dxy             0.1       0.0       0.7       0.6       0.0       0.0
 1 C  s               0.2       0.1       0.2       1.2       0.6       2.1
 1 C  pz              3.3       3.2       4.7       1.6      11.1       0.1
 1 C  px              7.7       2.8       1.7       2.5       0.8       1.9
 1 C  py              0.2       1.3       7.3       4.8       0.7       7.0
 1 C  dz2             0.8       0.1       0.0       0.2       0.0       0.5
 1 C  dxz             0.0       0.5       0.0       0.0       0.2       0.1
 1 C  dyz             0.1       0.2       0.1       0.0       0.1       0.0
 1 C  dx2y2           0.0       0.0       0.0       0.6       0.0       0.4
 1 C  dxy             1.0       0.0       0.2       0.1       0.0       0.5
 2 C  s               0.2       0.1       0.2       1.2       0.6       2.1
 2 C  pz              3.3       3.2       4.7       1.6      11.1       0.1
 2 C  px              7.7       2.8       1.7       2.5       0.8       1.9
 2 C  py              0.2       1.3       7.3       4.8       0.7       7.0
 2 C  dz2             0.8       0.1       0.0       0.2       0.0       0.5
 2 C  dxz             0.0       0.5       0.0       0.0       0.2       0.1
 2 C  dyz             0.1       0.2       0.1       0.0       0.1       0.0
 2 C  dx2y2           0.0       0.0       0.0       0.6       0.0       0.4
 2 C  dxy             1.0       0.0       0.2       0.1       0.0       0.5
 3 C  s               0.2       1.0       0.3       0.1       0.8       0.2
 3 C  pz              2.8       1.4       0.2       0.7      25.2       0.6
 3 C  px             15.4       0.8       5.2       6.9       4.2      11.3
 3 C  py              1.7       9.6      15.2      12.5       0.9       3.5
 3 C  dz2             0.1       0.5       0.3       1.6       0.0       0.6
 3 C  dxz             0.1       0.2       0.1       0.1       0.4       0.4
 3 C  dyz             0.1       0.0       0.1       0.0       0.1       0.2
 3 C  dx2y2           1.3       1.8       0.0       0.2       0.0       0.1
 3 C  dxy             0.1       0.0       0.7       0.6       0.0       0.0
 4 H  s               5.5       0.8       6.2       4.0       0.6       0.6
 4 H  pz              0.0       0.2       0.1       0.3       0.1       0.2
 4 H  px              2.4       0.3       1.0       0.2       0.5       0.2
 4 H  py              0.0       0.7       0.7       1.5       0.0       0.0
 5 H  s               0.1       3.5       0.6       3.9       1.3       0.4
 5 H  pz              0.1       0.5       0.0       0.6       0.4       0.0
 5 H  px              0.2       0.2       0.4       0.0       0.0       0.7
 5 H  py              0.1       0.7       0.1       0.1       0.0       0.0
 6 H  s               2.3      14.1       1.0       3.2       0.2       2.3
 6 H  pz              0.1       0.0       0.1       0.0       0.2       0.0
 6 H  px              0.0       0.0       0.6       0.7       0.0       0.0
 6 H  py              0.3       2.8       0.3       0.3       0.2       0.8
 7 H  s               0.2       0.7       0.6       0.3       0.1      10.2
 7 H  px              0.8       0.0       0.3       0.0       0.0       0.1
 7 H  py              0.2       0.1       0.0       0.1       0.0       2.7
 8 H  s               1.9       0.7       0.6       0.4       0.5       1.3
 8 H  pz              0.7       0.1       0.2       0.0       0.4       0.4
 8 H  px              0.0       0.6       0.1       0.6       0.1       0.0
 8 H  py              0.0       0.0       0.5       0.1       0.0       0.4
 9 H  s               1.9       0.7       0.6       0.4       0.5       1.3
 9 H  pz              0.7       0.1       0.2       0.0       0.4       0.4
 9 H  px              0.0       0.6       0.1       0.6       0.1       0.0
 9 H  py              0.0       0.0       0.5       0.1       0.0       0.4
10 H  s               0.2       0.7       0.6       0.3       0.1      10.2
10 H  px              0.8       0.0       0.3       0.0       0.0       0.1
10 H  py              0.2       0.1       0.0       0.1       0.0       2.7
11 H  s               5.5       0.9       6.1       4.0       0.6       0.6
11 H  pz              0.0       0.2       0.1       0.3       0.1       0.2
11 H  px              2.4       0.3       1.0       0.2       0.5       0.2
11 H  py              0.0       0.7       0.7       1.5       0.0       0.0
12 H  s               2.2      14.2       1.0       3.2       0.2       2.3
12 H  pz              0.1       0.0       0.1       0.0       0.2       0.0
12 H  px              0.0       0.0       0.6       0.7       0.0       0.0
12 H  py              0.2       2.8       0.3       0.3       0.2       0.8
13 H  s               0.1       3.6       0.6       3.9       1.3       0.4
13 H  pz              0.1       0.5       0.0       0.6       0.4       0.0
13 H  px              0.2       0.2       0.4       0.0       0.0       0.7
13 H  py              0.1       0.7       0.1       0.1       0.0       0.0

                     30        31        32        33        34        35   
                   0.23924   0.25669   0.25798   0.26948   0.27667   0.28210
                   0.00000   0.00000   0.00000   0.00000   0.00000   0.00000
                  --------  --------  --------  --------  --------  --------
 0 C  s               2.7       0.1       1.0       0.3       0.8       1.2
 0 C  pz              6.1       1.8      11.7       0.7       3.1       2.3
 0 C  px              0.3       1.7       0.1       5.9       0.4       9.5
 0 C  py              2.1       0.7       2.8      15.0      13.8       9.5
 0 C  dz2             0.3       0.3       0.3       0.0       0.2       0.0
 0 C  dxz             0.6       0.0       0.4       0.1       0.0       0.2
 0 C  dyz             0.4       0.0       0.0       0.1       0.2       0.1
 0 C  dx2y2           0.1       0.3       0.2       0.3       0.1       0.5
 0 C  dxy             0.0       0.3       0.2       0.0       0.0       0.4
 1 C  s               1.4       1.4       1.7       0.6       0.6       0.1
 1 C  pz              6.2       0.9       5.5       4.1       1.4       5.4
 1 C  px              2.8      15.4       3.4       1.5       5.1       2.2
 1 C  py              0.4      13.9       4.2       6.5       6.6       4.1
 1 C  dz2             0.0       0.6       1.1       0.1       0.1       0.0
 1 C  dxz             0.3       0.0       0.0       1.3       0.1       1.0
 1 C  dyz             0.7       0.0       0.0       0.4       0.0       0.1
 1 C  dx2y2           0.3       0.3       0.5       0.1       0.7       0.0
 1 C  dxy             0.1       0.7       0.1       0.1       0.1       0.1
 2 C  s               1.4       1.4       1.7       0.6       0.6       0.1
 2 C  pz              6.2       0.9       5.5       4.1       1.4       5.4
 2 C  px              2.8      15.4       3.4       1.5       5.1       2.2
 2 C  py              0.4      13.9       4.2       6.5       6.6       4.1
 2 C  dz2             0.0       0.6       1.1       0.1       0.1       0.0
 2 C  dxz             0.3       0.0       0.0       1.3       0.1       1.0
 2 C  dyz             0.7       0.0       0.0       0.4       0.0       0.1
 2 C  dx2y2           0.3       0.3       0.5       0.1       0.7       0.0
 2 C  dxy             0.1       0.7       0.1       0.1       0.1       0.1
 3 C  s               2.7       0.1       1.0       0.3       0.8       1.1
 3 C  pz              6.1       1.9      11.7       0.7       3.1       2.3
 3 C  px              0.3       1.7       0.1       5.9       0.4       9.5
 3 C  py              2.1       0.7       2.8      15.0      13.8       9.5
 3 C  dz2             0.3       0.3       0.3       0.0       0.2       0.0
 3 C  dxz             0.6       0.0       0.4       0.1       0.0       0.2
 3 C  dyz             0.4       0.0       0.0       0.1       0.2       0.1
 3 C  dx2y2           0.1       0.3       0.2       0.3       0.1       0.5
 3 C  dxy             0.0       0.3       0.2       0.0       0.0       0.4
 4 H  s               0.3       5.2       1.2       2.4       0.2       2.1
 4 H  pz              0.2       0.2       0.3       0.2       0.0       0.2
 4 H  px              0.0       1.4       0.4       0.5       0.0       0.0
 4 H  py              0.0       0.1       0.0       0.0       0.0       0.1
 5 H  s               8.2       0.7       2.0       0.1       0.3       2.4
 5 H  pz              1.5       0.1       0.1       0.1       0.6       0.2
 5 H  px              0.3       0.2       0.1       0.2       0.0       0.0
 5 H  py              0.8       0.0       0.3       0.3       0.1       0.3
 6 H  s               0.6       0.7       2.6       0.6       6.0       0.9
 6 H  pz              0.6       0.0       0.0       0.0       0.0       0.4
 6 H  px              0.0       0.3       0.1       0.0       0.1       0.1
 6 H  py              0.1       0.1       0.1       0.1       2.4       0.1
 7 H  s               2.9       1.0       3.3       0.8       4.1       3.0
 7 H  pz              0.7       0.0       0.0       1.0       0.1       0.1
 7 H  px              0.0       0.4       0.3       0.0       0.4       0.1
 7 H  py              0.7       0.2       0.2       0.0       1.4       1.4
 8 H  s               5.9       0.6       4.0       4.2       0.4       1.8
 8 H  pz              1.2       0.1       1.5       0.3       0.1       0.1
 8 H  px              0.5       0.3       0.0       1.1       0.4       0.2
 8 H  py              0.7       0.2       0.1       0.8       0.1       0.0
 9 H  s               5.9       0.6       4.0       4.2       0.4       1.8
 9 H  pz              1.2       0.1       1.5       0.3       0.1       0.1
 9 H  px              0.5       0.3       0.0       1.1       0.4       0.2
 9 H  py              0.6       0.2       0.1       0.8       0.1       0.0
10 H  s               2.9       1.0       3.3       0.8       4.1       3.0
10 H  pz              0.7       0.0       0.0       1.0       0.1       0.1
10 H  px              0.0       0.4       0.3       0.0       0.4       0.1
10 H  py              0.7       0.2       0.2       0.0       1.4       1.4
11 H  s               0.3       5.2       1.2       2.4       0.2       2.1
11 H  pz              0.2       0.2       0.3       0.2       0.0       0.2
11 H  px              0.0       1.4       0.4       0.5       0.0       0.0
11 H  py              0.0       0.1       0.0       0.0       0.0       0.1
12 H  s               0.6       0.7       2.6       0.6       6.0       0.9
12 H  pz              0.6       0.0       0.0       0.0       0.0       0.4
12 H  px              0.0       0.3       0.1       0.0       0.1       0.1
12 H  py              0.1       0.1       0.1       0.1       2.4       0.1
13 H  s               8.2       0.7       2.0       0.1       0.3       2.4
13 H  pz              1.5       0.1       0.1       0.1       0.6       0.2
13 H  px              0.3       0.2       0.1       0.2       0.0       0.0
13 H  py              0.8       0.0       0.3       0.3       0.1       0.3

                     36        37        38        39        40        41   
                   0.31231   0.37242   0.38176   0.41435   0.43019   0.46933
                   0.00000   0.00000   0.00000   0.00000   0.00000   0.00000
                  --------  --------  --------  --------  --------  --------
 0 C  s               0.4       3.0       0.4       9.5       4.7       1.4
 0 C  pz              4.7       1.2       8.1       1.6       4.9       0.1
 0 C  px              6.5       2.8       3.7       5.1       2.2       0.3
 0 C  py              1.6       1.0       1.8       0.4       1.4       0.1
 0 C  dz2             0.1       0.0       0.1       0.0       0.2       0.0
 0 C  dxz             0.0       0.0       1.6       0.2       0.6       0.0
 0 C  dyz             0.4       0.1       0.0       0.0       0.0       0.1
 0 C  dx2y2           0.1       0.4       0.0       0.3       0.0       0.0
 0 C  dxy             0.4       1.0       0.2       0.1       0.2       0.0
 1 C  s               0.6       1.9       3.8       5.7       2.4       1.1
 1 C  pz              7.5       3.4      11.1       4.9       8.0       3.7
 1 C  px              3.7       8.0       0.4       1.3      10.7      27.5
 1 C  py              8.8      10.3       1.9       6.1       1.3       3.0
 1 C  dz2             0.1       1.1       0.2       0.1       0.1       0.5
 1 C  dxz             0.2       0.2       0.0       0.4       0.9       0.1
 1 C  dyz             0.1       0.0       0.1       0.3       0.0       0.0
 1 C  dx2y2           0.8       0.1       0.5       0.3       0.0       0.1
 1 C  dxy             0.3       0.0       0.1       0.1       0.0       1.2
 2 C  s               0.6       1.9       3.8       5.7       2.4       1.1
 2 C  pz              7.5       3.3      11.1       4.9       8.0       3.7
 2 C  px              3.7       8.0       0.4       1.3      10.7      27.5
[...]
10 H  py              0.0       0.6       2.0       0.2       3.4       2.0
11 H  s               0.1       2.5       1.1       2.2       2.2       2.5
11 H  pz              0.2       0.1       0.3       0.1       0.1       0.0
11 H  px              0.1       4.3       2.8       3.4       4.0       5.1
11 H  py              0.1       2.3       0.1       2.5       0.8       1.1
12 H  s               0.7       0.2       4.4       1.0       1.4       0.2
12 H  pz              0.2       0.0       0.0       0.0       0.2       0.0
12 H  px              0.1       0.1       0.4       0.2       0.3       0.2
12 H  py              2.6       0.8       9.8       3.2       3.9       0.5
13 H  s               1.4       0.9       1.8       1.5       1.7       1.8
13 H  pz              2.8       1.2       3.5       3.0       3.2       3.5
13 H  px              1.2       0.0       1.1       0.2       0.9       0.3
13 H  py              1.1       0.1       0.0       0.4       0.9       0.5

                    120       121       122       123       124       125   
                   3.62937   3.67112  21.91052  21.94578  22.00769  22.02392
                   0.00000   0.00000   0.00000   0.00000   0.00000   0.00000
                  --------  --------  --------  --------  --------  --------
 0 C  s               0.2       0.0      39.8      45.4      10.0       4.5
 0 C  pz              1.3       0.2       0.0       0.0       0.0       0.0
 0 C  px              0.2       0.3       0.0       0.0       0.0       0.0
 0 C  py              1.5       0.4       0.0       0.0       0.0       0.0
 0 C  dz2             2.2       1.0       0.0       0.0       0.0       0.0
 0 C  dxz             2.5       0.3       0.0       0.0       0.0       0.0
 0 C  dyz             0.7       0.0       0.0       0.0       0.0       0.0
 0 C  dx2y2           2.0       1.3       0.0       0.0       0.0       0.0
 0 C  dxy             0.2       0.0       0.0       0.0       0.0       0.0
 1 C  s               0.2       0.2      10.0       4.5      39.8      45.4
 1 C  pz              2.4       1.0       0.0       0.0       0.0       0.0
 1 C  px              0.3       0.3       0.0       0.0       0.0       0.0
 1 C  py              1.0       4.0       0.0       0.0       0.0       0.0
 1 C  dz2             1.9       5.5       0.0       0.0       0.0       0.0
 1 C  dxz             4.0       1.0       0.0       0.0       0.0       0.0
 1 C  dyz             0.7       0.0       0.0       0.0       0.0       0.0
 1 C  dx2y2           2.0       6.6       0.0       0.0       0.0       0.0
 1 C  dxy             0.0       0.5       0.0       0.0       0.0       0.0
 2 C  s               0.2       0.2       9.9       4.5      39.8      45.4
 2 C  pz              2.4       1.0       0.0       0.0       0.0       0.0
 2 C  px              0.3       0.3       0.0       0.0       0.0       0.0
 2 C  py              1.0       3.9       0.0       0.0       0.0       0.0
 2 C  dz2             1.9       5.5       0.0       0.0       0.0       0.0
 2 C  dxz             4.0       1.0       0.0       0.0       0.0       0.0
 2 C  dyz             0.7       0.0       0.0       0.0       0.0       0.0
 2 C  dx2y2           2.0       6.6       0.0       0.0       0.0       0.0
 2 C  dxy             0.0       0.5       0.0       0.0       0.0       0.0
 3 C  s               0.2       0.0      39.9      45.3      10.0       4.5
 3 C  pz              1.3       0.2       0.0       0.0       0.0       0.0
 3 C  px              0.2       0.3       0.0       0.0       0.0       0.0
 3 C  py              1.5       0.4       0.0       0.0       0.0       0.0
 3 C  dz2             2.2       1.0       0.0       0.0       0.0       0.0
 3 C  dxz             2.5       0.3       0.0       0.0       0.0       0.0
 3 C  dyz             0.7       0.0       0.0       0.0       0.0       0.0
 3 C  dx2y2           2.0       1.3       0.0       0.0       0.0       0.0
 3 C  dxy             0.2       0.0       0.0       0.0       0.0       0.0
 4 H  s               0.2       0.0       0.0       0.0       0.0       0.0
 4 H  px              0.2       0.0       0.0       0.0       0.0       0.0
 5 H  s               1.6       0.6       0.0       0.0       0.0       0.0
 5 H  pz              3.0       1.6       0.0       0.0       0.0       0.0
 5 H  px              1.0       0.0       0.0       0.0       0.0       0.0
 5 H  py              0.1       0.2       0.0       0.0       0.0       0.0
 6 H  s               1.7       0.5       0.0       0.0       0.0       0.0
 6 H  px              0.4       0.0       0.0       0.0       0.0       0.0
 6 H  py              3.7       1.3       0.0       0.0       0.0       0.0
 7 H  s               1.2       4.5       0.0       0.0       0.0       0.0
 7 H  px              0.2       0.2       0.0       0.0       0.0       0.0
 7 H  py              2.5      11.1       0.0       0.0       0.0       0.0
 8 H  s               3.0       2.4       0.0       0.0       0.0       0.0
 8 H  pz              6.3       3.5       0.0       0.0       0.0       0.0
 8 H  px              1.4       1.4       0.0       0.0       0.0       0.0
 8 H  py              0.1       0.1       0.0       0.0       0.0       0.0
 9 H  s               3.0       2.4       0.0       0.0       0.0       0.0
 9 H  pz              6.3       3.5       0.0       0.0       0.0       0.0
 9 H  px              1.4       1.4       0.0       0.0       0.0       0.0
 9 H  py              0.1       0.1       0.0       0.0       0.0       0.0
10 H  s               1.2       4.5       0.0       0.0       0.0       0.0
10 H  px              0.2       0.2       0.0       0.0       0.0       0.0
10 H  py              2.5      11.1       0.0       0.0       0.0       0.0
11 H  s               0.2       0.0       0.0       0.0       0.0       0.0
11 H  px              0.2       0.0       0.0       0.0       0.0       0.0
12 H  s               1.7       0.5       0.0       0.0       0.0       0.0
12 H  px              0.4       0.0       0.0       0.0       0.0       0.0
12 H  py              3.7       1.2       0.0       0.0       0.0       0.0
13 H  s               1.6       0.6       0.0       0.0       0.0       0.0
13 H  pz              3.0       1.6       0.0       0.0       0.0       0.0
13 H  px              1.0       0.0       0.0       0.0       0.0       0.0
13 H  py              0.1       0.2       0.0       0.0       0.0       0.0



                      *****************************
                      * MAYER POPULATION ANALYSIS *
                      *****************************

  NA   - Mulliken gross atomic population
  ZA   - Total nuclear charge
  QA   - Mulliken gross atomic charge
  VA   - Mayer's total valence
  BVA  - Mayer's bonded valence
  FA   - Mayer's free valence

  ATOM       NA         ZA         QA         VA         BVA        FA
  0 C      6.5175     6.0000    -0.5175     3.7984     3.7984     0.0000
  1 C      6.2280     6.0000    -0.2280     3.5970     3.5970     0.0000
  2 C      6.2280     6.0000    -0.2280     3.5970     3.5970     0.0000
  3 C      6.5175     6.0000    -0.5175     3.7984     3.7984     0.0000
  4 H      0.8465     1.0000     0.1535     0.9596     0.9596     0.0000
  5 H      0.8424     1.0000     0.1576     0.9592     0.9592     0.0000
  6 H      0.8484     1.0000     0.1516     0.9617     0.9617    -0.0000
  7 H      0.8624     1.0000     0.1376     0.9644     0.9644    -0.0000
  8 H      0.8548     1.0000     0.1452     0.9596     0.9596     0.0000
  9 H      0.8548     1.0000     0.1452     0.9596     0.9596    -0.0000
 10 H      0.8624     1.0000     0.1376     0.9644     0.9644    -0.0000
 11 H      0.8465     1.0000     0.1535     0.9596     0.9596     0.0000
 12 H      0.8484     1.0000     0.1516     0.9617     0.9617     0.0000
 13 H      0.8424     1.0000     0.1576     0.9592     0.9592     0.0000

  Mayer bond orders larger than 0.100000
B(  0-C ,  1-C ) :   0.8976 B(  0-C ,  4-H ) :   0.9672 B(  0-C ,  5-H ) :   0.9804 
B(  0-C ,  6-H ) :   0.9778 B(  1-C ,  2-C ) :   0.9064 B(  1-C ,  7-H ) :   0.9761 
B(  1-C ,  8-H ) :   0.9675 B(  2-C ,  3-C ) :   0.8976 B(  2-C ,  9-H ) :   0.9676 
B(  2-C , 10-H ) :   0.9761 B(  3-C , 11-H ) :   0.9672 B(  3-C , 12-H ) :   0.9778 
B(  3-C , 13-H ) :   0.9804 

-------
TIMINGS
-------

Total SCF time: 0 days 0 hours 0 min 9 sec 

Total time                  ....       9.285 sec
Sum of individual times     ....       8.815 sec  ( 94.9%)

SCF preparation             ....       0.233 sec  (  2.5%)
Fock matrix formation       ....       7.940 sec  ( 85.5%)
  Startup                   ....       0.041 sec  (  0.5% of F)
  Split-RI-J                ....       0.793 sec  ( 10.0% of F)
  XC integration            ....       5.487 sec  ( 69.1% of F)
    XC Preparation          ....       0.000 sec  (  0.0% of XC)
    Basis function eval.    ....       0.985 sec  ( 17.9% of XC)
    Density eval.           ....       1.456 sec  ( 26.5% of XC)
    XC-Functional eval.     ....       0.897 sec  ( 16.3% of XC)
    XC-Potential eval.      ....       1.535 sec  ( 28.0% of XC)
  CPCM terms                ....       1.274 sec  ( 16.1% of F)
Diagonalization             ....       0.000 sec  (  0.0%)
Density matrix formation    ....       0.146 sec  (  1.6%)
Total Energy calculation    ....       0.029 sec  (  0.3%)
Population analysis         ....       0.065 sec  (  0.7%)
Orbital Transformation      ....       0.038 sec  (  0.4%)
Orbital Orthonormalization  ....       0.000 sec  (  0.0%)
DIIS solution               ....       0.327 sec  (  3.5%)
  MO trafo                  ....       0.000 sec  (  0.0 % of DIIS)
  Orb grad                  ....       0.000 sec  (  0.0 % of DIIS)
  Energy W gradient         ....       0.000 sec  (  0.0 % of DIIS)
  DIIS error                ....       0.002 sec  (  0.7 % of DIIS)
  DIIS work                 ....       0.294 sec  ( 89.6 % of DIIS)
  Form Q                    ....       0.000 sec  (  0.0 % of DIIS)
  Form QpQm                 ....       0.000 sec  (  0.0 % of DIIS)
  Exp/Cayley                ....       0.000 sec  (  0.0 % of DIIS)
  Orb update                ....       0.000 sec  (  0.0 % of DIIS)
  Wake-sleep                ....       0.013 sec  (  4.0 % of DIIS)
SOSCF solution              ....       0.036 sec  (  0.4%)
  MO trafo                  ....       0.029 sec  ( 79.7 % of SOSCF)
  Orb grad                  ....       0.001 sec  (  1.6 % of SOSCF)
  Rot update                ....       0.000 sec  (  0.1 % of SOSCF)
  Step                      ....       0.007 sec  ( 18.5 % of SOSCF)
Finished LeanSCF after   9.4 sec

Maximum memory used throughout the entire LEANSCF-calculation: 15.7 MB


-------------------------------------------------------------------------------
                          DFT DISPERSION CORRECTION                            
                                                                               
                                DFTD4 V3.4.0                                   
-------------------------------------------------------------------------------
The R2SCAN3C composite method is recognized
Using three-body term ABC
Active option DFTDOPT                   ...         5   

-------------------------   ----------------
Dispersion correction           -0.002719671
-------------------------   ----------------

------------------   -----------------
gCP correction             0.006644780
------------------   -----------------

-------------------------   --------------------
FINAL SINGLE POINT ENERGY      -158.385278472485
-------------------------   --------------------


------------------------------------------------------------------------------
                              ORCA PROPERTY CALCULATIONS
------------------------------------------------------------------------------

GBWName                                 ... sp_solv.gbw
Number of atoms                         ...     14
Number of basis functions               ...    126
Max core memory                         ...   1024 MB

Electric properties:
Dipole moment                           ... YES
Quadrupole moment                       ...  NO
Static polarizability (Dipole/Dipole)   ...  NO
Static polarizability (Dipole/Quad.)    ...  NO
Static polarizability (Quad./Quad.)     ...  NO
Static polarizability (Velocity)        ...  NO

Atomic electric properties:
Dipole moment                           ...  NO
Quadrupole moment                       ...  NO
Static polarizability                   ...  NO

Choice of electric origin               ... Center of mass
Position of electric origin             ...    -0.000000     0.000000     0.000001

General magnetic properties:
Magnetizability                         ...  NO

EPR properties:
g-Tensor (aka g-matrix)                 ...  NO
Zero-Field splitting spin-orbit         ...  NO
Zero-field splitting spin-spin          ...  NO
Hyperfine couplings                     ...  NO (   0 nuclei)
Quadrupole couplings                    ...  NO (   0 nuclei)
Contact density                         ...  NO (   0 nuclei)

NMR properties:
Chemical shifts                         ...  NO (   0 nuclei)
Spin-rotation constants                 ...  NO (   0 nuclei)
Spin-spin couplings                     ...  NO (   0 nuclei,    0 pairs)

Choice of magnetic origin               ... GIAO
Position of magnetic origin             ...     0.000000     0.000000     0.000000

Properties with geometric perturbations:
SCF Hessian                             ...  NO
IR spectrum                             ...  NO
VCD spectrum                            ...  NO
X-ray spectroscopy properties:
SCF XES/XAS/RIXS spectra                ...  NO


-------------
DIPOLE MOMENT
-------------

Method             : SCF
Type of density    : Electron Density
Multiplicity       :   1
Irrep              :   0
Energy             :  -158.3892035814447183 Eh
Relativity type    : 
Basis              : AO
                                X                 Y                 Z
Electronic contribution:      0.000099565       0.000022688      -0.890239224
Nuclear contribution   :     -0.000098581      -0.000023781       0.847022868
                        -----------------------------------------
Total Dipole Moment    :      0.000000984      -0.000001092      -0.043216356
                        -----------------------------------------
Magnitude (a.u.)       :      0.043216356
Magnitude (Debye)      :      0.109847247



--------------------
Rotational spectrum 
--------------------
 
Rotational constants in cm-1:             0.448003             0.159673             0.137142 
Rotational constants in MHz :         13430.795282          4786.864163          4111.405485 

Dipole components along the rotational axes: 
x,y,z [a.u.] :     0.000001    -0.043216     0.000002 
x,y,z [Debye]:     0.000004    -0.109847     0.000006 

 

Dipole moment calculation done in   0.0 sec 

Maximum memory used throughout the entire PROP-calculation: 7.3 MB

--------------------------------
SUGGESTED CITATIONS FOR THIS RUN
--------------------------------

Below you find a list of papers that are relevant to this ORCA run
We neither can nor want to force you to cite these papers, but we appreciate if you do
You receive ORCA, which is the product of decades of hard work by many enthusiastic individuals, for free
The only thing we kindly ask in return is that you cite our papers,
We deeply appreciate it, if you show your appreciation for ORCA by not just citing the generic ORCA reference.

Please note that relegating all ORCA citations to the supporting information does *not* help us.
SI sections are not indexed - citations you put there will not count into any citation statistics
But we need these citations in order to attract the funding resources that allow us to do what we are doing

Therefore, if you are a happy ORCA user, please consider citing a few of the papers listed below in the main body of your paper

In addition to the list printed below, the program has created the file sp_solv.bibtex that contains the list in bibtex format
You can import this file easily into all common literature databanks and citation aid programs


List of essential papers. We consider these as the minimum necessary citations

  1. Neese,F.
     Software update: the ORCA program system, version 5.0
     WIRES Comput. Molec. Sci., 2022 12(1)e1606
     doi.org/10.1002/wcms.1606
  2. Grimme,S.; Hansen,A.; Ehlert,S.; Mewes,J.
     r2SCAN-3c: A 'Swiss army knife' composite electronic-structure method
     J. Chem. Phys., 2021 154 064103
     doi.org/10.1063/5.0040021

List of papers to cite with high priority. The work reported in these papers was absolutely
necessary for this run to complete.
Our perspective: the developers of density functionals and basis sets usually get cited in chemistry papers
Good! But without the algorithms to do something with them, the functionals or basis sets would not do anything.
Hence, in our opinion, the algorithm design and method developments papers are equally worthy of getting cited

  1. Neese,F.
     An improvement of the resolution of the identity approximation for the formation of the Coulomb matrix
     J. Comp. Chem., 2003 24(14)1740-1747
     doi.org/10.1002/jcc.10318
  2. Garcia-Rates,M.; Neese,F.
     Effect of the Solute Cavity on the Solvation Energy and its Derivatives within the Framework of the Gaussian Charge Scheme
     J. Comput. Chem., 2020 41 922-939
     doi.org/10.1002/jcc.26139
  3. Neese,F.
     The SHARK Integral Generation and Digestion System
     J. Comp. Chem., 2022  1-16
     doi.org/10.1002/jcc.26942
  4. Lehtola,S.; Steigemann,C.; Oliveira,M.; Marques,M.
     Recent developments in Libxc - A comprehensive library of functionals for density functional theory
     Software X, 2018 7 
     doi.org/10.1016/j.softx.2017.11.002
  5. Caldeweyher,E.; Bannwarth,C.; Grimme,S.
     Extension of the D3 dispersion coefficient model
     J. Chem. Phys., 2017 147 034112-XXXX
     doi.org/10.1063/1.4993215
  6. Caldeweyher,E.; Ehlert,S.; Hansen,A.; Neugebauer,H.; Spicher,S.; Bannwarth,C.; Grimme,S.
     A generally applicable atomic-charge dependent London dispersion correction
     J. Chem. Phys., 2019 150 154122-XXXX
     doi.org/10.1063/1.5090222
  7. Caldeweyher,E.; Mewes,J.; Ehlert,S.; Grimme,S.
     Extension and evaluation of the D4 London-dispersion model for periodic systems
     Phys. Chem. Chem. Phys., 2020 22(16)8499-8512
     doi.org/10.1039/D0CP00502A

List of suggested additional citations. These are papers that are important in the 'surrounding' of 
of this run, or papers that preceded the highly important papers. If you like your results we are grateful for a citation.

  1. Neese,F.
     The ORCA program system
     WIRES Comput. Molec. Sci., 2012 2(1)73-78
     doi.org/10.1002/wcms.81
  2. Neese,F.
     Software update: the ORCA program system, version 4.0
     WIRES Comput. Molec. Sci., 2018 8(1)1-6
     doi.org/10.1002/wcms.1327
  3. Neese,F.; Wennmohs,F.; Becker,U.; Riplinger,C.
     The ORCA quantum chemistry program package
     J. Chem. Phys., 2020 152 Art. No. L224108
     doi.org/10.1063/5.0004608

List of optional additional citations

  1. Neese,F.
     Approximate second-order SCF convergence for spin unrestricted wavefunctions
     Chem. Phys. Lett., 2000 325(1-3)93-98
     doi.org/10.1016/s0009-2614(00)00662-x

Timings for individual modules:

Sum of individual times          ...       10.420 sec (=   0.174 min)
Startup calculation              ...        0.680 sec (=   0.011 min)   6.5 %
SCF iterations                   ...        9.643 sec (=   0.161 min)  92.5 %
Property calculations            ...        0.097 sec (=   0.002 min)   0.9 %
                             ****ORCA TERMINATED NORMALLY****
TOTAL RUN TIME: 0 days 0 hours 0 minutes 11 seconds 103 msec
