      -----------------------------------------------------------      
     |                   =====================                   |     
     |                           x T B                           |     
     |                   =====================                   |     
     |                         S. Grimme                         |     
     |          Mulliken Center for Theoretical Chemistry        |     
     |                    University of Bonn                     |     
      -----------------------------------------------------------      

   * xtb version 6.7.1 (edcfbbe) compiled by 'albert@albert-system' on 2024-07-22

   xtb is free software: you can redistribute it and/or modify it under
   the terms of the GNU Lesser General Public License as published by
   the Free Software Foundation, either version 3 of the License, or
   (at your option) any later version.
   
   xtb is distributed in the hope that it will be useful,
   but WITHOUT ANY WARRANTY; without even the implied warranty of
   MERCHANTABILITY or FITNESS FOR A PARTICULAR PURPOSE.  See the
   GNU Lesser General Public License for more details.
   
   Cite this work as:
   * C. Bannwarth, E. Caldeweyher, S. Ehlert, A. Hansen, P. Pracht,
     J. Seibert, S. Spicher, S. Grimme, WIREs Comput. Mol. Sci., 2020, 11,
     e01493. DOI: 10.1002/wcms.1493
   
   for GFN2-xTB:
   * C. Bannwarth, S. Ehlert and S. Grimme., J. Chem. Theory Comput., 2019,
     15, 1652-1671. DOI: 10.1021/acs.jctc.8b01176
   for GFN1-xTB:
   * S. Grimme, C. Bannwarth, P. Shushkov, J. Chem. Theory Comput., 2017,
     13, 1989-2009. DOI: 10.1021/acs.jctc.7b00118
   for GFN0-xTB:
   * P. Pracht, E. Caldeweyher, S. Ehlert, S. Grimme, ChemRxiv, 2019, preprint.
     DOI: 10.26434/chemrxiv.8326202.v1
   for GFN-FF:
   * S. Spicher and S. Grimme, Angew. Chem. Int. Ed., 2020, 59, 15665-15673.
     DOI: 10.1002/anie.202004239
   
   for ALPB and GBSA implicit solvation:
   * S. Ehlert, M. Stahn, S. Spicher, S. Grimme, J. Chem. Theory Comput.,
     2021, 17, 4250-4261. DOI: 10.1021/acs.jctc.1c00471
   
   for ddCOSMO and CPCM-X implicit solvation:
   * M. Stahn, S. Ehlert, S. Grimme, J. Phys. Chem. A,
     2023, XX, XXXX-XXXX. DOI: 10.1021/acs.jpca.3c04382
   
   for DFT-D4:
   * E. Caldeweyher, C. Bannwarth and S. Grimme, J. Chem. Phys., 2017,
     147, 034112. DOI: 10.1063/1.4993215
   * E. Caldeweyher, S. Ehlert, A. Hansen, H. Neugebauer, S. Spicher,
     C. Bannwarth and S. Grimme, J. Chem. Phys., 2019, 150, 154122.
     DOI: 10.1063/1.5090222
   * E. Caldeweyher, J.-M. Mewes, S. Ehlert and S. Grimme, Phys. Chem. Chem. Phys.
     2020, 22, 8499-8512. DOI: 10.1039/D0CP00502A
   
   for sTDA-xTB:
   * S. Grimme and C. Bannwarth, J. Chem. Phys., 2016, 145, 054103.
     DOI: 10.1063/1.4959605
   
   in the mass-spec context:
   * V. Asgeirsson, C. Bauer and S. Grimme, Chem. Sci., 2017, 8, 4879.
     DOI: 10.1039/c7sc00601b
   * J. Koopman and S. Grimme, ACS Omega 2019, 4, 12, 15120-15133.
     DOI: 10.1021/acsomega.9b02011
   
   for metadynamics refer to:
   * S. Grimme, J. Chem. Theory Comput., 2019, 155, 2847-2862
     DOI: 10.1021/acs.jctc.9b00143
   
   for SPH calculations refer to:
   * S. Spicher and S. Grimme, J. Chem. Theory Comput., 2021, 17, 1701-1714
     DOI: 10.1021/acs.jctc.0c01306
   
   for ONIOM refer to:
   * C. Plett, A. Katbashev, S. Ehlert, S. Grimme, M. Bursch,
     Phys. Chem. Chem. Phys., 2023, 25, 17860-17868. DOI: 10.1039/D3CP02178E
   
   for DIPRO refer to:
   * J. Kohn, N. Gildemeister, S. Grimme, D. Fazzi, A. Hansen,
     J. Chem. Phys., 2023, just accepted.
   
   for PTB refer to:
   * S. Grimme, M. Mueller, A. Hansen, J. Chem. Phys., 2023, 158, 124111.
     DOI: 10.1063/5.0137838
   
   with help from (in alphabetical order)
   P. Atkinson, C. Bannwarth, F. Bohle, G. Brandenburg, E. Caldeweyher
   M. Checinski, S. Dohm, S. Ehlert, S. Ehrlich, I. Gerasimov, C. Hölzer
   A. Katbashev, J. Kohn, J. Koopman, C. Lavigne, S. Lehtola, F. März, M. Müller,
   F. Musil, H. Neugebauer, J. Pisarek, C. Plett, P. Pracht, F. Pultar,
   J. Seibert, P. Shushkov, S. Spicher, M. Stahn, M. Steiner, T. Strunk,
   J. Stückrath, T. Rose, and J. Unsleber
   
 * started run on 2025/04/06 at 01:27:24.234     
   ID    Z sym.   atoms
    1    6 C      1-8, 11, 12
    2    8 O      9
    3    7 N      10
    4    1 H      13-25

           -------------------------------------------------
          |                Calculation Setup                |
           -------------------------------------------------

          program call               : /srv/scratch/z5358697/.xtb/bin/xtb solv.coord --gfn2 --sp --chrg 0 --norestart --parallel 1 --alpb water reference -I xtb_sp-xcontrol-inp
          hostname                   : k146
          coordinate file            : solv.coord
          omp threads                :                     1


           -------------------------------------------------
          |                 G F N 2 - x T B                 |
           -------------------------------------------------

        Reference                      10.1021/acs.jctc.8b01176
      * Hamiltonian:
        H0-scaling (s, p, d)           1.850000    2.230000    2.230000
        zeta-weighting                 0.500000
      * Dispersion:
        s8                             2.700000
        a1                             0.520000
        a2                             5.000000
        s9                             5.000000
      * Repulsion:
        kExp                           1.500000    1.000000
        rExp                           1.000000
      * Coulomb:
        alpha                          2.000000
        third order                    shell-resolved
        anisotropic                    true
        a3                             3.000000
        a5                             4.000000
        cn-shift                       1.200000
        cn-exp                         4.000000
        max-rad                        5.000000

      * Solvation model:               ALPB
        Solvent                        water
        Parameter file                 internal GFN2-xTB/ALPB
        Dielectric constant                8.0200E+01
        Reference state                gsolv=reference [X=1]
        Free energy shift                  2.8945E-03 Eh       1.8164E+00 kcal/mol
        Temperature                        2.9815E+02 K
        Density                            1.0000E+00 kg/L
        Solvent mass                       1.8000E+01 g/mol
        Interaction kernel             P16
        Born radius scaling (c1)           1.4744E+00
        Born radii integrator          GBOBC
        Born offset                        0.0000E+00 a0       0.0000E+00 AA
        H-bond correction              true
        Ion screening                  false
        Surface tension                    1.0000E-05 Eh       1.5569E+01 dyn/cm
        Grid points                               974 per atom

          ...................................................
          :                      SETUP                      :
          :.................................................:
          :  # basis functions                  61          :
          :  # atomic orbitals                  61          :
          :  # shells                           37          :
          :  # electrons                        64          :
          :  max. iterations                   250          :
          :  Hamiltonian                  GFN2-xTB          :
          :  restarted?                      false          :
          :  GBSA solvation                   true          :
          :  PC potential                    false          :
          :  electronic temp.          300.0000000     K    :
          :  accuracy                    1.0000000          :
          :  -> integral cutoff          0.2500000E+02      :
          :  -> integral neglect         0.1000000E-07      :
          :  -> SCF convergence          0.1000000E-05 Eh   :
          :  -> wf. convergence          0.1000000E-03 e    :
          :  Broyden damping             0.4000000          :
          :  net charge                          0          :
          :  unpaired electrons                  0          :
          ...................................................

 iter      E             dE          RMSdq      gap      omega  full diag
   1    -35.5222416 -0.355222E+02  0.392E+00    4.31       0.0  T
   2    -35.5850268 -0.627852E-01  0.226E+00    4.53       1.0  T
   3    -35.5853719 -0.345053E-03  0.963E-01    4.43       1.0  T
   4    -35.5867480 -0.137610E-02  0.344E-01    4.38       1.0  T
   5    -35.5886408 -0.189287E-02  0.821E-02    4.43       1.0  T
   6    -35.5886659 -0.250277E-04  0.390E-02    4.45       1.0  T
   7    -35.5886713 -0.540838E-05  0.173E-02    4.45       1.2  T
   8    -35.5886726 -0.138236E-05  0.492E-03    4.45       4.1  T
   9    -35.5886729 -0.243829E-06  0.218E-03    4.45       9.2  T
  10    -35.5886729 -0.111133E-07  0.107E-03    4.45      18.7  T
  11    -35.5886729 -0.562386E-08  0.229E-04    4.45      87.3  T
  12    -35.5886729 -0.251788E-09  0.125E-04    4.45     159.9  T

   *** convergence criteria satisfied after 12 iterations ***

         #    Occupation            Energy/Eh            Energy/eV
      -------------------------------------------------------------
         1        2.0000           -0.6981930             -18.9988
       ...           ...                  ...                  ...
        26        2.0000           -0.4555237             -12.3954
        27        2.0000           -0.4403063             -11.9813
        28        2.0000           -0.4225719             -11.4988
        29        2.0000           -0.4071441             -11.0790
        30        2.0000           -0.3971644             -10.8074
        31        2.0000           -0.3898933             -10.6095
        32        2.0000           -0.3891109             -10.5882 (HOMO)
        33                         -0.2255476              -6.1375 (LUMO)
        34                         -0.2245303              -6.1098
        35                         -0.2107890              -5.7359
        36                         -0.0978854              -2.6636
        37                          0.0007832               0.0213
       ...                                ...                  ...
        61                          0.6554705              17.8363
      -------------------------------------------------------------
                  HL-Gap            0.1635633 Eh            4.4508 eV
             Fermi-level           -0.3073293 Eh           -8.3629 eV

 SCC (total)                   0 d,  0 h,  0 min,  0.018 sec
 SCC setup                      ...        0 min,  0.001 sec (  7.978%)
 Dispersion                     ...        0 min,  0.000 sec (  0.815%)
 classical contributions        ...        0 min,  0.000 sec (  0.148%)
 integral evaluation            ...        0 min,  0.002 sec ( 12.616%)
 iterations                     ...        0 min,  0.008 sec ( 43.331%)
 molecular gradient             ...        0 min,  0.006 sec ( 34.408%)
 printout                       ...        0 min,  0.000 sec (  0.634%)

         :::::::::::::::::::::::::::::::::::::::::::::::::::::
         ::                     SUMMARY                     ::
         :::::::::::::::::::::::::::::::::::::::::::::::::::::
         :: total energy             -35.045453848783 Eh    ::
         :: total w/o Gsasa/hb       -35.046113761050 Eh    ::
         :: gradient norm              0.000190028625 Eh/a0 ::
         :: HOMO-LUMO gap              4.450784216835 eV    ::
         ::.................................................::
         :: SCC energy               -35.588622259631 Eh    ::
         :: -> isotropic ES            0.060821330554 Eh    ::
         :: -> anisotropic ES          0.001766265499 Eh    ::
         :: -> anisotropic XC          0.017679084006 Eh    ::
         :: -> dispersion             -0.021490697262 Eh    ::
         :: -> Gsolv                  -0.014145481802 Eh    ::
         ::    -> Gelec               -0.014805394068 Eh    ::
         ::    -> Gsasa                0.000309872492 Eh    ::
         ::    -> Ghb                 -0.002544509386 Eh    ::
         ::    -> Gshift               0.002894549160 Eh    ::
         :: repulsion energy           0.543168410848 Eh    ::
         :: add. restraining           0.000000000000 Eh    ::
         :: total charge              -0.000000000000 e     ::
         :::::::::::::::::::::::::::::::::::::::::::::::::::::

           -------------------------------------------------
          |                Property Printout                |
           -------------------------------------------------

    * Orbital Energies and Occupations

         #    Occupation            Energy/Eh            Energy/eV
      -------------------------------------------------------------
         1        2.0000           -0.6981930             -18.9988
       ...           ...                  ...                  ...
        20        2.0000           -0.4833055             -13.1514
        21        2.0000           -0.4802516             -13.0683
        22        2.0000           -0.4798945             -13.0586
        23        2.0000           -0.4789753             -13.0336
        24        2.0000           -0.4684241             -12.7465
        25        2.0000           -0.4596922             -12.5089
        26        2.0000           -0.4555237             -12.3954
        27        2.0000           -0.4403063             -11.9813
        28        2.0000           -0.4225719             -11.4988
        29        2.0000           -0.4071441             -11.0790
        30        2.0000           -0.3971644             -10.8074
        31        2.0000           -0.3898933             -10.6095
        32        2.0000           -0.3891109             -10.5882 (HOMO)
        33                         -0.2255476              -6.1375 (LUMO)
        34                         -0.2245303              -6.1098
        35                         -0.2107890              -5.7359
        36                         -0.0978854              -2.6636
        37                          0.0007832               0.0213
        38                          0.0744805               2.0267
        39                          0.1057557               2.8778
        40                          0.1280485               3.4844
        41                          0.1423089               3.8724
        42                          0.1521712               4.1408
        43                          0.1559174               4.2427
       ...                                ...                  ...
        61                          0.6554705              17.8363
      -------------------------------------------------------------
                  HL-Gap            0.1635633 Eh            4.4508 eV
             Fermi-level           -0.3073293 Eh           -8.3629 eV

     #   Z          covCN         q      C6AA      α(0)
     1   6 C        3.758    -0.127    22.982     6.835
     2   6 C        2.966     0.020    27.551     8.610
     3   6 C        2.925    -0.043    29.071     8.842
     4   6 C        2.921    -0.033    28.822     8.804
     5   6 C        2.977    -0.022    28.554     8.765
     6   6 C        2.921    -0.033    28.821     8.804
     7   6 C        2.925    -0.044    29.082     8.844
     8   6 C        2.772     0.264    22.554     7.778
     9   8 O        0.858    -0.553    24.988     6.702
    10   7 N        2.733    -0.075    22.688     7.074
    11   6 C        3.700    -0.064    21.892     6.691
    12   6 C        3.697    -0.070    22.023     6.713
    13   1 H        0.925     0.057     2.234     2.337
    14   1 H        0.925     0.065     2.137     2.286
    15   1 H        0.925     0.053     2.287     2.365
    16   1 H        0.926     0.045     2.382     2.413
    17   1 H        0.926     0.031     2.570     2.507
    18   1 H        0.926     0.031     2.571     2.507
    19   1 H        0.926     0.046     2.364     2.405
    20   1 H        0.924     0.072     2.063     2.246
    21   1 H        0.924     0.072     2.061     2.245
    22   1 H        0.925     0.075     2.028     2.227
    23   1 H        0.924     0.069     2.098     2.265
    24   1 H        0.924     0.069     2.097     2.265
    25   1 H        0.925     0.092     1.855     2.130

 Mol. C6AA /au·bohr⁶  :       6392.856849
 Mol. C8AA /au·bohr⁸  :     148779.148428
 Mol. α(0) /au        :        124.659498


Wiberg/Mayer (AO) data.
largest (>0.10) Wiberg bond orders for each atom

 ---------------------------------------------------------------------------
     #   Z sym  total        # sym  WBO       # sym  WBO       # sym  WBO
 ---------------------------------------------------------------------------
     1   6 C    3.994 --     2 C    1.029    15 H    0.984    13 H    0.975
                            14 H    0.965
     2   6 C    3.988 --     3 C    1.412     7 C    1.404     1 C    1.029
                             5 C    0.107
     3   6 C    3.990 --     4 C    1.444     2 C    1.412    16 H    0.967
                             6 C    0.108
     4   6 C    3.991 --     3 C    1.444     5 C    1.408    17 H    0.970
                             7 C    0.110
     5   6 C    3.987 --     4 C    1.408     6 C    1.401     8 C    0.959
                             2 C    0.107
     6   6 C    3.991 --     7 C    1.453     5 C    1.401    18 H    0.970
                             3 C    0.108
     7   6 C    3.990 --     6 C    1.453     2 C    1.404    19 H    0.968
                             4 C    0.110
     8   6 C    3.945 --     9 O    1.576    10 N    1.315     5 C    0.959
     9   8 O    1.900 --     8 C    1.576    10 N    0.199
    10   7 N    3.538 --     8 C    1.315    11 C    0.992    12 C    0.990
                             9 O    0.199
    11   6 C    3.958 --    10 N    0.992    22 H    0.976    21 H    0.974
                            20 H    0.974
    12   6 C    3.957 --    10 N    0.990    25 H    0.978    23 H    0.975
                            24 H    0.974
    13   1 H    0.996 --     1 C    0.975
    14   1 H    0.995 --     1 C    0.965
    15   1 H    0.997 --     1 C    0.984
    16   1 H    0.997 --     3 C    0.967
    17   1 H    0.999 --     4 C    0.970
    18   1 H    0.999 --     6 C    0.970
    19   1 H    0.997 --     7 C    0.968
    20   1 H    0.994 --    11 C    0.974
    21   1 H    0.994 --    11 C    0.974
    22   1 H    0.994 --    11 C    0.976
    23   1 H    0.995 --    12 C    0.975
    24   1 H    0.995 --    12 C    0.974
    25   1 H    0.991 --    12 C    0.978
 ---------------------------------------------------------------------------

Topologies differ in total number of bonds
Writing topology from bond orders to xtbtopo.mol

molecular dipole:
                 x           y           z       tot (Debye)
 q only:       -0.460      -1.927      -1.368
   full:       -0.454      -1.929      -1.372       6.125
molecular quadrupole (traceless):
                xx          xy          yy          xz          yz          zz
 q only:       11.485      -9.729      -7.119      -6.743      -3.327      -4.366
  q+dip:       11.043     -10.237      -8.289      -6.906      -7.478      -2.753
   full:       10.167     -10.390      -7.289      -7.049      -5.686      -2.879


           -------------------------------------------------
          | TOTAL ENERGY              -35.045453848783 Eh   |
          | GRADIENT NORM               0.000190028625 Eh/α |
          | HOMO-LUMO GAP               4.450784216835 eV   |
           -------------------------------------------------

------------------------------------------------------------------------
 * finished run on 2025/04/06 at 01:27:24.281     
------------------------------------------------------------------------
 total:
 * wall-time:     0 d,  0 h,  0 min,  0.046 sec
 *  cpu-time:     0 d,  0 h,  0 min,  0.025 sec
 * ratio c/w:     0.548 speedup
 SCF:
 * wall-time:     0 d,  0 h,  0 min,  0.018 sec
 *  cpu-time:     0 d,  0 h,  0 min,  0.018 sec
 * ratio c/w:     0.993 speedup

