 Entering Gaussian System
 *********************************************
 Gaussian 98:
 frequency output generated by the xtb code
 *********************************************
                         Standard orientation:
 --------------------------------------------------------------------
  Center     Atomic     Atomic              Coordinates (Angstroms)
  Number     Number      Type              X           Y           Z
 --------------------------------------------------------------------
    1          6             0       -2.552430   -0.672793   -0.371873
    2          6             0       -1.172682   -0.314781    0.174438
    3          1             0       -1.235942   -0.269386    1.272771
    4          6             0       -0.691403    1.045268   -0.350129
    5          1             0       -0.653080    1.007897   -1.450410
    6          6             0        0.726707    1.318559    0.167162
    7          1             0        0.692784    1.421684    1.263821
    8          6             0        1.650142    0.146511   -0.174950
    9          1             0        1.754711    0.073821   -1.268011
   10          6             0        1.019440   -1.164649    0.322728
   11          1             0        0.959722   -1.131053    1.432453
   12          8             0       -0.271062   -1.334246   -0.208498
   13          8             0        1.812256   -2.212537   -0.103108
   14          8             0        2.893623    0.386041    0.431846
   15          8             0        1.169174    2.519019   -0.415923
   16          8             0       -1.588066    2.035453    0.074957
   17          8             0       -3.101802   -1.695398    0.425429
   18          1             0       -2.432744   -1.004082   -1.409723
   19          1             0       -3.169738    0.231808   -0.333048
   20          1             0        1.320967   -3.044742   -0.020056
   21          1             0        3.473498   -0.373434    0.272990
   22          1             0        2.095570    2.658395   -0.169490
   23          1             0       -1.207104    2.900509   -0.144521
   24          1             0       -3.967186   -1.943317    0.069881
 --------------------------------------------------------------------
     1 basis functions        1 primitive gaussians
     1 alpha electrons        1 beta electrons
 
 Harmonic frequencies (cm**-1), IR intensities (km*mol⁻¹),
 Raman scattering activities (A**4/amu), Raman depolarization ratios,
 reduced masses (AMU), force constants (mDyne/A) and normal coordinates:
                      1                      2                      3
                        a                      a                      a 
 Frequencies --    57.7135                79.2035                94.3829
 Red. masses --    14.0118                12.9831                14.2930
 Frc consts  --     0.0000                 0.0000                 0.0000
 IR Inten    --     1.0422                 2.4054                 1.6463
 Raman Activ --     0.0000                 0.0000                 0.0000
 Depolar     --     0.0000                 0.0000                 0.0000
 Atom AN      X      Y      Z        X      Y      Z        X      Y      Z
   1   6    -0.02  -0.06   0.08     0.08  -0.11  -0.25     0.03  -0.03  -0.10
   2   6     0.04  -0.04  -0.08     0.01  -0.11  -0.06     0.03  -0.07  -0.07
   3   1     0.04  -0.01  -0.02    -0.04  -0.03  -0.02     0.01  -0.05  -0.02
   4   6     0.03  -0.06  -0.14     0.01  -0.07   0.03    -0.04   0.01   0.09
   5   1     0.05  -0.05  -0.04     0.01  -0.00   0.01    -0.07   0.06   0.02
   6   6    -0.04  -0.02   0.04    -0.02  -0.05   0.07     0.03   0.04  -0.13
   7   1    -0.05  -0.02   0.01    -0.01  -0.05   0.02     0.04   0.08  -0.04
   8   6     0.04   0.03   0.09    -0.00   0.01  -0.09     0.06   0.01   0.07
   9   1     0.07   0.04   0.03    -0.06  -0.00  -0.03     0.08  -0.00   0.03
  10   6     0.04  -0.06  -0.14     0.09   0.02   0.04     0.02  -0.01  -0.05
  11   1     0.01  -0.07  -0.04     0.02   0.03   0.01    -0.03  -0.02  -0.01
  12   8     0.04  -0.03  -0.17     0.11  -0.11   0.05     0.08   0.00  -0.20
  13   8     0.07   0.03  -0.37     0.17   0.03   0.17     0.09   0.02  -0.02
  14   8    -0.08   0.01   0.39     0.11   0.07  -0.37    -0.07   0.04   0.38
  15   8    -0.01   0.02   0.18    -0.09   0.05   0.26    -0.04  -0.11  -0.53
  16   8    -0.04  -0.05  -0.40    -0.05  -0.16   0.07    -0.00  -0.12   0.51
  17   8    -0.07   0.24   0.46    -0.40   0.43   0.09    -0.18   0.20   0.03
  18   1    -0.03  -0.10   0.05     0.09  -0.18  -0.02     0.02  -0.06  -0.01
  19   1     0.02  -0.00  -0.04     0.07   0.01  -0.24     0.04   0.01  -0.09
  20   1     0.03  -0.00  -0.12     0.06  -0.00   0.08     0.03  -0.00  -0.02
  21   1     0.00   0.03   0.08     0.02   0.01  -0.10     0.00   0.02   0.12
  22   1    -0.02   0.02   0.09    -0.01  -0.00   0.05    -0.02   0.02  -0.13
  23   1     0.01  -0.02  -0.08    -0.01  -0.03   0.05    -0.05  -0.01   0.10
  24   1    -0.04   0.06   0.16    -0.10   0.13   0.00    -0.05   0.07   0.01
                      4                      5                      6
                        a                      a                      a 
 Frequencies --   136.1618               184.3975               220.9963
 Red. masses --    13.6742                 9.2019                11.7686
 Frc consts  --     0.0000                 0.0000                 0.0000
 IR Inten    --    10.4564                49.4205                 7.1570
 Raman Activ --     0.0000                 0.0000                 0.0000
 Depolar     --     0.0000                 0.0000                 0.0000
 Atom AN      X      Y      Z        X      Y      Z        X      Y      Z
   1   6    -0.06  -0.07  -0.03     0.13  -0.32  -0.31     0.02  -0.11  -0.08
   2   6     0.01   0.02  -0.29    -0.08   0.13  -0.06    -0.05   0.01   0.03
   3   1     0.04  -0.03  -0.08    -0.10   0.07  -0.02    -0.03  -0.01   0.01
   4   6    -0.03   0.10  -0.10    -0.05   0.13  -0.03     0.05  -0.03   0.06
   5   1    -0.02   0.09  -0.03    -0.02   0.07  -0.01     0.03  -0.02   0.02
   6   6    -0.02  -0.01  -0.03    -0.02   0.01  -0.01     0.07   0.06   0.03
   7   1    -0.02  -0.04  -0.01    -0.02   0.00  -0.00     0.04   0.02   0.01
   8   6    -0.03  -0.02  -0.07    -0.04  -0.02   0.03     0.05   0.05  -0.03
   9   1    -0.01  -0.00  -0.02    -0.02  -0.02   0.01     0.02   0.04  -0.01
  10   6    -0.14   0.03  -0.08    -0.02  -0.00   0.07    -0.05   0.10  -0.05
  11   1    -0.15   0.06  -0.03     0.05  -0.02   0.02    -0.01   0.04  -0.01
  12   8     0.02   0.11  -0.54    -0.06   0.08   0.24    -0.05   0.01   0.02
  13   8    -0.03  -0.07   0.45    -0.26  -0.10  -0.18     0.04   0.18  -0.00
  14   8    -0.03  -0.08  -0.06    -0.05   0.09   0.00     0.14  -0.56   0.05
  15   8     0.09   0.05   0.18     0.18  -0.05   0.01    -0.44   0.21  -0.08
  16   8    -0.03   0.02   0.14     0.01   0.14   0.13     0.19   0.13  -0.04
  17   8     0.27  -0.04   0.28     0.21   0.03   0.20     0.01   0.01   0.08
  18   1    -0.08  -0.05  -0.00     0.16  -0.27  -0.02     0.05  -0.08   0.00
  19   1    -0.04  -0.04   0.01    -0.03  -0.13  -0.30    -0.02  -0.04  -0.09
  20   1    -0.01  -0.01   0.13    -0.14   0.01  -0.14     0.07   0.02   0.09
  21   1    -0.04  -0.05   0.03     0.01   0.05  -0.02    -0.09  -0.25   0.06
  22   1     0.02  -0.02   0.06     0.05  -0.06  -0.00    -0.15   0.22   0.03
  23   1    -0.02   0.02   0.07    -0.00   0.04   0.03     0.10   0.01  -0.01
  24   1     0.05  -0.05   0.14     0.18  -0.25  -0.08     0.12  -0.20  -0.13
                      7                      8                      9
                        a                      a                      a 
 Frequencies --   227.3745               245.3236               258.7215
 Red. masses --    11.7881                 6.1354                 5.2996
 Frc consts  --     0.0000                 0.0000                 0.0000
 IR Inten    --    17.4812               179.5627               161.8186
 Raman Activ --     0.0000                 0.0000                 0.0000
 Depolar     --     0.0000                 0.0000                 0.0000
 Atom AN      X      Y      Z        X      Y      Z        X      Y      Z
   1   6     0.02   0.06  -0.03     0.11   0.01  -0.07     0.01   0.15   0.13
   2   6     0.02   0.04  -0.03     0.07   0.02  -0.01     0.08  -0.03   0.07
   3   1    -0.01   0.03  -0.01     0.00   0.01  -0.00     0.06  -0.04   0.02
   4   6    -0.01   0.09   0.01     0.04   0.03   0.03     0.03  -0.03   0.08
   5   1     0.02   0.04   0.00     0.04   0.01   0.01     0.03  -0.03   0.02
   6   6    -0.02   0.14   0.08     0.04   0.14   0.07     0.02   0.04   0.07
   7   1    -0.02   0.08   0.02     0.02   0.07   0.02     0.02   0.03   0.02
   8   6    -0.20   0.01   0.10    -0.00   0.06   0.08     0.03   0.02   0.05
   9   1    -0.09   0.01   0.02    -0.03   0.02   0.02    -0.01   0.02   0.01
  10   6    -0.09  -0.01   0.05    -0.02   0.05   0.07     0.01  -0.01  -0.01
  11   1    -0.02  -0.04   0.01     0.00   0.00   0.02    -0.03  -0.01  -0.00
  12   8    -0.10  -0.09   0.07     0.06   0.02   0.06     0.08   0.05  -0.18
  13   8     0.24   0.34  -0.14    -0.12  -0.06   0.09    -0.04  -0.13   0.13
  14   8    -0.08  -0.32  -0.07     0.13  -0.23  -0.07     0.08   0.05  -0.06
  15   8     0.39  -0.05  -0.06    -0.05   0.13  -0.07     0.01  -0.00  -0.04
  16   8    -0.33  -0.18  -0.00    -0.25  -0.22  -0.03    -0.20  -0.19  -0.08
  17   8     0.10   0.07   0.02     0.20   0.01  -0.06    -0.13   0.20   0.07
  18   1     0.01   0.01  -0.01     0.03  -0.01  -0.02    -0.01   0.08   0.03
  19   1    -0.00   0.01  -0.01     0.03   0.00  -0.03     0.02   0.06   0.07
  20   1     0.26  -0.01   0.21    -0.29   0.09  -0.52    -0.17   0.03  -0.28
  21   1    -0.10  -0.14  -0.02    -0.06  -0.14   0.04     0.01   0.01  -0.00
  22   1     0.13  -0.13  -0.07    -0.02   0.08  -0.02     0.00   0.01  -0.02
  23   1    -0.20  -0.01  -0.06    -0.16  -0.03  -0.06    -0.12  -0.03  -0.08
  24   1     0.07  -0.07  -0.04    -0.16   0.32   0.27     0.31  -0.47  -0.46
                     10                     11                     12
                        a                      a                      a 
 Frequencies --   278.6504               301.4369               314.3675
 Red. masses --    11.5854                 8.5245                11.8522
 Frc consts  --     0.0000                 0.0000                 0.0000
 IR Inten    --    28.4021                38.0258                 9.4450
 Raman Activ --     0.0000                 0.0000                 0.0000
 Depolar     --     0.0000                 0.0000                 0.0000
 Atom AN      X      Y      Z        X      Y      Z        X      Y      Z
   1   6    -0.10  -0.23   0.03    -0.10   0.02   0.06     0.08   0.22  -0.11
   2   6    -0.11  -0.07   0.06    -0.02  -0.02  -0.08     0.06   0.00  -0.09
   3   1    -0.02  -0.09   0.02    -0.00   0.06  -0.03    -0.00  -0.02  -0.03
   4   6    -0.05   0.01   0.18    -0.02  -0.03  -0.23     0.01  -0.00   0.03
   5   1     0.02  -0.03   0.05    -0.07   0.02  -0.07     0.04   0.02   0.01
   6   6    -0.02   0.01   0.20    -0.04  -0.04  -0.25    -0.13  -0.07   0.16
   7   1     0.01   0.06   0.05    -0.05  -0.07  -0.07    -0.04   0.02   0.04
   8   6    -0.05   0.03   0.19    -0.06  -0.00  -0.19    -0.22  -0.11   0.19
   9   1    -0.07   0.02   0.05     0.03  -0.03  -0.05    -0.12  -0.05   0.05
  10   6    -0.04   0.03   0.07    -0.01   0.06  -0.02    -0.06  -0.21   0.14
  11   1    -0.07  -0.05   0.02     0.03   0.05  -0.00    -0.04  -0.13   0.04
  12   8     0.06   0.16  -0.25    -0.05  -0.21   0.22    -0.02  -0.15  -0.03
  13   8     0.18   0.21   0.05     0.27   0.20   0.13     0.21   0.01   0.00
  14   8     0.11  -0.00  -0.14    -0.20  -0.02   0.03    -0.16   0.08  -0.12
  15   8     0.14  -0.20  -0.09     0.15   0.09   0.14    -0.33  -0.18  -0.09
  16   8     0.13   0.33  -0.13     0.17  -0.01   0.12     0.12   0.14  -0.04
  17   8    -0.29  -0.23   0.02    -0.10  -0.03   0.02     0.38   0.25   0.00
  18   1     0.00  -0.10   0.02    -0.07   0.04   0.00    -0.02   0.08  -0.04
  19   1    -0.03  -0.07  -0.04    -0.01   0.02   0.07     0.03   0.07   0.01
  20   1    -0.02   0.06  -0.30    -0.08   0.09  -0.44     0.06  -0.02  -0.17
  21   1    -0.02  -0.04  -0.01    -0.14  -0.13   0.28    -0.00   0.07  -0.10
  22   1     0.09  -0.16  -0.17     0.05  -0.06   0.03    -0.07  -0.02  -0.09
  23   1     0.11   0.04  -0.06     0.14   0.00   0.21     0.18   0.02   0.18
  24   1    -0.10   0.02   0.02     0.03  -0.09  -0.07     0.10  -0.00   0.04
                     13                     14                     15
                        a                      a                      a 
 Frequencies --   353.0138               364.1427               379.8792
 Red. masses --     3.4589                 6.3476                 9.2150
 Frc consts  --     0.0000                 0.0000                 0.0000
 IR Inten    --   121.5208                49.2787                55.8767
 Raman Activ --     0.0000                 0.0000                 0.0000
 Depolar     --     0.0000                 0.0000                 0.0000
 Atom AN      X      Y      Z        X      Y      Z        X      Y      Z
   1   6     0.12   0.00   0.01    -0.19  -0.00  -0.03     0.26  -0.10   0.10
   2   6     0.05  -0.00   0.12    -0.08  -0.04  -0.17     0.15  -0.01   0.23
   3   1     0.02  -0.03   0.03    -0.04   0.02  -0.05     0.09  -0.03   0.07
   4   6    -0.00  -0.02   0.10     0.13  -0.08  -0.10    -0.06   0.10   0.12
   5   1     0.01  -0.03   0.03     0.07   0.02  -0.03    -0.04  -0.02   0.03
   6   6     0.01  -0.00   0.03     0.09   0.07   0.04    -0.02   0.12  -0.06
   7   1     0.05  -0.02   0.01     0.01   0.05   0.01     0.04   0.02  -0.01
   8   6     0.02   0.02  -0.08     0.09   0.09   0.13    -0.14   0.01  -0.17
   9   1     0.02   0.01  -0.02     0.01   0.02   0.04    -0.02   0.04  -0.05
  10   6     0.03   0.02  -0.08    -0.08   0.11   0.09     0.02  -0.05  -0.14
  11   1     0.01   0.03  -0.02    -0.03   0.02   0.02     0.02   0.03  -0.04
  12   8     0.04   0.07  -0.04    -0.06  -0.05   0.04     0.04  -0.02  -0.06
  13   8    -0.12  -0.11  -0.04    -0.18   0.17  -0.04     0.09  -0.16   0.13
  14   8    -0.01   0.06  -0.01     0.20  -0.05   0.08    -0.31  -0.20   0.12
  15   8    -0.13   0.08   0.11     0.04   0.09  -0.04     0.14   0.11  -0.06
  16   8    -0.13  -0.03  -0.14     0.01  -0.28  -0.07    -0.19   0.17  -0.16
  17   8     0.05   0.04  -0.03    -0.05  -0.06   0.05    -0.08  -0.04  -0.05
  18   1     0.08  -0.01   0.01    -0.12   0.02  -0.02     0.17  -0.06   0.05
  19   1     0.03   0.00  -0.04    -0.05   0.00   0.05     0.07  -0.03  -0.06
  20   1    -0.00  -0.03   0.17    -0.05   0.04   0.00    -0.03  -0.02  -0.04
  21   1    -0.16  -0.19   0.41     0.18   0.17  -0.38     0.06   0.13  -0.31
  22   1     0.17  -0.32  -0.55     0.07  -0.06  -0.17    -0.01   0.09   0.14
  23   1     0.14   0.00   0.29     0.23  -0.03   0.51     0.17   0.04   0.35
  24   1     0.01   0.04  -0.01     0.00  -0.06   0.01    -0.03   0.07  -0.05
                     16                     17                     18
                        a                      a                      a 
 Frequencies --   391.4054               406.7651               437.3860
 Red. masses --     6.9269                10.2159                12.1124
 Frc consts  --     0.0000                 0.0000                 0.0000
 IR Inten    --   392.5953               171.1311                 4.4516
 Raman Activ --     0.0000                 0.0000                 0.0000
 Depolar     --     0.0000                 0.0000                 0.0000
 Atom AN      X      Y      Z        X      Y      Z        X      Y      Z
   1   6     0.05  -0.01  -0.04    -0.06   0.05   0.02    -0.01   0.10  -0.11
   2   6     0.02  -0.09   0.05    -0.04   0.15  -0.06    -0.15   0.00   0.19
   3   1    -0.00  -0.05   0.02    -0.01   0.09  -0.02    -0.08  -0.05   0.05
   4   6     0.13  -0.11   0.10    -0.23   0.14  -0.17    -0.05  -0.16   0.20
   5   1     0.03  -0.06   0.03    -0.11   0.08  -0.05    -0.00  -0.11   0.06
   6   6     0.08   0.06   0.01    -0.12  -0.18  -0.14     0.01  -0.27   0.04
   7   1     0.06   0.00   0.01    -0.07  -0.09  -0.03     0.06  -0.12   0.02
   8   6    -0.08   0.06  -0.14     0.15  -0.08  -0.04     0.13   0.02  -0.26
   9   1     0.00   0.04  -0.04     0.08  -0.04  -0.00     0.08   0.06  -0.07
  10   6    -0.12   0.05  -0.12     0.20  -0.02   0.04    -0.03   0.26  -0.18
  11   1    -0.03   0.07  -0.03     0.09  -0.00   0.01     0.00   0.16  -0.05
  12   8    -0.13  -0.20  -0.02     0.15   0.20   0.11    -0.10   0.17   0.01
  13   8    -0.02   0.07   0.11     0.22  -0.08   0.04    -0.01   0.28   0.09
  14   8    -0.25  -0.03   0.14     0.16  -0.27   0.16    -0.02  -0.00   0.09
  15   8    -0.05   0.20   0.12    -0.20  -0.08   0.14     0.03  -0.44  -0.00
  16   8     0.28  -0.04   0.08    -0.22   0.17   0.06    -0.08  -0.12  -0.09
  17   8     0.07   0.03   0.00    -0.02   0.02  -0.01     0.23   0.14  -0.02
  18   1     0.03  -0.02  -0.00    -0.04   0.03  -0.00     0.05   0.01  -0.02
  19   1     0.01  -0.00  -0.03    -0.02   0.01   0.04    -0.02   0.01  -0.07
  20   1    -0.05   0.03  -0.08     0.02  -0.01  -0.08    -0.04   0.08  -0.06
  21   1     0.10   0.18  -0.29     0.14   0.07  -0.28     0.04   0.04  -0.01
  22   1     0.14  -0.20  -0.39     0.06  -0.21  -0.26    -0.04  -0.03   0.14
  23   1    -0.13  -0.04  -0.43    -0.12   0.05  -0.07     0.05  -0.04   0.06
  24   1     0.01   0.00   0.01     0.00  -0.01  -0.01     0.04   0.01   0.06
                     19                     20                     21
                        a                      a                      a 
 Frequencies --   478.4185               530.0421               565.7536
 Red. masses --    11.6284                10.5604                11.3223
 Frc consts  --     0.0000                 0.0000                 0.0000
 IR Inten    --     4.2967                18.5902                46.3638
 Raman Activ --     0.0000                 0.0000                 0.0000
 Depolar     --     0.0000                 0.0000                 0.0000
 Atom AN      X      Y      Z        X      Y      Z        X      Y      Z
   1   6     0.32  -0.03   0.18    -0.01  -0.00  -0.01     0.02  -0.06   0.10
   2   6     0.20   0.04   0.14    -0.13   0.17   0.21     0.08   0.34  -0.15
   3   1     0.14   0.05   0.04    -0.03   0.03   0.06     0.05   0.21  -0.04
   4   6    -0.03  -0.12  -0.26     0.06   0.02   0.07     0.33   0.21  -0.10
   5   1    -0.09  -0.07  -0.07    -0.02  -0.05   0.02     0.23   0.16  -0.03
   6   6    -0.14  -0.11  -0.19     0.23  -0.06  -0.22     0.15  -0.07   0.27
   7   1    -0.14  -0.04  -0.05     0.12  -0.06  -0.05     0.10  -0.04   0.08
   8   6    -0.10  -0.07   0.13     0.13  -0.30   0.02    -0.08  -0.04  -0.11
   9   1    -0.05  -0.11   0.04     0.07  -0.23   0.02    -0.05   0.04  -0.04
  10   6    -0.13   0.09   0.23    -0.22  -0.25   0.08     0.03   0.00  -0.09
  11   1    -0.08  -0.03   0.06    -0.13  -0.14   0.02     0.04   0.03  -0.02
  12   8     0.13   0.26  -0.16    -0.33   0.14  -0.12    -0.05   0.22   0.08
  13   8    -0.25   0.29  -0.09     0.21   0.07   0.02     0.10  -0.03   0.04
  14   8    -0.07  -0.08  -0.05     0.11   0.14  -0.01    -0.27   0.02  -0.02
  15   8    -0.06  -0.07   0.09    -0.03   0.25   0.06    -0.18  -0.24  -0.03
  16   8     0.20  -0.18   0.09    -0.10  -0.11  -0.04     0.07  -0.23  -0.01
  17   8    -0.05   0.01  -0.06     0.02  -0.03  -0.02    -0.19  -0.16   0.03
  18   1     0.18  -0.02   0.06     0.12  -0.06   0.03     0.03  -0.05   0.04
  19   1     0.10  -0.00  -0.02    -0.07  -0.04  -0.12    -0.03  -0.05  -0.01
  20   1    -0.02   0.05   0.02     0.16  -0.06  -0.13     0.02  -0.01  -0.02
  21   1    -0.02  -0.01  -0.07     0.11   0.08   0.05    -0.03   0.03   0.02
  22   1    -0.01  -0.07   0.03     0.00   0.09  -0.04    -0.05   0.05  -0.07
  23   1     0.02  -0.04  -0.02    -0.05  -0.00   0.05    -0.11   0.01   0.04
  24   1    -0.00   0.08  -0.09    -0.01   0.02   0.02    -0.04   0.02  -0.05
                     22                     23                     24
                        a                      a                      a 
 Frequencies --   599.5096               612.9018               910.1703
 Red. masses --    11.9580                12.1290                 7.7411
 Frc consts  --     0.0000                 0.0000                 0.0000
 IR Inten    --    17.3727                33.4046                46.8768
 Raman Activ --     0.0000                 0.0000                 0.0000
 Depolar     --     0.0000                 0.0000                 0.0000
 Atom AN      X      Y      Z        X      Y      Z        X      Y      Z
   1   6    -0.20   0.02  -0.14     0.15  -0.05   0.07     0.37  -0.26  -0.08
   2   6    -0.08  -0.11  -0.05     0.22  -0.12  -0.22     0.02  -0.11  -0.19
   3   1    -0.11  -0.11  -0.02     0.09  -0.04  -0.05    -0.21   0.01  -0.06
   4   6     0.06  -0.06   0.22     0.03   0.21   0.11    -0.09  -0.08   0.08
   5   1     0.03  -0.05   0.06     0.04   0.15   0.03    -0.00  -0.01   0.02
   6   6     0.16  -0.02  -0.09     0.19  -0.14  -0.02    -0.04  -0.01   0.04
   7   1     0.16  -0.04  -0.02     0.17  -0.10   0.01     0.02   0.01   0.01
   8   6    -0.10  -0.19  -0.13     0.12  -0.18  -0.12     0.01  -0.03  -0.02
   9   1    -0.05  -0.19  -0.03     0.07  -0.15  -0.02     0.02   0.03  -0.01
  10   6     0.17   0.02   0.33    -0.14   0.07   0.13    -0.17  -0.06  -0.11
  11   1     0.08  -0.02   0.09    -0.06   0.05   0.04    -0.03  -0.01  -0.03
  12   8     0.40   0.29  -0.01     0.05  -0.37   0.01    -0.19   0.34   0.17
  13   8    -0.05   0.04  -0.11    -0.24   0.31  -0.04     0.04  -0.03   0.03
  14   8    -0.38  -0.09  -0.02     0.05   0.06   0.03     0.03   0.01   0.00
  15   8     0.04   0.16   0.01    -0.10  -0.11   0.04     0.04   0.07  -0.03
  16   8    -0.00  -0.05  -0.06    -0.26   0.28  -0.04     0.01  -0.02  -0.01
  17   8     0.02   0.02   0.03    -0.07  -0.04   0.02    -0.04   0.05   0.08
  18   1    -0.17   0.04  -0.06    -0.04   0.01   0.00    -0.29   0.15  -0.13
  19   1    -0.03   0.02   0.06     0.09   0.01   0.08     0.29   0.05   0.39
  20   1    -0.01   0.01   0.02    -0.03   0.06  -0.01     0.11  -0.07  -0.05
  21   1    -0.04   0.02  -0.00     0.08   0.05   0.05     0.02   0.01   0.01
  22   1     0.01   0.07  -0.00    -0.03   0.05  -0.03     0.01  -0.01   0.01
  23   1     0.02  -0.02  -0.01    -0.08   0.08  -0.01     0.07  -0.04  -0.03
  24   1     0.00  -0.07   0.06    -0.00   0.03  -0.06     0.02   0.09  -0.11
                     25                     26                     27
                        a                      a                      a 
 Frequencies --   992.7773               999.1258              1020.5959
 Red. masses --     9.6892                 8.8576                 8.7700
 Frc consts  --     0.0000                 0.0000                 0.0000
 IR Inten    --    17.2373                29.1930                30.6831
 Raman Activ --     0.0000                 0.0000                 0.0000
 Depolar     --     0.0000                 0.0000                 0.0000
 Atom AN      X      Y      Z        X      Y      Z        X      Y      Z
   1   6     0.00   0.06  -0.16    -0.04  -0.10  -0.23     0.10   0.09   0.02
   2   6     0.16   0.08   0.03     0.07  -0.14   0.34     0.01   0.19  -0.22
   3   1    -0.04  -0.09   0.01    -0.06  -0.10   0.09    -0.05   0.01  -0.05
   4   6     0.27   0.19   0.29     0.23   0.17  -0.19     0.03  -0.00   0.34
   5   1     0.06  -0.01   0.07    -0.06  -0.05  -0.05     0.02  -0.00   0.08
   6   6    -0.19   0.08  -0.37     0.21  -0.04  -0.19    -0.14  -0.05  -0.22
   7   1    -0.00  -0.05  -0.08    -0.10  -0.01  -0.05     0.00   0.04  -0.06
   8   6    -0.09   0.31  -0.15    -0.06  -0.06   0.35    -0.10  -0.23   0.31
   9   1     0.07   0.01  -0.02    -0.03  -0.01   0.08    -0.01  -0.20   0.09
  10   6    -0.12  -0.10   0.19    -0.02   0.10  -0.30     0.26   0.20  -0.22
  11   1    -0.03  -0.05   0.04    -0.03  -0.02  -0.07     0.04  -0.00  -0.06
  12   8    -0.01  -0.01  -0.02     0.05   0.01   0.05    -0.15  -0.07  -0.01
  13   8    -0.01  -0.08  -0.02     0.03   0.01   0.03     0.10   0.03  -0.00
  14   8     0.16   0.04   0.10    -0.09   0.02  -0.08     0.00  -0.02  -0.05
  15   8    -0.11  -0.16   0.06    -0.07  -0.13   0.10    -0.03   0.09  -0.00
  16   8     0.09  -0.07  -0.08    -0.02   0.08   0.00     0.03  -0.08  -0.05
  17   8    -0.08  -0.11   0.08    -0.04   0.03   0.02    -0.04  -0.10   0.07
  18   1    -0.07   0.02  -0.05    -0.14   0.10  -0.11     0.00  -0.03   0.02
  19   1    -0.01   0.01   0.02     0.07   0.02   0.13    -0.02  -0.01  -0.02
  20   1     0.12  -0.10  -0.06    -0.12   0.08   0.07    -0.32   0.22   0.16
  21   1    -0.17  -0.11  -0.13    -0.05  -0.02  -0.04     0.04   0.02   0.02
  22   1    -0.03  -0.27   0.17    -0.01   0.12  -0.08    -0.01  -0.16   0.11
  23   1    -0.11   0.06   0.05    -0.24   0.15   0.13     0.08  -0.06  -0.05
  24   1    -0.02  -0.05   0.05    -0.02  -0.13   0.14     0.01   0.09  -0.10
                     28                     29                     30
                        a                      a                      a 
 Frequencies --  1022.6474              1045.6403              1071.5245
 Red. masses --     9.1520                 9.3651                11.2102
 Frc consts  --     0.0000                 0.0000                 0.0000
 IR Inten    --    35.9632                96.2389               264.3533
 Raman Activ --     0.0000                 0.0000                 0.0000
 Depolar     --     0.0000                 0.0000                 0.0000
 Atom AN      X      Y      Z        X      Y      Z        X      Y      Z
   1   6    -0.11   0.06  -0.17     0.10  -0.14   0.07     0.08   0.23  -0.33
   2   6     0.21   0.02   0.12    -0.26  -0.17   0.16     0.35   0.01   0.03
   3   1     0.08  -0.00   0.03    -0.15  -0.12   0.04     0.10   0.04   0.01
   4   6     0.05   0.08   0.03     0.13   0.20  -0.15    -0.03  -0.16  -0.07
   5   1     0.07   0.00   0.01     0.13   0.04  -0.04    -0.12  -0.10  -0.02
   6   6    -0.34   0.13   0.17    -0.18   0.14   0.12     0.07   0.12   0.08
   7   1    -0.16   0.12   0.03    -0.09   0.04   0.03    -0.07   0.02   0.02
   8   6     0.01  -0.38  -0.14     0.06  -0.08  -0.22     0.12   0.05  -0.10
   9   1     0.01  -0.04  -0.04    -0.02  -0.11  -0.05    -0.02   0.02  -0.03
  10   6    -0.13  -0.10  -0.23     0.30   0.04   0.27     0.28  -0.06   0.20
  11   1    -0.01   0.07  -0.05     0.06   0.02   0.05     0.02  -0.03   0.04
  12   8     0.22   0.05   0.12    -0.28  -0.07  -0.21    -0.39   0.07  -0.10
  13   8    -0.11   0.15   0.07     0.05   0.01  -0.05    -0.00   0.05  -0.00
  14   8     0.10  -0.06   0.00     0.02  -0.06   0.03    -0.08  -0.04  -0.02
  15   8    -0.01   0.13  -0.09    -0.03   0.00  -0.04     0.01  -0.09   0.04
  16   8     0.07  -0.04  -0.01     0.12  -0.02  -0.02    -0.12   0.07   0.06
  17   8    -0.06  -0.05   0.02     0.06   0.09  -0.02    -0.16  -0.22   0.16
  18   1    -0.04   0.02  -0.04    -0.01   0.05  -0.01    -0.03   0.06  -0.08
  19   1    -0.03   0.01  -0.03     0.07  -0.01   0.10     0.03   0.05  -0.01
  20   1     0.09  -0.04  -0.05    -0.14   0.10   0.05    -0.09   0.07   0.03
  21   1     0.29   0.15   0.19     0.14   0.07   0.10     0.04   0.03   0.04
  22   1    -0.00  -0.18   0.11    -0.01  -0.12   0.06     0.00   0.10  -0.07
  23   1    -0.02   0.01   0.01    -0.24   0.15   0.13     0.15  -0.08  -0.07
  24   1    -0.03  -0.14   0.15     0.02   0.08  -0.07    -0.05  -0.17   0.17
                     31                     32                     33
                        a                      a                      a 
 Frequencies --  1083.9537              1092.0256              1095.9484
 Red. masses --    10.3005                10.7795                10.9071
 Frc consts  --     0.0000                 0.0000                 0.0000
 IR Inten    --   141.1159               376.2621               132.9633
 Raman Activ --     0.0000                 0.0000                 0.0000
 Depolar     --     0.0000                 0.0000                 0.0000
 Atom AN      X      Y      Z        X      Y      Z        X      Y      Z
   1   6    -0.31  -0.42   0.15     0.09  -0.02  -0.11    -0.03   0.03   0.10
   2   6     0.29  -0.10  -0.01    -0.07   0.21   0.10    -0.03  -0.05  -0.12
   3   1     0.32   0.13   0.02    -0.06   0.01   0.02    -0.03  -0.03  -0.03
   4   6    -0.03  -0.01   0.07    -0.33   0.18  -0.04     0.17  -0.21  -0.03
   5   1     0.04   0.09   0.01    -0.16  -0.05  -0.02    -0.05  -0.10  -0.01
   6   6     0.00   0.12  -0.07     0.13   0.30   0.03     0.12   0.51  -0.11
   7   1     0.13   0.00  -0.01     0.17  -0.03   0.03    -0.11   0.16  -0.02
   8   6    -0.12   0.01  -0.02    -0.36  -0.07  -0.17     0.18  -0.03   0.02
   9   1    -0.00  -0.11   0.01    -0.08  -0.15  -0.02     0.03  -0.16   0.01
  10   6     0.10   0.00   0.01    -0.10   0.07   0.01    -0.24   0.24   0.03
  11   1     0.00  -0.03  -0.00     0.01   0.00   0.00    -0.04   0.04   0.00
  12   8    -0.22   0.14   0.04     0.15  -0.15  -0.07     0.04   0.05   0.06
  13   8     0.04   0.00  -0.00     0.08  -0.05  -0.05     0.13  -0.19  -0.08
  14   8     0.08   0.02   0.05     0.26   0.04   0.15    -0.13  -0.08  -0.09
  15   8    -0.04  -0.07   0.04    -0.01  -0.22   0.12    -0.12  -0.30   0.15
  16   8    -0.01  -0.02  -0.01     0.15  -0.19  -0.06    -0.13   0.13   0.07
  17   8     0.10   0.33  -0.30    -0.04  -0.02   0.06     0.04  -0.00  -0.02
  18   1    -0.08  -0.02  -0.00    -0.03   0.10  -0.06     0.00  -0.09   0.06
  19   1    -0.01  -0.05   0.04    -0.02  -0.03   0.10    -0.01   0.01  -0.06
  20   1    -0.09   0.06   0.04    -0.10   0.07   0.06     0.05  -0.05  -0.02
  21   1    -0.02  -0.02  -0.02     0.09   0.03   0.05     0.18   0.11   0.12
  22   1    -0.01  -0.06   0.04    -0.00   0.18  -0.11    -0.03  -0.11   0.06
  23   1     0.11  -0.07  -0.06     0.11  -0.08  -0.04     0.04  -0.01  -0.01
  24   1    -0.01  -0.15   0.17    -0.01  -0.00   0.01     0.02   0.09  -0.09
                     34                     35                     36
                        a                      a                      a 
 Frequencies --  1117.4450              1128.3061              1135.2992
 Red. masses --    10.1450                 8.0616                11.5278
 Frc consts  --     0.0000                 0.0000                 0.0000
 IR Inten    --    68.8964                99.8233                99.3448
 Raman Activ --     0.0000                 0.0000                 0.0000
 Depolar     --     0.0000                 0.0000                 0.0000
 Atom AN      X      Y      Z        X      Y      Z        X      Y      Z
   1   6     0.02   0.30   0.03     0.09  -0.05  -0.15     0.02  -0.06  -0.04
   2   6     0.04  -0.46  -0.08    -0.07   0.12   0.17    -0.10   0.14   0.08
   3   1     0.04  -0.12  -0.01     0.08   0.21   0.04    -0.08   0.21   0.00
   4   6     0.00  -0.00  -0.13    -0.06  -0.07  -0.08     0.36  -0.44  -0.15
   5   1     0.16   0.17  -0.03     0.18   0.12  -0.01     0.15  -0.10  -0.02
   6   6    -0.03  -0.08   0.04    -0.12  -0.12   0.15     0.02  -0.01  -0.01
   7   1     0.15  -0.08   0.02     0.17  -0.04   0.04     0.06  -0.02  -0.00
   8   6    -0.31  -0.06  -0.05     0.23   0.10   0.04    -0.36  -0.04  -0.14
   9   1    -0.05  -0.16   0.01     0.11  -0.22   0.03    -0.10   0.01  -0.03
  10   6    -0.15   0.20  -0.03    -0.26   0.30   0.11     0.05  -0.13  -0.05
  11   1     0.03   0.05  -0.01    -0.10  -0.03   0.02     0.03  -0.04  -0.01
  12   8    -0.12   0.26   0.13     0.09  -0.15  -0.08     0.11  -0.03  -0.08
  13   8     0.15  -0.15  -0.06     0.19  -0.21  -0.13    -0.03   0.09   0.03
  14   8     0.21   0.06   0.12    -0.12  -0.01  -0.06     0.23   0.06   0.14
  15   8     0.03   0.05  -0.03     0.02   0.14  -0.11    -0.02   0.05  -0.03
  16   8     0.01   0.05   0.01    -0.04   0.02   0.04    -0.28   0.27   0.17
  17   8    -0.02  -0.15   0.04    -0.08   0.02   0.03     0.00   0.01   0.03
  18   1     0.13  -0.11   0.08     0.07   0.20  -0.10    -0.03   0.05  -0.03
  19   1     0.11   0.14  -0.19     0.02  -0.02   0.13    -0.02  -0.03   0.06
  20   1    -0.04   0.02   0.03    -0.10   0.05   0.06    -0.09   0.07   0.04
  21   1    -0.03  -0.03  -0.04    -0.07  -0.03  -0.05    -0.01  -0.03  -0.01
  22   1     0.00   0.03  -0.01    -0.00  -0.18   0.12    -0.01  -0.10   0.07
  23   1    -0.06   0.04   0.02     0.08  -0.05  -0.04     0.04   0.00  -0.02
  24   1    -0.01  -0.07   0.06    -0.04  -0.17   0.18     0.01   0.06  -0.05
                     37                     38                     39
                        a                      a                      a 
 Frequencies --  1159.5079              1183.5459              1192.4274
 Red. masses --     8.0272                 3.7913                 3.4757
 Frc consts  --     0.0000                 0.0000                 0.0000
 IR Inten    --    78.3487                93.2484                85.4047
 Raman Activ --     0.0000                 0.0000                 0.0000
 Depolar     --     0.0000                 0.0000                 0.0000
 Atom AN      X      Y      Z        X      Y      Z        X      Y      Z
   1   6    -0.07  -0.11   0.01    -0.13  -0.01  -0.04    -0.03   0.05   0.01
   2   6     0.18   0.17  -0.06     0.21   0.06   0.03     0.09   0.01  -0.07
   3   1     0.07  -0.09  -0.01    -0.00  -0.10   0.01     0.03   0.01  -0.02
   4   6     0.15  -0.02   0.14    -0.00  -0.02  -0.07    -0.17  -0.04  -0.06
   5   1    -0.16  -0.20   0.04    -0.01  -0.28  -0.01    -0.13  -0.25  -0.01
   6   6    -0.05  -0.33   0.04    -0.19   0.08   0.25     0.14  -0.06   0.05
   7   1    -0.33  -0.07  -0.01    -0.05  -0.15   0.08     0.33  -0.00   0.02
   8   6    -0.11  -0.01  -0.08     0.12  -0.01  -0.12     0.05   0.19  -0.02
   9   1    -0.21   0.15  -0.04     0.26  -0.40   0.02    -0.15   0.20  -0.03
  10   6    -0.22   0.28   0.22    -0.05  -0.03  -0.08    -0.13  -0.14   0.01
  11   1     0.02   0.16   0.04    -0.08  -0.16  -0.02    -0.11  -0.31   0.01
  12   8    -0.06  -0.03  -0.04     0.01   0.02   0.07     0.05   0.04   0.08
  13   8     0.19  -0.21  -0.14     0.03   0.03   0.01     0.09   0.04  -0.00
  14   8     0.09  -0.02   0.05    -0.00   0.08   0.03    -0.04  -0.08  -0.03
  15   8     0.09   0.13  -0.07     0.07   0.01  -0.05    -0.07   0.06  -0.05
  16   8    -0.02   0.03  -0.01     0.02   0.04   0.04     0.10   0.02  -0.03
  17   8     0.01   0.06  -0.05     0.06  -0.02   0.02     0.01  -0.03  -0.02
  18   1    -0.09  -0.03  -0.01    -0.22  -0.16   0.02    -0.10  -0.13   0.04
  19   1    -0.06  -0.06   0.02    -0.09  -0.04  -0.05     0.06   0.07  -0.07
  20   1    -0.05   0.02   0.03    -0.11   0.08   0.06    -0.25   0.18   0.14
  21   1     0.15   0.08   0.11    -0.27  -0.14  -0.19     0.19   0.11   0.14
  22   1     0.02   0.19  -0.12     0.01   0.14  -0.09    -0.02  -0.28   0.18
  23   1    -0.09   0.05   0.05    -0.09   0.06   0.05    -0.25   0.16   0.13
  24   1     0.00   0.02  -0.02     0.05   0.21  -0.23     0.01   0.01  -0.02
                     40                     41                     42
                        a                      a                      a 
 Frequencies --  1201.4729              1204.4371              1228.5903
 Red. masses --     3.8236                 4.3241                 3.4400
 Frc consts  --     0.0000                 0.0000                 0.0000
 IR Inten    --     9.5347                69.3648                41.5567
 Raman Activ --     0.0000                 0.0000                 0.0000
 Depolar     --     0.0000                 0.0000                 0.0000
 Atom AN      X      Y      Z        X      Y      Z        X      Y      Z
   1   6    -0.02   0.01   0.07     0.16  -0.00   0.23    -0.04   0.03   0.08
   2   6    -0.06  -0.08   0.07    -0.15   0.15  -0.24     0.11   0.11   0.22
   3   1    -0.17  -0.01   0.01    -0.14   0.03  -0.07    -0.33   0.11   0.03
   4   6     0.15   0.10   0.07     0.02  -0.10   0.11     0.02   0.12  -0.09
   5   1     0.04   0.34   0.01    -0.06  -0.26   0.03    -0.06   0.03  -0.02
   6   6    -0.07  -0.01  -0.07    -0.05   0.09   0.04     0.03  -0.05   0.04
   7   1    -0.31  -0.10  -0.02    -0.13  -0.02   0.01     0.09   0.01   0.01
   8   6     0.10   0.15  -0.15     0.02  -0.04  -0.06    -0.01  -0.05   0.06
   9   1    -0.04   0.04  -0.05     0.10  -0.12  -0.00    -0.03   0.03   0.01
  10   6    -0.16  -0.19  -0.02     0.02  -0.06  -0.04     0.06   0.10   0.05
  11   1    -0.12  -0.38   0.00    -0.00  -0.04  -0.01    -0.04   0.18  -0.00
  12   8     0.12   0.04   0.06     0.04  -0.04   0.01    -0.01  -0.11  -0.14
  13   8     0.09   0.07   0.01    -0.02   0.04   0.02    -0.02  -0.04  -0.03
  14   8    -0.02  -0.04  -0.01     0.01   0.04   0.02    -0.00   0.01   0.00
  15   8     0.05  -0.05   0.01     0.03  -0.03   0.02    -0.03   0.05  -0.03
  16   8    -0.09  -0.05   0.00     0.05   0.03  -0.01    -0.06  -0.04   0.03
  17   8     0.01   0.00  -0.04    -0.08   0.04  -0.18     0.04  -0.04  -0.12
  18   1    -0.01  -0.06   0.04     0.12  -0.01   0.07    -0.42  -0.41   0.11
  19   1     0.07   0.06  -0.04     0.28   0.17  -0.04     0.31   0.24  -0.14
  20   1    -0.29   0.21   0.17    -0.03   0.02   0.01     0.09  -0.07  -0.05
  21   1     0.09   0.05   0.07    -0.10  -0.05  -0.07    -0.03  -0.01  -0.02
  22   1     0.01   0.17  -0.12     0.01   0.12  -0.07    -0.01  -0.12   0.08
  23   1     0.26  -0.17  -0.14    -0.17   0.11   0.10     0.18  -0.12  -0.09
  24   1    -0.00  -0.03   0.03    -0.09  -0.42   0.42     0.00  -0.05   0.02
                     43                     44                     45
                        a                      a                      a 
 Frequencies --  1246.7872              1251.7846              1264.7392
 Red. masses --     4.4711                 4.0309                 3.6272
 Frc consts  --     0.0000                 0.0000                 0.0000
 IR Inten    --   113.1793               125.4753                20.2781
 Raman Activ --     0.0000                 0.0000                 0.0000
 Depolar     --     0.0000                 0.0000                 0.0000
 Atom AN      X      Y      Z        X      Y      Z        X      Y      Z
   1   6    -0.03   0.02  -0.05     0.05  -0.03   0.10    -0.02   0.02  -0.05
   2   6    -0.02  -0.03   0.04     0.06   0.09  -0.07    -0.07  -0.10   0.00
   3   1     0.04   0.33   0.00    -0.17  -0.47  -0.01     0.10   0.28  -0.00
   4   6    -0.04  -0.10   0.12     0.12   0.11  -0.16     0.00  -0.03   0.11
   5   1     0.14   0.02   0.03    -0.18  -0.07  -0.04    -0.37   0.19   0.01
   6   6    -0.17  -0.03  -0.10     0.11  -0.07   0.13     0.24  -0.04   0.12
   7   1     0.05  -0.21  -0.00     0.02  -0.23   0.05    -0.29   0.24  -0.00
   8   6    -0.03   0.31   0.06    -0.02   0.19   0.02     0.10  -0.06  -0.16
   9   1    -0.22  -0.30   0.02    -0.25  -0.29   0.00    -0.39  -0.22  -0.07
  10   6     0.19   0.13  -0.11     0.11   0.10  -0.12     0.06   0.04  -0.07
  11   1    -0.14  -0.18  -0.03     0.02  -0.17  -0.02    -0.18  -0.05  -0.03
  12   8     0.00  -0.06  -0.03    -0.05   0.00   0.06     0.03  -0.00   0.02
  13   8    -0.13  -0.02   0.07    -0.09  -0.00   0.07    -0.02  -0.00   0.00
  14   8    -0.02  -0.13  -0.03     0.01  -0.03   0.03     0.04   0.10   0.15
  15   8     0.08  -0.04   0.02    -0.04   0.08  -0.11    -0.06   0.05  -0.03
  16   8     0.06   0.02  -0.03    -0.10  -0.01   0.05     0.06  -0.03  -0.10
  17   8     0.02  -0.03   0.02    -0.04   0.06  -0.05     0.01  -0.03   0.04
  18   1    -0.07  -0.06   0.00     0.11   0.08   0.00     0.02   0.01  -0.01
  19   1     0.08   0.06  -0.02    -0.14  -0.12   0.04     0.05   0.04  -0.00
  20   1     0.23  -0.17  -0.11     0.15  -0.11  -0.07     0.02  -0.01  -0.01
  21   1     0.26   0.14   0.18     0.07   0.04   0.05    -0.22  -0.12  -0.14
  22   1     0.02   0.23  -0.13    -0.01  -0.21   0.13    -0.01  -0.17   0.11
  23   1    -0.14   0.09   0.07     0.18  -0.12  -0.09    -0.09   0.05   0.04
  24   1     0.01   0.04  -0.04    -0.02  -0.09   0.10     0.01   0.05  -0.05
                     46                     47                     48
                        a                      a                      a 
 Frequencies --  1289.1160              1300.0403              1312.5768
 Red. masses --     2.6550                 2.9264                 3.7582
 Frc consts  --     0.0000                 0.0000                 0.0000
 IR Inten    --    18.0776                35.1612                30.7937
 Raman Activ --     0.0000                 0.0000                 0.0000
 Depolar     --     0.0000                 0.0000                 0.0000
 Atom AN      X      Y      Z        X      Y      Z        X      Y      Z
   1   6    -0.00   0.02   0.10    -0.03   0.00   0.00     0.07   0.05   0.08
   2   6     0.24  -0.13  -0.03     0.01  -0.16  -0.01     0.29  -0.02   0.04
   3   1    -0.47   0.15  -0.04    -0.10   0.32  -0.02    -0.42   0.10  -0.02
   4   6    -0.01   0.01  -0.01     0.17  -0.02   0.07    -0.17  -0.16   0.02
   5   1    -0.00  -0.04  -0.00    -0.52   0.14   0.00     0.09   0.19   0.00
   6   6    -0.08   0.03  -0.02     0.02   0.12   0.13     0.05  -0.08  -0.01
   7   1     0.11  -0.00  -0.00    -0.01  -0.45   0.08    -0.03   0.27  -0.03
   8   6    -0.00  -0.09  -0.01    -0.15   0.00   0.09     0.03   0.07  -0.02
   9   1    -0.01   0.14  -0.01     0.38   0.06   0.07    -0.04  -0.13  -0.00
  10   6     0.13   0.02   0.03    -0.04   0.00   0.03    -0.15   0.02  -0.02
  11   1    -0.63   0.15  -0.04     0.20   0.01   0.02     0.51  -0.13   0.02
  12   8     0.02   0.02   0.06    -0.00   0.02  -0.08    -0.04  -0.01  -0.12
  13   8     0.03  -0.04  -0.08    -0.00   0.00   0.01    -0.02   0.03   0.06
  14   8     0.01   0.01   0.01    -0.02  -0.04  -0.09    -0.00   0.01   0.01
  15   8     0.01  -0.01   0.02    -0.01   0.05  -0.11     0.00  -0.02   0.05
  16   8     0.02   0.01  -0.00     0.03  -0.01  -0.08     0.07   0.02  -0.05
  17   8    -0.02   0.06  -0.03     0.00   0.00   0.02    -0.03   0.05  -0.06
  18   1     0.15   0.09   0.01     0.09   0.05  -0.01    -0.06  -0.03   0.02
  19   1    -0.28  -0.19   0.02    -0.03  -0.02   0.01    -0.28  -0.19  -0.01
  20   1    -0.02   0.01  -0.00     0.01  -0.01  -0.00     0.01   0.00   0.01
  21   1    -0.02  -0.01  -0.02     0.08   0.04   0.05    -0.01  -0.00   0.00
  22   1     0.00   0.04  -0.03    -0.01  -0.10   0.05     0.00   0.03  -0.01
  23   1    -0.03   0.02   0.02    -0.05   0.03   0.01    -0.14   0.09   0.07
  24   1    -0.02  -0.03   0.05     0.00   0.02  -0.01    -0.02  -0.05   0.06
                     49                     50                     51
                        a                      a                      a 
 Frequencies --  1335.2030              1339.1652              1346.7073
 Red. masses --     5.3836                 4.7573                 4.0446
 Frc consts  --     0.0000                 0.0000                 0.0000
 IR Inten    --    13.1361                 6.4693                10.8074
 Raman Activ --     0.0000                 0.0000                 0.0000
 Depolar     --     0.0000                 0.0000                 0.0000
 Atom AN      X      Y      Z        X      Y      Z        X      Y      Z
   1   6    -0.02   0.00   0.01     0.07  -0.00   0.00    -0.02  -0.01  -0.00
   2   6    -0.03  -0.19  -0.03    -0.04   0.21   0.03    -0.06  -0.06  -0.02
   3   1    -0.04   0.23  -0.02     0.08  -0.31   0.03     0.02   0.04  -0.01
   4   6     0.18   0.24  -0.02     0.15  -0.32  -0.02     0.22   0.14  -0.04
   5   1    -0.08  -0.31   0.00    -0.32   0.46  -0.03    -0.28  -0.11  -0.01
   6   6    -0.28   0.08  -0.06    -0.30   0.09  -0.01    -0.12  -0.29   0.06
   7   1     0.26  -0.05   0.00     0.35   0.03   0.01     0.18   0.61  -0.05
   8   6     0.24  -0.25   0.01     0.11  -0.12   0.01    -0.18   0.14  -0.08
   9   1    -0.34   0.20  -0.06    -0.11   0.11  -0.02     0.36  -0.12   0.03
  10   6    -0.08   0.17  -0.01     0.02   0.05   0.01     0.06   0.08   0.00
  11   1     0.26  -0.27   0.01    -0.07  -0.04   0.00    -0.07  -0.19  -0.00
  12   8    -0.02  -0.01  -0.05    -0.01  -0.01   0.03     0.00   0.01   0.01
  13   8    -0.02   0.01   0.05    -0.00  -0.00  -0.00    -0.03  -0.01   0.02
  14   8     0.01   0.06   0.07     0.00   0.02   0.02     0.01  -0.05  -0.05
  15   8     0.02  -0.03   0.03     0.05  -0.04   0.06     0.01  -0.01   0.09
  16   8    -0.05  -0.01   0.05     0.05   0.03  -0.08    -0.05  -0.01   0.01
  17   8     0.00   0.00   0.01    -0.01   0.01  -0.03     0.00  -0.00   0.01
  18   1     0.08   0.05  -0.00    -0.13  -0.08   0.01     0.05   0.02  -0.00
  19   1    -0.02  -0.01   0.01    -0.01  -0.02   0.02     0.03   0.02   0.01
  20   1     0.04  -0.02  -0.01     0.01  -0.01  -0.00     0.05  -0.04  -0.02
  21   1    -0.14  -0.08  -0.08    -0.05  -0.03  -0.03     0.11   0.06   0.06
  22   1     0.01   0.09  -0.06     0.01   0.15  -0.09     0.00   0.09  -0.04
  23   1     0.12  -0.08  -0.06    -0.14   0.08   0.05     0.09  -0.06  -0.04
  24   1     0.00   0.01  -0.01    -0.01  -0.04   0.03     0.00   0.01  -0.01
                     52                     53                     54
                        a                      a                      a 
 Frequencies --  1351.6095              1363.5136              1443.4098
 Red. masses --     5.0209                 5.0249                 1.7558
 Frc consts  --     0.0000                 0.0000                 0.0000
 IR Inten    --    11.7977                10.8051                 0.9960
 Raman Activ --     0.0000                 0.0000                 0.0000
 Depolar     --     0.0000                 0.0000                 0.0000
 Atom AN      X      Y      Z        X      Y      Z        X      Y      Z
   1   6     0.08   0.03  -0.00    -0.42  -0.18  -0.04    -0.09   0.12  -0.20
   2   6    -0.01   0.05   0.02     0.25   0.17   0.00    -0.00   0.01  -0.01
   3   1     0.07  -0.05   0.01    -0.26  -0.12  -0.01     0.00   0.00  -0.00
   4   6    -0.12  -0.06   0.02    -0.08  -0.10  -0.01    -0.01   0.00   0.00
   5   1     0.15   0.06   0.01     0.03   0.09  -0.01     0.02  -0.01   0.00
   6   6     0.17   0.05   0.00     0.01   0.00   0.00     0.01  -0.00  -0.00
   7   1    -0.19  -0.05  -0.00     0.01   0.03  -0.00    -0.01   0.00  -0.00
   8   6    -0.16  -0.26  -0.09    -0.00  -0.05  -0.01     0.00   0.00  -0.00
   9   1     0.24   0.30  -0.01     0.01   0.05  -0.01    -0.00  -0.00  -0.00
  10   6     0.13   0.41   0.04    -0.00   0.09   0.01    -0.00  -0.00   0.00
  11   1    -0.13  -0.57   0.01     0.04  -0.11   0.00     0.01   0.00   0.00
  12   8    -0.03  -0.05   0.01    -0.02  -0.04  -0.03     0.00  -0.00  -0.00
  13   8    -0.06  -0.05   0.06    -0.01  -0.01   0.01     0.00   0.00   0.00
  14   8     0.02   0.03   0.00     0.00   0.01   0.01     0.00   0.00   0.00
  15   8    -0.03   0.03  -0.03     0.00   0.00   0.01    -0.00   0.00  -0.00
  16   8     0.02   0.00  -0.00     0.02   0.01  -0.01     0.00   0.00  -0.00
  17   8    -0.01   0.01  -0.02     0.06  -0.07   0.11     0.00   0.05  -0.05
  18   1    -0.12  -0.06   0.01     0.44   0.23  -0.04     0.32  -0.55   0.21
  19   1    -0.06  -0.05  -0.00     0.39   0.30  -0.00    -0.01  -0.03   0.69
  20   1     0.15  -0.11  -0.06     0.03  -0.02  -0.01    -0.00   0.00   0.00
  21   1    -0.04  -0.02  -0.04    -0.01  -0.01  -0.01    -0.00  -0.00  -0.00
  22   1    -0.00  -0.08   0.04     0.00   0.00  -0.00    -0.00  -0.00   0.00
  23   1    -0.03   0.02   0.02    -0.05   0.03   0.02     0.00  -0.00   0.00
  24   1    -0.01  -0.03   0.03     0.04   0.14  -0.14    -0.00  -0.02   0.02
                     55                     56                     57
                        a                      a                      a 
 Frequencies --  2736.9263              2856.1375              2860.2645
 Red. masses --     1.6515                 1.6493                 1.7162
 Frc consts  --     0.0000                 0.0000                 0.0000
 IR Inten    --   159.4475                 1.0009                40.6987
 Raman Activ --     0.0000                 0.0000                 0.0000
 Depolar     --     0.0000                 0.0000                 0.0000
 Atom AN      X      Y      Z        X      Y      Z        X      Y      Z
   1   6    -0.00   0.00   0.00     0.00  -0.00   0.00     0.00  -0.01  -0.00
   2   6     0.00  -0.00   0.00    -0.00   0.00   0.03    -0.00   0.00   0.12
   3   1    -0.01   0.00  -0.00     0.01  -0.00  -0.15     0.03  -0.02  -0.48
   4   6    -0.00   0.00   0.00    -0.00   0.00  -0.18    -0.00  -0.00  -0.13
   5   1     0.00  -0.00  -0.01    -0.02   0.02   0.71    -0.01   0.01   0.49
   6   6     0.00  -0.00   0.01    -0.00   0.03   0.16     0.00  -0.02  -0.17
   7   1    -0.00   0.00  -0.02     0.02  -0.07  -0.63    -0.02   0.07   0.66
   8   6    -0.00   0.00  -0.01     0.00   0.00  -0.00    -0.01  -0.00   0.03
   9   1     0.00   0.00  -0.03    -0.01   0.00   0.04     0.02  -0.01  -0.15
  10   6     0.02   0.01  -0.24     0.00  -0.00   0.00     0.00   0.00  -0.00
  11   1    -0.05   0.02   0.97    -0.00   0.00  -0.01    -0.00  -0.00   0.01
  12   8    -0.02  -0.00  -0.02    -0.00   0.00   0.00    -0.01   0.01   0.01
  13   8     0.01  -0.01  -0.01    -0.00  -0.00   0.00     0.00  -0.00  -0.00
  14   8     0.00  -0.00   0.00    -0.00  -0.00  -0.00     0.00   0.00   0.00
  15   8    -0.00   0.00   0.00    -0.00  -0.01   0.01     0.00   0.01  -0.01
  16   8    -0.00   0.00   0.00     0.01  -0.01  -0.01     0.01  -0.00  -0.01
  17   8     0.00   0.00   0.00    -0.00  -0.00  -0.00    -0.00  -0.00  -0.00
  18   1     0.00  -0.00  -0.00     0.00  -0.00  -0.00    -0.00   0.01   0.03
  19   1     0.00  -0.00   0.00    -0.01   0.01  -0.00    -0.01   0.01  -0.00
  20   1    -0.00  -0.00   0.00     0.00   0.00  -0.00     0.00  -0.00   0.00
  21   1    -0.00   0.00  -0.00    -0.00   0.00   0.00     0.00  -0.00  -0.00
  22   1     0.00  -0.00  -0.00    -0.00  -0.00  -0.00    -0.00   0.00   0.00
  23   1     0.00   0.00  -0.00     0.00  -0.00   0.00    -0.00  -0.00   0.00
  24   1    -0.00  -0.00  -0.00     0.00   0.00   0.00     0.00   0.00   0.00
                     58                     59                     60
                        a                      a                      a 
 Frequencies --  2868.3909              2882.0196              2911.0165
 Red. masses --     1.7538                 1.7449                 1.9932
 Frc consts  --     0.0000                 0.0000                 0.0000
 IR Inten    --   142.7335               157.7306                76.5376
 Raman Activ --     0.0000                 0.0000                 0.0000
 Depolar     --     0.0000                 0.0000                 0.0000
 Atom AN      X      Y      Z        X      Y      Z        X      Y      Z
   1   6    -0.00   0.01   0.02    -0.00   0.00   0.01    -0.11   0.19   0.20
   2   6     0.01  -0.00  -0.22     0.00   0.00  -0.02    -0.00   0.01   0.03
   3   1    -0.05   0.03   0.81    -0.01   0.00   0.07     0.01  -0.00  -0.09
   4   6    -0.00   0.00  -0.12    -0.00   0.00  -0.03    -0.00  -0.00   0.01
   5   1    -0.01   0.01   0.41    -0.00   0.00   0.12     0.00   0.00  -0.02
   6   6    -0.00  -0.01  -0.07     0.00  -0.01  -0.05    -0.00   0.00   0.00
   7   1    -0.01   0.03   0.25    -0.00   0.02   0.17    -0.00  -0.00  -0.01
   8   6    -0.01   0.00   0.04     0.04  -0.02  -0.25    -0.00   0.00   0.00
   9   1     0.02  -0.01  -0.17    -0.10   0.06   0.93     0.00  -0.00  -0.01
  10   6    -0.00   0.00   0.00     0.00   0.00  -0.02    -0.00  -0.00   0.00
  11   1     0.01  -0.00   0.00    -0.00   0.00   0.03    -0.00   0.00  -0.00
  12   8     0.01  -0.01  -0.01     0.00  -0.00  -0.00    -0.00   0.00   0.00
  13   8     0.00   0.00   0.00    -0.00  -0.00   0.00    -0.00  -0.00  -0.00
  14   8     0.00   0.00   0.00    -0.01  -0.00  -0.01     0.00  -0.00   0.00
  15   8     0.00   0.00  -0.00     0.00   0.00  -0.00     0.00  -0.00  -0.00
  16   8     0.00  -0.00  -0.00     0.00  -0.00  -0.00     0.00   0.00  -0.00
  17   8     0.00  -0.00   0.00    -0.00  -0.00   0.00    -0.00   0.00   0.01
  18   1     0.01  -0.03  -0.10     0.00  -0.01  -0.02     0.07  -0.23  -0.72
  19   1     0.01  -0.01   0.00     0.00  -0.00   0.00     0.33  -0.46   0.00
  20   1    -0.00  -0.00  -0.00     0.00   0.00  -0.00     0.00   0.00   0.00
  21   1     0.00  -0.00  -0.00    -0.00  -0.00   0.00    -0.00   0.00   0.00
  22   1    -0.00   0.00   0.00     0.00  -0.00  -0.00     0.00   0.00   0.00
  23   1     0.00   0.00   0.00    -0.00  -0.00   0.00    -0.00  -0.00   0.00
  24   1    -0.00  -0.00  -0.00    -0.00  -0.00  -0.00     0.00  -0.00  -0.00
                     61                     62                     63
                        a                      a                      a 
 Frequencies --  2926.5290              3445.2362              3448.7307
 Red. masses --     1.4397                 1.8740                 1.8731
 Frc consts  --     0.0000                 0.0000                 0.0000
 IR Inten    --    50.8107               135.4007               150.9789
 Raman Activ --     0.0000                 0.0000                 0.0000
 Depolar     --     0.0000                 0.0000                 0.0000
 Atom AN      X      Y      Z        X      Y      Z        X      Y      Z
   1   6    -0.11   0.11  -0.12    -0.00   0.00  -0.00    -0.00  -0.00   0.00
   2   6    -0.00   0.00  -0.02    -0.00  -0.00   0.00    -0.00  -0.00  -0.00
   3   1    -0.00   0.00   0.04     0.00   0.00  -0.00     0.00   0.00   0.00
   4   6    -0.00   0.00  -0.01     0.00  -0.01  -0.00    -0.00   0.00   0.00
   5   1    -0.00   0.00   0.03     0.00   0.00   0.00     0.00  -0.00  -0.00
   6   6    -0.00  -0.00  -0.00    -0.00   0.00  -0.00    -0.00  -0.00  -0.00
   7   1     0.00   0.00   0.01     0.00  -0.00   0.00     0.00  -0.00   0.00
   8   6     0.00  -0.00  -0.00     0.00  -0.00  -0.00    -0.00  -0.00   0.00
   9   1    -0.00   0.00   0.00     0.00   0.00   0.00     0.00  -0.00  -0.00
  10   6     0.00   0.00  -0.00    -0.00  -0.00   0.00     0.00  -0.01  -0.00
  11   1     0.00  -0.00   0.00     0.00   0.00  -0.00    -0.00   0.00   0.00
  12   8     0.00  -0.00  -0.00     0.00   0.00  -0.00     0.00   0.00   0.00
  13   8    -0.00  -0.00   0.00    -0.00  -0.01   0.00    -0.12  -0.20   0.02
  14   8    -0.00  -0.00   0.00     0.00  -0.00  -0.00     0.00  -0.01  -0.00
  15   8     0.00   0.00   0.00    -0.01  -0.00  -0.00    -0.00  -0.00  -0.00
  16   8     0.00   0.00  -0.00    -0.10  -0.21   0.06     0.00   0.01  -0.00
  17   8     0.00   0.01  -0.01     0.00   0.00   0.00    -0.00  -0.00  -0.00
  18   1    -0.08   0.20   0.54    -0.00  -0.00   0.00     0.00   0.00   0.00
  19   1     0.44  -0.64  -0.06     0.00  -0.00   0.00    -0.00   0.00  -0.00
  20   1     0.00  -0.00  -0.00     0.01   0.02  -0.00     0.48   0.84  -0.08
  21   1     0.00   0.00   0.00    -0.00   0.00   0.00    -0.02   0.02   0.01
  22   1    -0.00  -0.00  -0.00     0.03   0.01   0.01     0.00   0.00   0.00
  23   1    -0.00  -0.00   0.00     0.37   0.87  -0.22    -0.01  -0.02   0.01
  24   1     0.00  -0.00   0.00    -0.01  -0.00  -0.00     0.01   0.00   0.00
                     64                     65                     66
                        a                      a                      a 
 Frequencies --  3469.4480              3471.0094              3484.7791
 Red. masses --     1.8733                 1.8787                 1.8783
 Frc consts  --     0.0000                 0.0000                 0.0000
 IR Inten    --   171.5348                61.6311                98.9760
 Raman Activ --     0.0000                 0.0000                 0.0000
 Depolar     --     0.0000                 0.0000                 0.0000
 Atom AN      X      Y      Z        X      Y      Z        X      Y      Z
   1   6     0.00   0.00  -0.00    -0.00  -0.00  -0.00    -0.00  -0.00  -0.00
   2   6    -0.00   0.00   0.00     0.00  -0.00  -0.00     0.00  -0.00  -0.00
   3   1    -0.00  -0.00  -0.00     0.00  -0.00   0.00     0.00   0.00   0.01
   4   6    -0.00   0.00  -0.00    -0.00   0.00  -0.00    -0.00   0.00   0.00
   5   1    -0.00   0.00   0.00     0.00   0.00   0.00    -0.00  -0.00   0.00
   6   6    -0.00  -0.00   0.00    -0.00  -0.00   0.00    -0.00  -0.00  -0.00
   7   1     0.00  -0.00  -0.00     0.00   0.00   0.00    -0.00  -0.00   0.00
   8   6    -0.00   0.00  -0.00     0.00  -0.00   0.00    -0.00   0.00   0.00
   9   1     0.00  -0.00   0.00    -0.00   0.00  -0.00    -0.00  -0.00   0.00
  10   6    -0.00  -0.00   0.00    -0.00   0.00   0.00     0.00   0.00  -0.00
  11   1     0.00   0.00  -0.00     0.00  -0.00  -0.00    -0.00  -0.00   0.00
  12   8     0.00   0.00   0.00    -0.00  -0.00  -0.00     0.00  -0.00   0.00
  13   8    -0.00  -0.00   0.00     0.00   0.01  -0.00     0.00   0.00  -0.00
  14   8    -0.09   0.12   0.03     0.11  -0.15  -0.03    -0.00   0.00   0.00
  15   8    -0.18  -0.03  -0.05    -0.14  -0.02  -0.04    -0.00  -0.00  -0.00
  16   8     0.00   0.01  -0.00     0.00   0.00  -0.00    -0.00  -0.00   0.00
  17   8     0.00   0.00   0.00     0.00   0.00   0.00    -0.22  -0.06  -0.09
  18   1    -0.00  -0.00   0.00    -0.00   0.00   0.00     0.00  -0.00  -0.00
  19   1     0.00  -0.00   0.00     0.00  -0.00   0.00    -0.00   0.00   0.00
  20   1     0.01   0.01  -0.00    -0.01  -0.02   0.00    -0.00  -0.01   0.00
  21   1     0.36  -0.47  -0.10    -0.46   0.59   0.12     0.01  -0.01  -0.00
  22   1     0.73   0.12   0.19     0.57   0.09   0.15     0.01   0.00   0.00
  23   1    -0.01  -0.02   0.01    -0.01  -0.02   0.00     0.00   0.01  -0.00
  24   1    -0.02  -0.00  -0.01    -0.00  -0.00  -0.00     0.87   0.25   0.35
