31
 energy: -35.714159047345 gnorm: 0.034111604819 xtb: 6.7.1 (edcfbbe)
C            3.69769724035806        0.37553869064664        0.07626447232434
C            2.22641782861707        0.32934873172438       -0.32528125504456
H            2.15726227344435        0.44160142591611       -1.41792149222844
C            1.43128290038342        1.46859732238075        0.31663246479637
C           -0.05342459555744        1.39525067284503       -0.03987299533644
C           -0.67557763226623        0.04936271263985        0.36264479622019
H           -0.52507688112003       -0.07617532735349        1.44717845631464
C            0.11266328030700       -1.06922019128795       -0.31819643562892
H            0.01848913424955       -0.96407788105395       -1.41101240523487
C            1.59033391733608       -1.01105040209822        0.05470958999052
O           -0.45731838035785       -2.33961519578591        0.07863157239542
C           -2.19969300526937       -0.03194808798619        0.11376684128764
C           -2.96106505626845        0.97282285160155        0.98267323647783
C           -2.59324918705720        0.13486511034150       -1.35568325591402
H            4.15592002994916        1.32816694470593       -0.21170908997033
H            3.80283823533619        0.26636888227768        1.16248579424659
H            4.26654357578342       -0.43086554691775       -0.39948892451821
H            1.54885401921349        1.40876989567249        1.40862559971024
H            1.84626216246136        2.43460700119249        0.00281134146858
H           -0.59213731486050        2.21274042917814        0.45014104926387
H           -0.16805685399836        1.54168530368103       -1.12211260031329
H            1.68392587816225       -1.16175162656631        1.14016255429197
H            2.12188850727936       -1.83559214325601       -0.43962627656984
H            0.08911211459368       -3.02963139101170       -0.32020127106449
H           -2.51471746380900       -1.03350802632266        0.43093066670528
H           -4.03914502033996        0.78677899337519        0.92705031925286
H           -2.78964761198145        2.00347025271424        0.65337134797068
H           -2.66055926354697        0.89939197836197        2.03426866212689
H           -2.34368229948700        1.13587122561333       -1.72465549085562
H           -3.67447204435281        0.00215242745445       -1.47243874175450
H           -2.09960065433201       -0.59789002228690       -2.00251251251977
31
 energy: -35.715512456141 gnorm: 0.014742870181 xtb: 6.7.1 (edcfbbe)
C            3.68612554538412        0.37513937533309        0.07713263580573
C            2.21713571270100        0.32943912258511       -0.32965478180958
H            2.15013195700793        0.43983905731361       -1.42004360628335
C            1.42931608733273        1.46515344808970        0.32340906110335
C           -0.04879002023527        1.39911900402735       -0.04771609695752
C           -0.66777103894440        0.05988773236828        0.36532632535299
H           -0.52442496540777       -0.07003218297511        1.44680702576302
C            0.10911361891605       -1.06885581521433       -0.31906126181247
H            0.01391692204719       -0.96945168681883       -1.41138376404920
C            1.58785059941055       -1.00834777612671        0.06098869224285
O           -0.46090884341020       -2.32385382537622        0.07685644716657
C           -2.18808825532296       -0.03301649570093        0.11153855648691
C           -2.95450394167599        0.96770368350262        0.97666807835668
C           -2.58874412506082        0.14387581423064       -1.35147191339111
H            4.13612948890400        1.32371288183554       -0.21336487251170
H            3.78985838205832        0.26644781431603        1.15707512296037
H            4.24637967705657       -0.42778059233500       -0.40063721903585
H            1.53894617707320        1.40194244025318        1.41126224017844
H            1.84124854389039        2.42668326130666        0.00567869569351
H           -0.57971948014091        2.21344154795967        0.44773029026640
H           -0.15604458095243        1.53541239925455       -1.12784613317036
H            1.67970011099814       -1.15741544414546        1.14199041504099
H            2.12285338305930       -1.82497521576939       -0.43407948474890
H            0.07560094664887       -3.02655463139051       -0.31336050373740
H           -2.48725669842592       -1.04108878619648        0.42202558582533
H           -4.02466687968889        0.77161824032122        0.91777190153014
H           -2.78605265084533        1.99166271098539        0.64493348144344
H           -2.65304043313321        0.88954086093995        2.02081944260889
H           -2.34182152061674        1.14167694615195       -1.71288362320003
H           -3.66445141232560        0.00486734692432       -1.45806432217066
H           -2.09595447343210       -0.58972622525422       -1.98681039705691
31
 energy: -35.715784489845 gnorm: 0.004321269904 xtb: 6.7.1 (edcfbbe)
C            3.68391118136178        0.37563042736679        0.07569055150097
C            2.21335611522900        0.32975358208670       -0.32786677351082
H            2.14449501296331        0.43899321967193       -1.41611442051491
C            1.42861070567041        1.46664084548302        0.32418040572630
C           -0.04756283818964        1.40217841726332       -0.05291072994973
C           -0.66519495370809        0.06627894470445        0.36231576547427
H           -0.52392979407919       -0.06324578552352        1.44166587679032
C            0.10718919653665       -1.07241703012171       -0.31742353175130
H            0.01523552877110       -0.97124898619519       -1.40968951172259
C            1.58807784241836       -1.00836737533171        0.06316740869029
O           -0.46682358185695       -2.31220095162138        0.08003547099838
C           -2.18392083960589       -0.03258540329550        0.10953680354652
C           -2.95400211452649        0.96026225593931        0.97963429856858
C           -2.58364714333224        0.14967806408488       -1.35255560743582
H            4.12815173456269        1.32334698807846       -0.21604963916518
H            3.78376722807197        0.26687125096900        1.15257791492758
H            4.23858384845349       -0.42674989622560       -0.40346388851677
H            1.53115873235776        1.39648125929102        1.40894267953408
H            1.84301344938407        2.42616964206059        0.00940387563514
H           -0.57718381201779        2.21670313401979        0.43961953349931
H           -0.14688650321662        1.52966448737394       -1.13177786984311
H            1.67525617866427       -1.15384798563046        1.14195546611396
H            2.12537147985186       -1.82216688333318       -0.43041187523701
H            0.05886841243368       -3.02872214227877       -0.30056415242780
H           -2.47106452654684       -1.04574681382495        0.41349961532178
H           -4.02004423465225        0.75807603538723        0.91749586459913
H           -2.78604614187864        1.97990127084473        0.64456675845119
H           -2.65065510380306        0.88047143144633        2.02006280182850
H           -2.33740919910951        1.14743609618206       -1.70439359139587
H           -3.65698846724430        0.01013623378149       -1.45280523316133
H           -2.09161956009307       -0.58130932225740       -1.98668824868348
31
 energy: -35.715833008828 gnorm: 0.002124522500 xtb: 6.7.1 (edcfbbe)
C            3.68460397076712        0.37625678302185        0.07410766712859
C            2.21279903388409        0.32961003239343       -0.32794345363472
H            2.14175442966004        0.43802362493854       -1.41619464278872
C            1.42851803383006        1.46659013052017        0.32453475024169
C           -0.04714332960434        1.40235101852007       -0.05728829724580
C           -0.66449206354509        0.06785631835039        0.36147258356365
H           -0.52220014496985       -0.05920948690588        1.44102358136299
C            0.10715825827444       -1.07426470974410       -0.31611287587025
H            0.01777825716936       -0.97171606697910       -1.40926474667893
C            1.58872680652358       -1.00834895415172        0.06534431580043
O           -0.46857761283829       -2.30771350379434        0.08535702935414
C           -2.18293130466269       -0.03359215462855        0.10824042734701
C           -2.95549848106275        0.95474538510463        0.98182787828722
C           -2.58279553308318        0.15458286276573       -1.35387508316246
H            4.12760807270774        1.32440896078785       -0.21846673743767
H            3.78480544928008        0.26751693545588        1.15112688928777
H            4.23841427129810       -0.42630232162669       -0.40592057916117
H            1.52757123060356        1.39435677068084        1.40946578849769
H            1.84517834022101        2.42595370496230        0.01233999218621
H           -0.57841512108389        2.21871996354059        0.43048564523740
H           -0.14231812095469        1.52644604262682       -1.13683579552492
H            1.67459497435592       -1.15227591689373        1.14452465785239
H            2.12650484518529       -1.82238564097265       -0.42727183540929
H            0.05115202204921       -3.03094817898906       -0.29075575403349
H           -2.46749763427584       -1.04853365788747        0.40803305366907
H           -4.02108525010292        0.74969895223306        0.91962301470970
H           -2.78947634683128        1.97567963676078        0.64911597861467
H           -2.65086603225688        0.87246493251035        2.02176705256885
H           -2.33545066129105        1.15383591641420       -1.70097371595346
H           -3.65629850890052        0.01597958956992       -1.45510078049992
H           -2.09005401747650       -0.57372195818841       -1.99074999041807
31
 energy: -35.715866716144 gnorm: 0.001651150014 xtb: 6.7.1 (edcfbbe)
C            3.68607962210585        0.37718407253196        0.07187031570694
C            2.21295444079275        0.32910205605627       -0.32722161585160
H            2.13958232383085        0.43630764120728       -1.41575521003904
C            1.42818320897587        1.46641178796276        0.32446317875595
C           -0.04649984360279        1.40213973419675       -0.06346576901885
C           -0.66465868439803        0.06936816418943        0.35927474139941
H           -0.52144793926928       -0.05339474236966        1.43955933221234
C            0.10762488760340       -1.07658976462663       -0.31340530159232
H            0.02089707592816       -0.97464989206713       -1.40771407699420
C            1.58987285582143       -1.00867859890733        0.06838971965124
O           -0.46927784316400       -2.30487693135004        0.09286608035083
C           -2.18290372818438       -0.03413831025341        0.10613364646097
C           -2.95803331932750        0.94758267068216        0.98541372386065
C           -2.58218054962620        0.16181375470037       -1.35574764392032
H            4.12817162427032        1.32599102412277       -0.22165156781549
H            3.78840444838920        0.26860199112879        1.14926315541196
H            4.23999906582675       -0.42526950856217       -0.40916345073265
H            1.52269713869252        1.39228507310728        1.41011388415823
H            1.84742738652213        2.42616353773280        0.01608380082810
H           -0.58075503231674        2.22167888146684        0.41667823026909
H           -0.13598916085857        1.52159266265114       -1.14442900487666
H            1.67527227342340       -1.15056121002478        1.14834464574706
H            2.12810858852391       -1.82390097962212       -0.42237284364362
H            0.04418021685975       -3.03428203408219       -0.27931950761258
H           -2.46594509656038       -1.05094437729689        0.40019638024335
H           -4.02349897894623        0.73952437213450        0.92375384228589
H           -2.79558294473453        1.97148737368288        0.65807234361610
H           -2.65192681394385        0.86125830079778        2.02515239994767
H           -2.33414613809185        1.16341041351250       -1.69729564510211
H           -3.65606084830036        0.02412455382598       -1.45918227462693
H           -2.08848040337177       -0.56267670613222       -1.99726949118879
31
 energy: -35.715888588861 gnorm: 0.002042688876 xtb: 6.7.1 (edcfbbe)
C            3.68709261648634        0.37826431058152        0.07014305092430
C            2.21345719574100        0.32851735584006       -0.32628949570924
H            2.13864343217785        0.43405183467325       -1.41514776861485
C            1.42750377080341        1.46611858896118        0.32363707081003
C           -0.04555896549152        1.40107225834908       -0.07021010171803
C           -0.66507954069812        0.07032830658706        0.35715564136647
H           -0.52207090285344       -0.04764214780094        1.43832753028963
C            0.10825078852184       -1.07855373313719       -0.31003432597141
H            0.02247218147457       -0.98074935127158       -1.40522874417518
C            1.59071515244297       -1.00867450118422        0.07193717781364
O           -0.46873657269014       -2.30441501424376        0.10157739262830
C           -2.18299114492451       -0.03392536196532        0.10318493527209
C           -2.95999374632013        0.94025614808821        0.98913638482250
C           -2.58190659491600        0.17071233563930       -1.35760505736674
H            4.12821862021449        1.32753102626337       -0.22447934797659
H            3.79242081432173        0.27011681058054        1.14765488405623
H            4.24152463840292       -0.42372497172947       -0.41173888620063
H            1.51790807832084        1.39112455919462        1.40993334832001
H            1.84847481110330        2.42624498475971        0.01822001359979
H           -0.58285447405370        2.22367803369545        0.40199636132080
H           -0.12966630471819        1.51509521142358       -1.15259870322651
H            1.67641850535147       -1.14839432020548        1.15252032895947
H            2.12917407818453       -1.82535520354401       -0.41662213503688
H            0.04039645858363       -3.03708850116108       -0.26921344247354
H           -2.46517807440267       -1.05270800514439        0.39088428528695
H           -4.02531370459332        0.72992876220384        0.92756611474381
H           -2.80104830388333        1.96747188987895        0.66914410064912
H           -2.65296143745520        0.84828895571610        2.02852989851840
H           -2.33468887471755        1.17486017471797       -1.69330253907661
H           -3.65582431027239        0.03269653349932       -1.46344917472257
H           -2.08673035727082       -0.54906195886999       -2.00399277922212
31
 energy: -35.715902265085 gnorm: 0.001464566301 xtb: 6.7.1 (edcfbbe)
C            3.68704944211300        0.37873405703862        0.06998954866626
C            2.21364305493589        0.32825297786005       -0.32601249972266
H            2.13889127918369        0.43273970541400       -1.41497901305474
C            1.42703725403315        1.46614151711256        0.32263900223192
C           -0.04512576558776        1.40035993303356       -0.07328459321051
C           -0.66525031397324        0.07050440066379        0.35615631994753
H           -0.52302954963203       -0.04547789230110        1.43760994824854
C            0.10854643724500       -1.07928479207935       -0.30829584083072
H            0.02199785986035       -0.98510667090799       -1.40358247302067
C            1.59090039632252       -1.00858932261759        0.07345277078042
O           -0.46779581823781       -2.30540789850479        0.10622166007767
C           -2.18300600941293       -0.03365271876360        0.10162143413788
C           -2.96032188249580        0.93712847949454        0.99076536474271
C           -2.58179243127841        0.17539608345827       -1.35829511732651
H            4.12763573272761        1.32811295536684       -0.22502533131709
H            3.79332595249739        0.27089072040249        1.14739879224040
H            4.24183255047758       -0.42293956806949       -0.41199651222465
H            1.51610567438183        1.39145989658879        1.40904677032799
H            1.84821918134507        2.42624577351396        0.01755929132595
H           -0.58351737740850        2.22399321835990        0.39577525379403
H           -0.12738752596616        1.51145978148711       -1.15610396593637
H            1.67675346149771       -1.14717204951669        1.15416349450854
H            2.12948589078104       -1.82583337951545       -0.41403933576525
H            0.04063442327418       -3.03786758188001       -0.26567053902012
H           -2.46485313866483       -1.05347386805322        0.38615235477467
H           -4.02553873225795        0.72662921959865        0.92854338755943
H           -2.80196579271145        1.96557527462803        0.67463027982494
H           -2.65332744467391        0.84171445322504        2.02983020666720
H           -2.33624816892493        1.18096547551823       -1.69078563643021
H           -3.65543585128260        0.03602583195325       -1.46489033892945
H           -2.08539495529782       -0.54145900211267       -2.00695866517651
31
 energy: -35.715926981086 gnorm: 0.000862911481 xtb: 6.7.1 (edcfbbe)
C            3.68659218371151        0.37960710331340        0.07070960046463
C            2.21389641160655        0.32771253363547       -0.32592583446645
H            2.14005841852577        0.42975053952564       -1.41507386025800
C            1.42597577988656        1.46651548620245        0.31950567533410
C           -0.04459479057010        1.39878838107946       -0.07973554434812
C           -0.66529851108046        0.07059210885582        0.35438062879880
H           -0.52485761545970       -0.04158473579642        1.43625810525036
C            0.10898353628630       -1.08091900730395       -0.30481376107218
H            0.01987831648810       -0.99506702608138       -1.40003956094634
C            1.59107508648983       -1.00839892239291        0.07608489156324
O           -0.46546337333165       -2.30790578277240        0.11665946284167
C           -2.18277958243273       -0.03330062723082        0.09842470831914
C           -2.96032787722826        0.93082180004062        0.99420870424345
C           -2.58166549068479        0.18531412531696       -1.35959907919832
H            4.12617101450841        1.32917092314680       -0.22463409099177
H            3.79306926461908        0.27238813941390        1.14791927853125
H            4.24228875149578       -0.42150870355631       -0.41082664804188
H            1.51295928444916        1.39347391053365        1.40599126092652
H            1.84717705618019        2.42619922775858        0.01358846552702
H           -0.58479427037788        2.22414860641069        0.38369696034249
H           -0.12385193948203        1.50364572922002       -1.16319398722786
H            1.67696398981578       -1.14450821370796        1.15692545603601
H            2.13011099211279       -1.82643587353636       -0.40934635711107
H            0.04221204726284       -3.03904690750118       -0.25891851022211
H           -2.46363903121576       -1.05535567866699        0.37624557126112
H           -4.02541147479046        0.72145568877206        0.92930037656344
H           -2.80107567643110        1.96139350623848        0.68635439551823
H           -2.65437658626758        0.82713336731568        2.03256839758267
H           -2.34152477480685        1.19462367723445       -1.68392421549056
H           -3.65437771381486        0.04111492685255       -1.46762326349493
H           -2.08130559259454       -0.52375329192425       -2.01353120834390
31
 energy: -35.715946106150 gnorm: 0.001207969512 xtb: 6.7.1 (edcfbbe)
C            3.68622816380464        0.38017051189312        0.07186808911760
C            2.21402775976408        0.32708775744551       -0.32645397403209
H            2.14133937718324        0.42659883992083       -1.41582214502860
C            1.42533553831956        1.46722972700244        0.31565057437289
C           -0.04442825989450        1.39753121384830       -0.08559298190906
C           -0.66523987596572        0.07077170497992        0.35265945203859
H           -0.52576686935917       -0.03815281720598        1.43481445681450
C            0.10930700764842       -1.08283908901293       -0.30190530583185
H            0.01845889258127       -1.00313477054699       -1.39714302444149
C            1.59143773203350       -1.00842188810041        0.07812997906301
O           -0.46371591755230       -2.30914812938416        0.12599416845196
C           -2.18257652360079       -0.03354892654813        0.09600123663958
C           -2.96071898708790        0.92471360400040        0.99756017325589
C           -2.58135668897795        0.19431245625909       -1.36061507537877
H            4.12522492928838        1.32979910311904       -0.22369814021202
H            3.79134536624831        0.27381361198222        1.14915481993754
H            4.24282546018168       -0.42085913340189       -0.40849870626478
H            1.51088472192288        1.39659772094378        1.40224828450434
H            1.84652028591354        2.42623338154733        0.00785108035591
H           -0.58584618403964        2.22435798054332        0.37349615338626
H           -0.12174721225341        1.49728671351475       -1.16947681909043
H            1.67706191575838       -1.14214669192828        1.15916130411050
H            2.13100590946166       -1.82705051626768       -0.40549332885289
H            0.04266146293534       -3.04040733289176       -0.25153391698964
H           -2.46229212794763       -1.05761805982101        0.36762257590243
H           -4.02584317982310        0.71739956504153        0.92887171746684
H           -2.79899144724303        1.95719105254840        0.69781454765027
H           -2.65681071180177        0.81249113313860        2.03550113595028
H           -2.34750512122796        1.20779873750225       -1.67617766433078
H           -3.65294713090106        0.04405199833729       -1.47050370953992
H           -2.07581045249907       -0.50604444806313       -2.01984893922538
31
 energy: -35.715965642836 gnorm: 0.001177350035 xtb: 6.7.1 (edcfbbe)
C            3.68609005003758        0.38041194135571        0.07338523330395
C            2.21435984497103        0.32627022510008       -0.32726226919452
H            2.14323157562482        0.42312311368281       -1.41691912463860
C            1.42491290770906        1.46800798600141        0.31099120773664
C           -0.04467263348335        1.39648318360186       -0.09072915425145
C           -0.66506578624954        0.07093922990233        0.35153512955518
H           -0.52592635453596       -0.03517908725063        1.43396875077969
C            0.10943212751354       -1.08467655888503       -0.29957740494026
H            0.01764109846267       -1.00931583273101       -1.39495682215662
C            1.59170965025862       -1.00847437947513        0.07976004677867
O           -0.46259157992756       -2.30959136970796        0.13363247145331
C           -2.18224459827956       -0.03377531368134        0.09398137598761
C           -2.96122773856832        0.91890828355275        1.00080229500159
C           -2.58115402834352        0.20219552134463       -1.36140473065894
H            4.12512003563155        1.32986421579380       -0.22252978120736
H            3.78891862865034        0.27543120221959        1.15098698043903
H            4.24372410284357       -0.42105714145803       -0.40492491994223
H            1.51004969457443        1.40090298601384        1.39777397031899
H            1.84578967151233        2.42612147259502        0.00008831601683
H           -0.58664971392874        2.22451002122122        0.36541334046229
H           -0.12132610680711        1.49252663705596       -1.17489290947322
H            1.67718415907072       -1.14000900285188        1.16102720448895
H            2.13164371092602       -1.82773953786538       -0.40224648106898
H            0.04256066643136       -3.04176592660669       -0.24401030634161
H           -2.46095835410068       -1.05950946177623        0.36000627946187
H           -4.02657001270790        0.71466189325228        0.92690807897752
H           -2.79579240606708        1.95328060049713        0.70975780581372
H           -2.66088117479868        0.79758470204807        2.03874061914675
H           -2.35479518539006        1.22007196780703       -1.66810092590921
H           -3.65139383055525        0.04445880147518       -1.47389849933750
H           -2.06905058760443       -0.48859536183563       -2.02566975871139
31
 energy: -35.715990377666 gnorm: 0.000814376700 xtb: 6.7.1 (edcfbbe)
C            3.68583846784795        0.38033205671174        0.07553904140363
C            2.21487571386765        0.32502058657958       -0.32860475864605
H            2.14609734070634        0.41830865195854       -1.41874233135394
C            1.42498675629245        1.46930748453837        0.30451850751943
C           -0.04480774749962        1.39546692789604       -0.09658060090369
C           -0.66507842706556        0.07139947121630        0.34979429250858
H           -0.52605351373856       -0.03151014205366        1.43251673712926
C            0.10965577549490       -1.08663702383535       -0.29714537433292
H            0.01755525599702       -1.01511280684225       -1.39282480667390
C            1.59212322990961       -1.00867593002697        0.08169967790506
O           -0.46178964309486       -2.30937567905542        0.14125532306318
C           -2.18217211152505       -0.03432682696766        0.09207776560532
C           -2.96244241249577        0.91171950097373        1.00478678808589
C           -2.58071592312126        0.21133980933753       -1.36194923285314
H            4.12547673678993        1.32916529053320       -0.22148491341991
H            3.78568692733873        0.27792708375816        1.15373288289427
H            4.24474438026269       -0.42227364434182       -0.39937998959506
H            1.51032235760836        1.40745037477104        1.39163992701924
H            1.84542342995378        2.42613193048338       -0.01112558044073
H           -0.58696944517110        2.22485071405544        0.35698462299303
H           -0.12183675134129        1.48796662782576       -1.18100704414741
H            1.67734983358369       -1.13744217096600        1.16336092726498
H            2.13228690012734       -1.82909028098102       -0.39813706023078
H            0.04213978634155       -3.04348247542255       -0.23434028711472
H           -2.45963199813385       -1.06205099577865        0.35152719196360
H           -4.02822127433606        0.71247938103994        0.92301289324291
H           -2.79119582202999        1.94861736971738        0.72584027703439
H           -2.66801941858042        0.77801710750347        2.04299097854643
H           -2.36548248724767        1.23490062185898       -1.65794201639435
H           -3.64889694564112        0.04237648426609       -1.47826477440860
H           -2.05918113822990       -0.46673448835752       -2.03211304577327
31
 energy: -35.716018708836 gnorm: 0.000619636825 xtb: 6.7.1 (edcfbbe)
C            3.68594524305964        0.37998694329041        0.07783334578453
C            2.21587765459176        0.32313201340564       -0.32993693275172
H            2.14989890528985        0.41158868950508       -1.42067391294024
C            1.42486650636200        1.47056920227856        0.29607329364002
C           -0.04526342778483        1.39462327789948       -0.10391149899029
C           -0.66477541151543        0.07230595012209        0.34841543407582
H           -0.52573814599680       -0.02642881627293        1.43162985690489
C            0.10976699486373       -1.08867518879328       -0.29409711298429
H            0.01808303648232       -1.02117461896067       -1.39032632830247
C            1.59227051843777       -1.00874288712459        0.08469846585759
O           -0.46158679572809       -2.30872762986600        0.14958791029083
C           -2.18157204166635       -0.03426762797985        0.08929484951376
C           -2.96402794625554        0.90215267757130        1.01006444237532
C           -2.58044577942865        0.22256017196321       -1.36283022892618
H            4.12670778424440        1.32761165118175       -0.22161420485799
H            3.78234620849623        0.28197278870652        1.15683105987742
H            4.24628354370195       -0.42473468965418       -0.39195812979178
H            1.51084528824077        1.41585120611873        1.38361679332262
H            1.84483044537358        2.42555094794659       -0.02590732393808
H           -0.58741659877957        2.22590190376004        0.34660264865226
H           -0.12298520662098        1.48301339011402       -1.18876945502414
H            1.67716369143599       -1.13371844664132        1.16690283666586
H            2.13253585511931       -1.83094715052433       -0.39205350786092
H            0.04143554524286       -3.04552561689534       -0.22181028513022
H           -2.45720056737862       -1.06448593431169        0.34044110549101
H           -4.03031278887226        0.70996011077963        0.91682332594638
H           -2.78484981601199        1.94236676158922        0.74814747678090
H           -2.67867440416527        0.75135226353209        2.04870943335676
H           -2.38035046051044        1.25319265502915       -1.64518985131323
H           -3.64562514614337        0.03835811331931       -1.48491253576086
H           -2.04596485121402       -0.43855710069283       -2.04004495207282
31
 energy: -35.716042219777 gnorm: 0.000854732401 xtb: 6.7.1 (edcfbbe)