      -----------------------------------------------------------      
     |                   =====================                   |     
     |                           x T B                           |     
     |                   =====================                   |     
     |                         S. Grimme                         |     
     |          Mulliken Center for Theoretical Chemistry        |     
     |                    University of Bonn                     |     
      -----------------------------------------------------------      

   * xtb version 6.7.1 (edcfbbe) compiled by 'albert@albert-system' on 2024-07-22

   xtb is free software: you can redistribute it and/or modify it under
   the terms of the GNU Lesser General Public License as published by
   the Free Software Foundation, either version 3 of the License, or
   (at your option) any later version.
   
   xtb is distributed in the hope that it will be useful,
   but WITHOUT ANY WARRANTY; without even the implied warranty of
   MERCHANTABILITY or FITNESS FOR A PARTICULAR PURPOSE.  See the
   GNU Lesser General Public License for more details.
   
   Cite this work as:
   * C. Bannwarth, E. Caldeweyher, S. Ehlert, A. Hansen, P. Pracht,
     J. Seibert, S. Spicher, S. Grimme, WIREs Comput. Mol. Sci., 2020, 11,
     e01493. DOI: 10.1002/wcms.1493
   
   for GFN2-xTB:
   * C. Bannwarth, S. Ehlert and S. Grimme., J. Chem. Theory Comput., 2019,
     15, 1652-1671. DOI: 10.1021/acs.jctc.8b01176
   for GFN1-xTB:
   * S. Grimme, C. Bannwarth, P. Shushkov, J. Chem. Theory Comput., 2017,
     13, 1989-2009. DOI: 10.1021/acs.jctc.7b00118
   for GFN0-xTB:
   * P. Pracht, E. Caldeweyher, S. Ehlert, S. Grimme, ChemRxiv, 2019, preprint.
     DOI: 10.26434/chemrxiv.8326202.v1
   for GFN-FF:
   * S. Spicher and S. Grimme, Angew. Chem. Int. Ed., 2020, 59, 15665-15673.
     DOI: 10.1002/anie.202004239
   
   for ALPB and GBSA implicit solvation:
   * S. Ehlert, M. Stahn, S. Spicher, S. Grimme, J. Chem. Theory Comput.,
     2021, 17, 4250-4261. DOI: 10.1021/acs.jctc.1c00471
   
   for ddCOSMO and CPCM-X implicit solvation:
   * M. Stahn, S. Ehlert, S. Grimme, J. Phys. Chem. A,
     2023, XX, XXXX-XXXX. DOI: 10.1021/acs.jpca.3c04382
   
   for DFT-D4:
   * E. Caldeweyher, C. Bannwarth and S. Grimme, J. Chem. Phys., 2017,
     147, 034112. DOI: 10.1063/1.4993215
   * E. Caldeweyher, S. Ehlert, A. Hansen, H. Neugebauer, S. Spicher,
     C. Bannwarth and S. Grimme, J. Chem. Phys., 2019, 150, 154122.
     DOI: 10.1063/1.5090222
   * E. Caldeweyher, J.-M. Mewes, S. Ehlert and S. Grimme, Phys. Chem. Chem. Phys.
     2020, 22, 8499-8512. DOI: 10.1039/D0CP00502A
   
   for sTDA-xTB:
   * S. Grimme and C. Bannwarth, J. Chem. Phys., 2016, 145, 054103.
     DOI: 10.1063/1.4959605
   
   in the mass-spec context:
   * V. Asgeirsson, C. Bauer and S. Grimme, Chem. Sci., 2017, 8, 4879.
     DOI: 10.1039/c7sc00601b
   * J. Koopman and S. Grimme, ACS Omega 2019, 4, 12, 15120-15133.
     DOI: 10.1021/acsomega.9b02011
   
   for metadynamics refer to:
   * S. Grimme, J. Chem. Theory Comput., 2019, 155, 2847-2862
     DOI: 10.1021/acs.jctc.9b00143
   
   for SPH calculations refer to:
   * S. Spicher and S. Grimme, J. Chem. Theory Comput., 2021, 17, 1701-1714
     DOI: 10.1021/acs.jctc.0c01306
   
   for ONIOM refer to:
   * C. Plett, A. Katbashev, S. Ehlert, S. Grimme, M. Bursch,
     Phys. Chem. Chem. Phys., 2023, 25, 17860-17868. DOI: 10.1039/D3CP02178E
   
   for DIPRO refer to:
   * J. Kohn, N. Gildemeister, S. Grimme, D. Fazzi, A. Hansen,
     J. Chem. Phys., 2023, just accepted.
   
   for PTB refer to:
   * S. Grimme, M. Mueller, A. Hansen, J. Chem. Phys., 2023, 158, 124111.
     DOI: 10.1063/5.0137838
   
   with help from (in alphabetical order)
   P. Atkinson, C. Bannwarth, F. Bohle, G. Brandenburg, E. Caldeweyher
   M. Checinski, S. Dohm, S. Ehlert, S. Ehrlich, I. Gerasimov, C. Hölzer
   A. Katbashev, J. Kohn, J. Koopman, C. Lavigne, S. Lehtola, F. März, M. Müller,
   F. Musil, H. Neugebauer, J. Pisarek, C. Plett, P. Pracht, F. Pultar,
   J. Seibert, P. Shushkov, S. Spicher, M. Stahn, M. Steiner, T. Strunk,
   J. Stückrath, T. Rose, and J. Unsleber
   
 * started run on 2025/04/04 at 20:25:47.156     
   ID    Z sym.   atoms
    1    6 C      1-3, 5
    2    1 H      4, 7-15
    3    8 O      6

           -------------------------------------------------
          |                Calculation Setup                |
           -------------------------------------------------

          program call               : /srv/scratch/z5358697/.xtb/bin/xtb xtb_rrho.coord --gfn2 --ohess vtight --chrg 0 --enso --norestart -I rrho-xcontrol-inp --parallel 1 --alpb water
          hostname                   : k156
          coordinate file            : xtb_rrho.coord
          omp threads                :                     1


           -------------------------------------------------
          |                 G F N 2 - x T B                 |
           -------------------------------------------------

        Reference                      10.1021/acs.jctc.8b01176
      * Hamiltonian:
        H0-scaling (s, p, d)           1.850000    2.230000    2.230000
        zeta-weighting                 0.500000
      * Dispersion:
        s8                             2.700000
        a1                             0.520000
        a2                             5.000000
        s9                             5.000000
      * Repulsion:
        kExp                           1.500000    1.000000
        rExp                           1.000000
      * Coulomb:
        alpha                          2.000000
        third order                    shell-resolved
        anisotropic                    true
        a3                             3.000000
        a5                             4.000000
        cn-shift                       1.200000
        cn-exp                         4.000000
        max-rad                        5.000000

      * Solvation model:               ALPB
        Solvent                        water
        Parameter file                 internal GFN2-xTB/ALPB
        Dielectric constant                8.0200E+01
        Reference state                gsolv [1 M gas/solution]
        Free energy shift                  1.0808E-03 Eh       6.7819E-01 kcal/mol
        Temperature                        2.9815E+02 K
        Density                            1.0000E+00 kg/L
        Solvent mass                       1.8000E+01 g/mol
        Interaction kernel             P16
        Born radius scaling (c1)           1.4744E+00
        Born radii integrator          GBOBC
        Born offset                        0.0000E+00 a0       0.0000E+00 AA
        H-bond correction              true
        Ion screening                  false
        Surface tension                    1.0000E-05 Eh       1.5569E+01 dyn/cm
        Grid points                               974 per atom

          ...................................................
          :                      SETUP                      :
          :.................................................:
          :  # basis functions                  30          :
          :  # atomic orbitals                  30          :
          :  # shells                           20          :
          :  # electrons                        32          :
          :  max. iterations                   250          :
          :  Hamiltonian                  GFN2-xTB          :
          :  restarted?                      false          :
          :  GBSA solvation                   true          :
          :  PC potential                    false          :
          :  electronic temp.          300.0000000     K    :
          :  accuracy                    1.0000000          :
          :  -> integral cutoff          0.2500000E+02      :
          :  -> integral neglect         0.1000000E-07      :
          :  -> SCF convergence          0.1000000E-05 Eh   :
          :  -> wf. convergence          0.1000000E-03 e    :
          :  Broyden damping             0.4000000          :
          :  net charge                          0          :
          :  unpaired electrons                  0          :
          ...................................................

 iter      E             dE          RMSdq      gap      omega  full diag
   1    -17.9112482 -0.179112E+02  0.320E+00   11.77       0.0  T
   2    -17.9381628 -0.269147E-01  0.167E+00   11.47       1.0  T
   3    -17.9388989 -0.736018E-03  0.628E-01   11.48       1.0  T
   4    -17.9391393 -0.240425E-03  0.140E-01   11.46       1.0  T
   5    -17.9391939 -0.545837E-04  0.700E-02   11.48       1.0  T
   6    -17.9391961 -0.223307E-05  0.112E-02   11.49       2.3  T
   7    -17.9391963 -0.212486E-06  0.405E-03   11.49       6.4  T
   8    -17.9391964 -0.309441E-07  0.194E-03   11.49      13.3  T
   9    -17.9391964 -0.412560E-08  0.408E-04   11.49      63.3  T
  10    -17.9391964 -0.482011E-09  0.148E-04   11.49     174.5  T

   *** convergence criteria satisfied after 10 iterations ***

         #    Occupation            Energy/Eh            Energy/eV
      -------------------------------------------------------------
         1        2.0000           -0.6813359             -18.5401
       ...           ...                  ...                  ...
        10        2.0000           -0.4739047             -12.8956
        11        2.0000           -0.4648912             -12.6503
        12        2.0000           -0.4559030             -12.4058
        13        2.0000           -0.4516337             -12.2896
        14        2.0000           -0.4330370             -11.7835
        15        2.0000           -0.4267830             -11.6134
        16        2.0000           -0.4072231             -11.0811 (HOMO)
        17                          0.0149135               0.4058 (LUMO)
        18                          0.0932184               2.5366
        19                          0.1166788               3.1750
        20                          0.1243820               3.3846
        21                          0.1349682               3.6727
       ...                                ...                  ...
        30                          0.2897410               7.8843
      -------------------------------------------------------------
                  HL-Gap            0.4221366 Eh           11.4869 eV
             Fermi-level           -0.1961548 Eh           -5.3376 eV

 SCC (total)                   0 d,  0 h,  0 min,  0.008 sec
 SCC setup                      ...        0 min,  0.001 sec (  9.504%)
 Dispersion                     ...        0 min,  0.000 sec (  0.758%)
 classical contributions        ...        0 min,  0.000 sec (  0.193%)
 integral evaluation            ...        0 min,  0.001 sec (  9.644%)
 iterations                     ...        0 min,  0.004 sec ( 53.264%)
 molecular gradient             ...        0 min,  0.002 sec ( 25.074%)
 printout                       ...        0 min,  0.000 sec (  1.385%)

         :::::::::::::::::::::::::::::::::::::::::::::::::::::
         ::                     SUMMARY                     ::
         :::::::::::::::::::::::::::::::::::::::::::::::::::::
         :: total energy             -17.731079605189 Eh    ::
         :: total w/o Gsasa/hb       -17.727315386861 Eh    ::
         :: gradient norm              0.027826225475 Eh/a0 ::
         :: HOMO-LUMO gap             11.486922591210 eV    ::
         ::.................................................::
         :: SCC energy               -17.939184149958 Eh    ::
         :: -> isotropic ES            0.037815077977 Eh    ::
         :: -> anisotropic ES          0.003469427640 Eh    ::
         :: -> anisotropic XC          0.006746189933 Eh    ::
         :: -> dispersion             -0.007327216983 Eh    ::
         :: -> Gsolv                  -0.008499612882 Eh    ::
         ::    -> Gelec               -0.004735394554 Eh    ::
         ::    -> Gsasa                0.000550525447 Eh    ::
         ::    -> Ghb                 -0.005395503473 Eh    ::
         ::    -> Gshift               0.001080759698 Eh    ::
         :: repulsion energy           0.208104544769 Eh    ::
         :: add. restraining           0.000000000000 Eh    ::
         :: total charge              -0.000000000000 e     ::
         :::::::::::::::::::::::::::::::::::::::::::::::::::::

      ----------------------------------------------------------- 
     |                   =====================                   |
     |                        A N C O P T                        |
     |                   =====================                   |
     |               Approximate Normal Coordinate               |
     |                Rational Function Optimizer                |
      ----------------------------------------------------------- 
      ----------------------------------------------------------- 
     |                   =====================                   |
     |                        A N C O P T                        |
     |                   =====================                   |
     |               Approximate Normal Coordinate               |
     |                Rational Function Optimizer                |
      ----------------------------------------------------------- 

          ...................................................
          :                      SETUP                      :
          :.................................................:
          :   optimization level         verytight          :
          :   max. optcycles                   300          :
          :   ANC micro-cycles                  20          :
          :   degrees of freedom                39          :
          :.................................................:
          :   RF solver                   davidson          :
          :   write xtbopt.log                true          :
          :   linear?                        false          :
          :   energy convergence         0.1000000E-06 Eh   :
          :   grad. convergence          0.2000000E-03 Eh/α :
          :   maxmium RF displ.          1.0000000          :
          :   Hlow (freq-cutoff)         0.1000000E-01      :
          :   Hmax (freq-cutoff)         5.0000000          :
          :   S6 in model hess.         20.0000000          :
          ...................................................

generating ANC from exact Hessian ...
Using Lindh-Hessian (1995)
 Shifting diagonal of input Hessian by   6.250650359677162E-003
 Lowest  eigenvalues of input Hessian
    0.000000    0.000000    0.000000    0.000000    0.000000    0.000000
    0.010000    0.013032    0.014276    0.017213    0.024028    0.025406
    0.035900    0.047547    0.051797    0.058493    0.061124    0.064285
 Highest eigenvalues
    1.131300    1.147849    1.195103    1.253572    1.304280    1.401672
 

........................................................................
.............................. CYCLE    1 ..............................
........................................................................

 iter      E             dE          RMSdq      gap      omega  full diag
   1    -17.9391964 -0.179392E+02  0.269E-05   11.49       0.0  T
   2    -17.9391964 -0.345324E-11  0.128E-05   11.49    2009.9  T
   3    -17.9391964 -0.252243E-12  0.734E-06   11.49    3516.2  T
     SCC iter.                  ...        0 min,  0.001 sec
     gradient                   ...        0 min,  0.002 sec
 * total energy  :   -17.7310796 Eh     change       -0.3191758E-10 Eh
   gradient norm :     0.0278265 Eh/α   predicted     0.0000000E+00 (-100.00%)
   displ. norm   :     0.0707944 α      lambda       -0.1032284E-02
   maximum displ.:     0.0312964 α      in ANC's #5, #26, #1, ...

........................................................................
.............................. CYCLE    2 ..............................
........................................................................

 iter      E             dE          RMSdq      gap      omega  full diag
   1    -17.9458262 -0.179458E+02  0.772E-02   11.78       0.0  T
   2    -17.9458338 -0.764485E-05  0.436E-02   11.78       1.0  T
   3    -17.9458341 -0.292329E-06  0.145E-02   11.79       1.8  T
   4    -17.9458344 -0.342358E-06  0.291E-03   11.79       8.9  T
   5    -17.9458344 -0.163647E-07  0.170E-03   11.79      15.2  T
   6    -17.9458344 -0.267486E-08  0.403E-04   11.79      64.1  T
   7    -17.9458344 -0.261835E-09  0.126E-04   11.79     205.7  T
     SCC iter.                  ...        0 min,  0.001 sec
     gradient                   ...        0 min,  0.002 sec
 * total energy  :   -17.7317784 Eh     change       -0.6987614E-03 Eh
   gradient norm :     0.0132705 Eh/α   predicted    -0.5187300E-03 ( -25.76%)
   displ. norm   :     0.0615629 α      lambda       -0.3131671E-03
   maximum displ.:     0.0342489 α      in ANC's #5, #1, #7, ...

........................................................................
.............................. CYCLE    3 ..............................
........................................................................

 iter      E             dE          RMSdq      gap      omega  full diag
   1    -17.9486065 -0.179486E+02  0.464E-02   12.02       0.0  T
   2    -17.9486109 -0.439386E-05  0.271E-02   12.02       1.0  T
   3    -17.9486111 -0.197787E-06  0.113E-02   12.02       2.3  T
   4    -17.9486112 -0.153645E-06  0.201E-03   12.02      12.8  T
   5    -17.9486112 -0.109972E-07  0.101E-03   12.02      25.4  T
   6    -17.9486112 -0.140258E-08  0.400E-04   12.02      64.6  T
   7    -17.9486112 -0.209834E-09  0.849E-05   12.02     304.0  T
     SCC iter.                  ...        0 min,  0.001 sec
     gradient                   ...        0 min,  0.002 sec
 * total energy  :   -17.7319589 Eh     change       -0.1805447E-03 Eh
   gradient norm :     0.0034884 Eh/α   predicted    -0.1571777E-03 ( -12.94%)
   displ. norm   :     0.0392765 α      lambda       -0.3841510E-04
   maximum displ.:     0.0290431 α      in ANC's #1, #3, #5, ...

........................................................................
.............................. CYCLE    4 ..............................
........................................................................

 iter      E             dE          RMSdq      gap      omega  full diag
   1    -17.9482068 -0.179482E+02  0.194E-02   12.08       0.0  T
   2    -17.9482070 -0.269784E-06  0.117E-02   12.08       2.2  T
   3    -17.9482070 -0.167030E-08  0.302E-03   12.08       8.6  T
   4    -17.9482071 -0.345973E-07  0.647E-04   12.08      39.9  T
   5    -17.9482071 -0.776534E-09  0.275E-04   12.08      93.8  T
     SCC iter.                  ...        0 min,  0.001 sec
     gradient                   ...        0 min,  0.002 sec
 * total energy  :   -17.7319863 Eh     change       -0.2738966E-04 Eh
   gradient norm :     0.0014583 Eh/α   predicted    -0.1923793E-04 ( -29.76%)
   displ. norm   :     0.0774069 α      lambda       -0.2220200E-04
   maximum displ.:     0.0613496 α      in ANC's #1, #3, #5, ...

........................................................................
.............................. CYCLE    5 ..............................
........................................................................

 iter      E             dE          RMSdq      gap      omega  full diag
   1    -17.9471725 -0.179472E+02  0.311E-02   12.11       0.0  T
   2    -17.9471727 -0.255589E-06  0.186E-02   12.11       1.4  T
   3    -17.9471727  0.232163E-08  0.271E-03   12.11       9.5  T
   4    -17.9471728 -0.468611E-07  0.800E-04   12.11      32.3  T
   5    -17.9471728 -0.641286E-09  0.345E-04   12.11      74.9  T
     SCC iter.                  ...        0 min,  0.001 sec
     gradient                   ...        0 min,  0.002 sec
 * total energy  :   -17.7320039 Eh     change       -0.1762505E-04 Eh
   gradient norm :     0.0020573 Eh/α   predicted    -0.1112991E-04 ( -36.85%)
   displ. norm   :     0.0255796 α      lambda       -0.8222961E-05
   maximum displ.:     0.0214470 α      in ANC's #1, #3, #4, ...

........................................................................
.............................. CYCLE    6 ..............................
........................................................................

 iter      E             dE          RMSdq      gap      omega  full diag
   1    -17.9472287 -0.179472E+02  0.755E-03   12.11       0.0  T
   2    -17.9472287 -0.693217E-08  0.453E-03   12.11       5.7  T
   3    -17.9472287 -0.964739E-09  0.331E-04   12.11      78.0  T
   4    -17.9472287 -0.394998E-09  0.148E-04   12.11     175.0  T
     SCC iter.                  ...        0 min,  0.001 sec
     gradient                   ...        0 min,  0.002 sec
 * total energy  :   -17.7320116 Eh     change       -0.7624497E-05 Eh
   gradient norm :     0.0016514 Eh/α   predicted    -0.4112951E-05 ( -46.06%)
   displ. norm   :     0.0857695 α      lambda       -0.1835443E-04
   maximum displ.:     0.0679972 α      in ANC's #1, #3, #4, ...

........................................................................
.............................. CYCLE    7 ..............................
........................................................................

 iter      E             dE          RMSdq      gap      omega  full diag
   1    -17.9476777 -0.179477E+02  0.255E-02   12.07       0.0  T
   2    -17.9476779 -0.113051E-06  0.153E-02   12.07       1.7  T
   3    -17.9476779 -0.450505E-08  0.166E-03   12.07      15.6  T
   4    -17.9476779 -0.171333E-07  0.573E-04   12.07      45.0  T
   5    -17.9476779 -0.491617E-09  0.199E-04   12.07     129.9  T
     SCC iter.                  ...        0 min,  0.001 sec
     gradient                   ...        0 min,  0.002 sec
 * total energy  :   -17.7320307 Eh     change       -0.1914790E-04 Eh
   gradient norm :     0.0007933 Eh/α   predicted    -0.9206717E-05 ( -51.92%)
   displ. norm   :     0.0744989 α      lambda       -0.8058074E-05
   maximum displ.:     0.0597625 α      in ANC's #1, #3, #4, ...

........................................................................
.............................. CYCLE    8 ..............................
........................................................................

 iter      E             dE          RMSdq      gap      omega  full diag
   1    -17.9477162 -0.179477E+02  0.211E-02   12.07       0.0  T
   2    -17.9477163 -0.130916E-07  0.127E-02   12.07       2.0  T
   3    -17.9477163 -0.554008E-08  0.495E-04   12.07      52.2  T
   4    -17.9477163 -0.269118E-09  0.272E-04   12.07      94.8  T
     SCC iter.                  ...        0 min,  0.001 sec
     gradient                   ...        0 min,  0.002 sec
 * total energy  :   -17.7320405 Eh     change       -0.9809674E-05 Eh
   gradient norm :     0.0007973 Eh/α   predicted    -0.4039527E-05 ( -58.82%)
   displ. norm   :     0.0539579 α      lambda       -0.5068885E-05
   maximum displ.:     0.0451539 α      in ANC's #1, #4, #3, ...

........................................................................
.............................. CYCLE    9 ..............................
........................................................................

 iter      E             dE          RMSdq      gap      omega  full diag
   1    -17.9477390 -0.179477E+02  0.162E-02   12.07       0.0  T
   2    -17.9477390 -0.149866E-07  0.973E-03   12.07       2.7  T
   3    -17.9477390 -0.269996E-08  0.460E-04   12.07      56.2  T
   4    -17.9477390 -0.745143E-09  0.229E-04   12.07     112.9  T
     SCC iter.                  ...        0 min,  0.001 sec
     gradient                   ...        0 min,  0.002 sec
 * total energy  :   -17.7320469 Eh     change       -0.6342142E-05 Eh
   gradient norm :     0.0003560 Eh/α   predicted    -0.2536331E-05 ( -60.01%)
   displ. norm   :     0.0440462 α      lambda       -0.3618232E-05
   maximum displ.:     0.0378066 α      in ANC's #1, #4, #2, ...

........................................................................
.............................. CYCLE   10 ..............................
........................................................................

 iter      E             dE          RMSdq      gap      omega  full diag
   1    -17.9477051 -0.179477E+02  0.122E-02   12.08       0.0  T
   2    -17.9477051 -0.591972E-08  0.731E-03   12.08       3.5  T
   3    -17.9477051 -0.138800E-08  0.360E-04   12.08      71.7  T
   4    -17.9477051 -0.706184E-09  0.179E-04   12.08     144.2  T
     SCC iter.                  ...        0 min,  0.001 sec
     gradient                   ...        0 min,  0.002 sec
 * total energy  :   -17.7320516 Eh     change       -0.4716573E-05 Eh
   gradient norm :     0.0002290 Eh/α   predicted    -0.1812770E-05 ( -61.57%)
   displ. norm   :     0.0415583 α      lambda       -0.3314686E-05
   maximum displ.:     0.0352671 α      in ANC's #1, #4, #2, ...

........................................................................
.............................. CYCLE   11 ..............................
........................................................................

 iter      E             dE          RMSdq      gap      omega  full diag
   1    -17.9477111 -0.179477E+02  0.119E-02   12.08       0.0  T
   2    -17.9477111 -0.470541E-08  0.712E-03   12.08       3.6  T
   3    -17.9477111 -0.155770E-08  0.274E-04   12.08      94.4  T
   4    -17.9477111 -0.138364E-09  0.157E-04   12.08     164.1  T
     SCC iter.                  ...        0 min,  0.001 sec
     gradient                   ...        0 min,  0.002 sec
 * total energy  :   -17.7320559 Eh     change       -0.4332340E-05 Eh
   gradient norm :     0.0002871 Eh/α   predicted    -0.1659166E-05 ( -61.70%)
   displ. norm   :     0.0434420 α      lambda       -0.3094938E-05
   maximum displ.:     0.0361200 α      in ANC's #1, #4, #2, ...

........................................................................
.............................. CYCLE   12 ..............................
........................................................................

 iter      E             dE          RMSdq      gap      omega  full diag
   1    -17.9477174 -0.179477E+02  0.119E-02   12.08       0.0  T
   2    -17.9477174 -0.339369E-08  0.716E-03   12.08       3.6  T
   3    -17.9477174 -0.152025E-08  0.239E-04   12.08     108.0  T
   4    -17.9477174 -0.638423E-10  0.137E-04   12.08     188.1  T
     SCC iter.                  ...        0 min,  0.001 sec
     gradient                   ...        0 min,  0.002 sec
 * total energy  :   -17.7320599 Eh     change       -0.3968474E-05 Eh
   gradient norm :     0.0002857 Eh/α   predicted    -0.1547001E-05 ( -61.02%)
   displ. norm   :     0.0369725 α      lambda       -0.2222577E-05
   maximum displ.:     0.0312987 α      in ANC's #1, #3, #2, ...

........................................................................
.............................. CYCLE   13 ..............................
........................................................................

 iter      E             dE          RMSdq      gap      omega  full diag
   1    -17.9477198 -0.179477E+02  0.101E-02   12.07       0.0  T
   2    -17.9477198 -0.266580E-08  0.609E-03   12.07       4.2  T
   3    -17.9477198 -0.113812E-08  0.209E-04   12.07     123.4  T
   4    -17.9477198 -0.244604E-10  0.112E-04   12.07     231.1  T
     SCC iter.                  ...        0 min,  0.001 sec
     gradient                   ...        0 min,  0.002 sec
 * total energy  :   -17.7320627 Eh     change       -0.2862461E-05 Eh
   gradient norm :     0.0001871 Eh/α   predicted    -0.1110646E-05 ( -61.20%)
   displ. norm   :     0.0270260 α      lambda       -0.1449130E-05
   maximum displ.:     0.0234276 α      in ANC's #1, #3, #2, ...

........................................................................
.............................. CYCLE   14 ..............................
........................................................................

 iter      E             dE          RMSdq      gap      omega  full diag
   1    -17.9477505 -0.179478E+02  0.814E-03   12.07       0.0  T
   2    -17.9477505 -0.169435E-08  0.489E-03   12.07       5.3  T
   3    -17.9477505 -0.816069E-09  0.188E-04   12.07     137.4  T
   4    -17.9477505 -0.246345E-10  0.987E-05   12.07     261.7  T
     SCC iter.                  ...        0 min,  0.001 sec
     gradient                   ...        0 min,  0.002 sec
 * total energy  :   -17.7320646 Eh     change       -0.1911178E-05 Eh
   gradient norm :     0.0001891 Eh/α   predicted    -0.7238912E-06 ( -62.12%)
   displ. norm   :     0.0201318 α      lambda       -0.1058190E-05
   maximum displ.:     0.0181431 α      in ANC's #1, #3, #2, ...

........................................................................
.............................. CYCLE   15 ..............................
........................................................................

 iter      E             dE          RMSdq      gap      omega  full diag
   1    -17.9477528 -0.179478E+02  0.594E-03   12.07       0.0  T
   2    -17.9477528 -0.149411E-08  0.357E-03   12.07       7.2  T
   3    -17.9477528 -0.426233E-09  0.143E-04   12.07     180.7  T
   4    -17.9477528 -0.244214E-10  0.818E-05   12.07     315.7  T
     SCC iter.                  ...        0 min,  0.001 sec
     gradient                   ...        0 min,  0.002 sec
 * total energy  :   -17.7320661 Eh     change       -0.1414956E-05 Eh
   gradient norm :     0.0001088 Eh/α   predicted    -0.5296678E-06 ( -62.57%)
   displ. norm   :     0.0167618 α      lambda       -0.8022275E-06
   maximum displ.:     0.0151414 α      in ANC's #1, #3, #4, ...

........................................................................
.............................. CYCLE   16 ..............................
........................................................................

 iter      E             dE          RMSdq      gap      omega  full diag
   1    -17.9477395 -0.179477E+02  0.547E-03   12.07       0.0  T
   2    -17.9477395 -0.832760E-09  0.328E-03   12.07       7.9  T
   3    -17.9477395 -0.406914E-09  0.133E-04   12.07     194.3  T
   4    -17.9477395 -0.514078E-11  0.638E-05   12.07     404.6  T
     SCC iter.                  ...        0 min,  0.001 sec
     gradient                   ...        0 min,  0.002 sec
 * total energy  :   -17.7320671 Eh     change       -0.1059008E-05 Eh
   gradient norm :     0.0000785 Eh/α   predicted    -0.4002188E-06 ( -62.21%)
   displ. norm   :     0.0139573 α      lambda       -0.5626647E-06
   maximum displ.:     0.0129205 α      in ANC's #1, #4, #3, ...

........................................................................
.............................. CYCLE   17 ..............................
........................................................................

 iter      E             dE          RMSdq      gap      omega  full diag
   1    -17.9477430 -0.179477E+02  0.440E-03   12.07       0.0  T
   2    -17.9477430 -0.611561E-09  0.264E-03   12.07       9.8  T
   3    -17.9477430 -0.230198E-09  0.119E-04   12.07     217.8  T
   4    -17.9477430 -0.393499E-10  0.680E-05   12.07     379.8  T
     SCC iter.                  ...        0 min,  0.001 sec
     gradient                   ...        0 min,  0.002 sec
 * total energy  :   -17.7320678 Eh     change       -0.7307392E-06 Eh
   gradient norm :     0.0000664 Eh/α   predicted    -0.2810274E-06 ( -61.54%)
   displ. norm   :     0.0104429 α      lambda       -0.3472894E-06
   maximum displ.:     0.0100779 α      in ANC's #1, #4, #6, ...

........................................................................
.............................. CYCLE   18 ..............................
........................................................................

 iter      E             dE          RMSdq      gap      omega  full diag
   1    -17.9477238 -0.179477E+02  0.356E-03   12.07       0.0  T
   2    -17.9477238 -0.438124E-09  0.213E-03   12.07      12.1  T
   3    -17.9477238 -0.147999E-09  0.826E-05   12.07     312.6  T
   4    -17.9477238 -0.368416E-11  0.471E-05   12.07     548.4  T
     SCC iter.                  ...        0 min,  0.001 sec
     gradient                   ...        0 min,  0.002 sec
 * total energy  :   -17.7320683 Eh     change       -0.4577975E-06 Eh
   gradient norm :     0.0000821 Eh/α   predicted    -0.1737624E-06 ( -62.04%)
   displ. norm   :     0.0080173 α      lambda       -0.2333351E-06
   maximum displ.:     0.0078404 α      in ANC's #1, #4, #6, ...

........................................................................
.............................. CYCLE   19 ..............................
........................................................................

 iter      E             dE          RMSdq      gap      omega  full diag
   1    -17.9477272 -0.179477E+02  0.238E-03   12.07       0.0  T
   2    -17.9477272 -0.174300E-09  0.142E-03   12.07      18.1  T
   3    -17.9477272 -0.547189E-10  0.639E-05   12.07     404.3  T
   4    -17.9477272 -0.138982E-10  0.351E-05   12.07     734.9  T
     SCC iter.                  ...        0 min,  0.001 sec
     gradient                   ...        0 min,  0.002 sec
 * total energy  :   -17.7320686 Eh     change       -0.3218048E-06 Eh
   gradient norm :     0.0000616 Eh/α   predicted    -0.1167536E-06 ( -63.72%)
   displ. norm   :     0.0075593 α      lambda       -0.2037097E-06
   maximum displ.:     0.0071656 α      in ANC's #1, #3, #2, ...

........................................................................
.............................. CYCLE   20 ..............................
........................................................................

 iter      E             dE          RMSdq      gap      omega  full diag
   1    -17.9477281 -0.179477E+02  0.229E-03   12.07       0.0  T
   2    -17.9477281 -0.962714E-10  0.137E-03   12.07      18.9  T
   3    -17.9477281 -0.495284E-10  0.467E-05   12.07     553.1  T
   4    -17.9477281 -0.813571E-12  0.196E-05   12.07    1320.3  T
     SCC iter.                  ...        0 min,  0.001 sec
     gradient                   ...        0 min,  0.002 sec
 * total energy  :   -17.7320689 Eh     change       -0.2911470E-06 Eh
   gradient norm :     0.0000599 Eh/α   predicted    -0.1024136E-06 ( -64.82%)
   displ. norm   :     0.0088891 α      lambda       -0.2300902E-06
   maximum displ.:     0.0079839 α      in ANC's #1, #3, #4, ...
 * RMSD in coord.:     0.1663686 α      energy gain  -0.9893115E-03 Eh

generating ANC from exact Hessian ...
Using Lindh-Hessian (1995)
 Shifting diagonal of input Hessian by   6.137443422419619E-003
 Lowest  eigenvalues of input Hessian
    0.000000    0.000000    0.000000    0.000000    0.000000    0.000000
    0.010000    0.013063    0.014318    0.017545    0.023823    0.026138
    0.036911    0.049525    0.052721    0.060216    0.062046    0.064887
 Highest eigenvalues
    1.160271    1.167521    1.205967    1.265619    1.297344    1.470120
 

........................................................................
.............................. CYCLE   21 ..............................
........................................................................

 iter      E             dE          RMSdq      gap      omega  full diag
   1    -17.9477250 -0.179477E+02  0.250E-03   12.07       0.0  T
   2    -17.9477250 -0.123123E-09  0.149E-03   12.07      17.3  T
   3    -17.9477250 -0.538485E-10  0.496E-05   12.07     520.4  T
   4    -17.9477250 -0.267875E-11  0.283E-05   12.07     913.9  T
     SCC iter.                  ...        0 min,  0.001 sec
     gradient                   ...        0 min,  0.002 sec
 * total energy  :   -17.7320692 Eh     change       -0.3206448E-06 Eh
   gradient norm :     0.0000553 Eh/α   predicted     0.0000000E+00 (-100.00%)
   displ. norm   :     0.0050017 α      lambda       -0.1227606E-06
   maximum displ.:     0.0048046 α      in ANC's #1, #4, #2, ...

........................................................................
.............................. CYCLE   22 ..............................
........................................................................

 iter      E             dE          RMSdq      gap      omega  full diag
   1    -17.9477365 -0.179477E+02  0.140E-03   12.07       0.0  T
   2    -17.9477365 -0.666489E-10  0.839E-04   12.07      30.8  T
   3    -17.9477365 -0.224354E-10  0.334E-05   12.07     772.6  T
     SCC iter.                  ...        0 min,  0.001 sec
     gradient                   ...        0 min,  0.002 sec
 * total energy  :   -17.7320694 Eh     change       -0.1691988E-06 Eh
   gradient norm :     0.0000392 Eh/α   predicted    -0.6086675E-07 ( -64.03%)
   displ. norm   :     0.0067197 α      lambda       -0.1476314E-06
   maximum displ.:     0.0058167 α      in ANC's #1, #4, #2, ...

........................................................................
.............................. CYCLE   23 ..............................
........................................................................

 iter      E             dE          RMSdq      gap      omega  full diag
   1    -17.9477405 -0.179477E+02  0.190E-03   12.07       0.0  T
   2    -17.9477405 -0.707132E-10  0.114E-03   12.07      22.7  T
   3    -17.9477405 -0.343334E-10  0.358E-05   12.07     720.7  T
   4    -17.9477405 -0.337508E-12  0.167E-05   12.07    1542.5  T
     SCC iter.                  ...        0 min,  0.001 sec
     gradient                   ...        0 min,  0.002 sec
 * total energy  :   -17.7320696 Eh     change       -0.2136973E-06 Eh
   gradient norm :     0.0000454 Eh/α   predicted    -0.7547325E-07 ( -64.68%)
   displ. norm   :     0.0099590 α      lambda       -0.2036450E-06
   maximum displ.:     0.0082840 α      in ANC's #1, #4, #2, ...

........................................................................
.............................. CYCLE   24 ..............................
........................................................................

 iter      E             dE          RMSdq      gap      omega  full diag
   1    -17.9477339 -0.179477E+02  0.271E-03   12.07       0.0  T
   2    -17.9477339 -0.148308E-09  0.163E-03   12.07      15.9  T
   3    -17.9477339 -0.768594E-10  0.547E-05   12.07     471.7  T
   4    -17.9477339 -0.144240E-11  0.279E-05   12.07     923.9  T
     SCC iter.                  ...        0 min,  0.001 sec
     gradient                   ...        0 min,  0.002 sec
 * total energy  :   -17.7320699 Eh     change       -0.2720740E-06 Eh
   gradient norm :     0.0000336 Eh/α   predicted    -0.1007693E-06 ( -62.96%)
   displ. norm   :     0.0108134 α      lambda       -0.1853249E-06
   maximum displ.:     0.0092206 α      in ANC's #1, #4, #2, ...

........................................................................
.............................. CYCLE   25 ..............................
........................................................................

 iter      E             dE          RMSdq      gap      omega  full diag
   1    -17.9477324 -0.179477E+02  0.298E-03   12.07       0.0  T
   2    -17.9477324 -0.197321E-09  0.179E-03   12.07      14.4  T
   3    -17.9477324 -0.936815E-10  0.644E-05   12.07     400.7  T
   4    -17.9477324 -0.584066E-11  0.371E-05   12.07     695.4  T
     SCC iter.                  ...        0 min,  0.001 sec
     gradient                   ...        0 min,  0.002 sec
 * total energy  :   -17.7320701 Eh     change       -0.2431234E-06 Eh
   gradient norm :     0.0000339 Eh/α   predicted    -0.9160911E-07 ( -62.32%)
   displ. norm   :     0.0082833 α      lambda       -0.1184708E-06
   maximum displ.:     0.0073797 α      in ANC's #1, #4, #2, ...

........................................................................
.............................. CYCLE   26 ..............................
........................................................................

 iter      E             dE          RMSdq      gap      omega  full diag
   1    -17.9477314 -0.179477E+02  0.242E-03   12.07       0.0  T
   2    -17.9477314 -0.119208E-09  0.145E-03   12.07      17.8  T
   3    -17.9477314 -0.643325E-10  0.502E-05   12.07     514.6  T
   4    -17.9477314 -0.760281E-12  0.176E-05   12.07    1463.8  T
     SCC iter.                  ...        0 min,  0.001 sec
     gradient                   ...        0 min,  0.002 sec
 * total energy  :   -17.7320703 Eh     change       -0.1638826E-06 Eh
   gradient norm :     0.0000306 Eh/α   predicted    -0.5983627E-07 ( -63.49%)
   displ. norm   :     0.0053868 α      lambda       -0.7605991E-07
   maximum displ.:     0.0050828 α      in ANC's #1, #4, #2, ...

........................................................................
.............................. CYCLE   27 ..............................
........................................................................

 iter      E             dE          RMSdq      gap      omega  full diag
   1    -17.9477335 -0.179477E+02  0.150E-03   12.07       0.0  T
   2    -17.9477335 -0.665992E-10  0.904E-04   12.07      28.6  T
   3    -17.9477335 -0.301199E-10  0.385E-05   12.07     670.9  T
     SCC iter.                  ...        0 min,  0.001 sec
     gradient                   ...        0 min,  0.002 sec
 * total energy  :   -17.7320704 Eh     change       -0.1066492E-06 Eh
   gradient norm :     0.0000267 Eh/α   predicted    -0.3772280E-07 ( -64.63%)
   displ. norm   :     0.0039397 α      lambda       -0.5342424E-07
   maximum displ.:     0.0038518 α      in ANC's #1, #2, #4, ...

........................................................................
.............................. CYCLE   28 ..............................
........................................................................

 iter      E             dE          RMSdq      gap      omega  full diag
   1    -17.9477339 -0.179477E+02  0.131E-03   12.07       0.0  T
   2    -17.9477339 -0.464446E-10  0.787E-04   12.07      32.8  T
   3    -17.9477339 -0.266134E-10  0.331E-05   12.07     781.2  T
     SCC iter.                  ...        0 min,  0.001 sec
     gradient                   ...        0 min,  0.002 sec
 * total energy  :   -17.7320705 Eh     change       -0.7976201E-07 Eh
   gradient norm :     0.0000224 Eh/α   predicted    -0.2802630E-07 ( -64.86%)
   displ. norm   :     0.0034304 α      lambda       -0.4990903E-07
   maximum displ.:     0.0033722 α      in ANC's #1, #6, #9, ...

   *** GEOMETRY OPTIMIZATION CONVERGED AFTER 28 ITERATIONS ***

------------------------------------------------------------------------
 total energy gain   :        -0.0009909 Eh       -0.6218 kcal/mol
 total RMSD          :         0.1784429 a0        0.0944 Å
 total power (kW/mol):        -0.0929127 (step)  -20.0224 (real)
------------------------------------------------------------------------

 ANCopt (total)                0 d,  0 h,  0 min,  0.130 sec
 optimizer setup                ...        0 min,  0.000 sec (  0.225%)
 model hessian                  ...        0 min,  0.008 sec (  6.165%)
 ANC generation                 ...        0 min,  0.000 sec (  0.318%)
 coordinate transformation      ...        0 min,  0.000 sec (  0.075%)
 single point calculation       ...        0 min,  0.112 sec ( 86.209%)
 optimization log               ...        0 min,  0.006 sec (  4.476%)
 hessian update                 ...        0 min,  0.000 sec (  0.084%)
 rational function              ...        0 min,  0.002 sec (  1.794%)

================
 final structure:
================
$coord
        3.55588186867176        1.72454950032169       -0.43459099899414      C
        1.79551144906017       -0.16674362660138        0.83137982746644      C
       -0.72344772073612       -0.50511407544919       -0.55442849850958      C
       -0.33143624214209       -0.87464229860339       -2.56900536815480      H
       -2.42709612163069        1.81289068588767       -0.32960664235355      C
       -1.89004508184498       -2.67685285047816        0.51268335320633      O
        5.36168297124351        1.75658592420048        0.54235635017448      H
        2.76589671342746        3.61899237821336       -0.38599965593352      H
        3.88545001382835        1.20140261850300       -2.39458480219315      H
        1.40245387466921        0.40907276453378        2.77234435184604      H
        2.70107033871884       -2.01953138702315        0.90560908483495      H
       -1.50413674202800        3.45145169149277       -1.14703088939238      H
       -4.19871804393028        1.50370061056637       -1.32572447106588      H
       -2.83591400425867        2.18721914729687        1.64938981273809      H
       -3.55015883233094       -2.88836225869979       -0.21983679880951      H
$end
 
 Bond Distances (Angstroems)
 ---------------------------
C1-C2=1.5226         C1-H7=1.0866         C1-H8=1.0865         C1-H9=1.0876         C2-C1=1.5226         C2-C3=1.5319         
C2-H10=1.0914        C2-H11=1.0920        C3-C2=1.5319         C3-H4=1.1035         C3-C5=1.5269         C3-O6=1.4215         
H4-C3=1.1035         C5-C3=1.5269         C5-H12=1.0851        C5-H13=1.0879        C5-H14=1.0875        O6-C3=1.4215         
O6-H15=0.9667        H7-C1=1.0866         H8-C1=1.0865         H9-C1=1.0876         H10-C2=1.0914        H11-C2=1.0920        
H12-C5=1.0851        H13-C5=1.0879        H14-C5=1.0875        H15-O6=0.9667        
 C  H  Rav=1.0898 sigma=0.0053  Rmin=1.0851  Rmax=1.1035     9
 C  C  Rav=1.5271 sigma=0.0038  Rmin=1.5226  Rmax=1.5319     3
 O  H  Rav=0.9667 sigma=0.0000  Rmin=0.9667  Rmax=0.9667     1
 O  C  Rav=1.4215 sigma=0.0000  Rmin=1.4215  Rmax=1.4215     1
 
 selected bond angles (degree)
 --------------------
H7-C1-C2=109.81                H8-C1-C2=111.14                H8-C1-H7=108.22                H9-C1-C2=110.51                
H9-C1-H7=108.46                H9-C1-H8=108.61                C3-C2-C1=113.49                H10-C2-C1=110.31               
H10-C2-C3=108.50               H11-C2-C1=109.73               H11-C2-C3=107.10               H11-C2-H10=107.49              
H4-C3-C2=108.64                C5-C3-C2=112.49                C5-C3-H4=109.18                O6-C3-C2=106.39                
O6-C3-H4=108.79                O6-C3-C5=111.23                H12-C5-C3=110.19               H13-C5-C3=110.50               
H13-C5-H12=108.35              H14-C5-C3=109.80               H14-C5-H12=109.14              H14-C5-H13=108.82              
H15-O6-C3=109.21               
 
 selected dihedral angles (degree)
 ---------------------------------
C3-C2-C1-H7=184.87            C3-C2-C1-H8= 65.16            C3-C2-C1-H9=304.49            H10-C2-C1-H7= 62.88           
H10-C2-C1-H8=303.16           H10-C2-C1-H9=182.50           H11-C2-C1-H7=304.64           H11-C2-C1-H8=184.93           
H11-C2-C1-H9= 64.26           H4-C3-C2-C1= 50.65            H4-C3-C2-H10=173.65           H4-C3-C2-H11=289.40           
C5-C3-C2-C1=289.65            C5-C3-C2-H10= 52.65           C5-C3-C2-H11=168.40           O6-C3-C2-C1=167.63            
O6-C3-C2-H10=290.62           O6-C3-C2-H11= 46.38           H12-C5-C3-C2= 60.56           H12-C5-C3-H4=299.87           
H12-C5-C3-O6=179.80           H13-C5-C3-C2=180.27           H13-C5-C3-H4= 59.59           H13-C5-C3-O6=299.52           
H14-C5-C3-C2=300.32           H14-C5-C3-H4=179.63           H14-C5-C3-O6= 59.56           H15-O6-C3-C2=175.69           
H15-O6-C3-H4=292.56           H15-O6-C3-C5= 52.87           
           -------------------------------------------------
          |                Final Singlepoint                |
           -------------------------------------------------

          ...................................................
          :                      SETUP                      :
          :.................................................:
          :  # basis functions                  30          :
          :  # atomic orbitals                  30          :
          :  # shells                           20          :
          :  # electrons                        32          :
          :  max. iterations                   250          :
          :  Hamiltonian                  GFN2-xTB          :
          :  restarted?                      false          :
          :  GBSA solvation                   true          :
          :  PC potential                    false          :
          :  electronic temp.          300.0000000     K    :
          :  accuracy                    1.0000000          :
          :  -> integral cutoff          0.2500000E+02      :
          :  -> integral neglect         0.1000000E-07      :
          :  -> SCF convergence          0.1000000E-05 Eh   :
          :  -> wf. convergence          0.1000000E-03 e    :
          :  Broyden damping             0.4000000          :
          :  net charge                          0          :
          :  unpaired electrons                  0          :
          ...................................................

 iter      E             dE          RMSdq      gap      omega  full diag
   1    -17.9477339 -0.179477E+02  0.466E-06   12.07       0.0  T
   2    -17.9477339 -0.213163E-13  0.277E-06   12.07    9320.5  T
   3    -17.9477339 -0.213163E-13  0.103E-06   12.07   25033.7  T

   *** convergence criteria satisfied after 3 iterations ***

         #    Occupation            Energy/Eh            Energy/eV
      -------------------------------------------------------------
         1        2.0000           -0.6841373             -18.6163
       ...           ...                  ...                  ...
        10        2.0000           -0.4731909             -12.8762
        11        2.0000           -0.4657835             -12.6746
        12        2.0000           -0.4559122             -12.4060
        13        2.0000           -0.4521046             -12.3024
        14        2.0000           -0.4334228             -11.7940
        15        2.0000           -0.4247385             -11.5577
        16        2.0000           -0.4054024             -11.0316 (HOMO)
        17                          0.0382696               1.0414 (LUMO)
        18                          0.0938892               2.5549
        19                          0.1162228               3.1626
        20                          0.1284575               3.4955
        21                          0.1436600               3.9092
       ...                                ...                  ...
        30                          0.3034998               8.2587
      -------------------------------------------------------------
                  HL-Gap            0.4436719 Eh           12.0729 eV
             Fermi-level           -0.1835664 Eh           -4.9951 eV

 SCC (total)                   0 d,  0 h,  0 min,  0.004 sec
 SCC setup                      ...        0 min,  0.001 sec ( 16.353%)
 Dispersion                     ...        0 min,  0.000 sec (  0.785%)
 classical contributions        ...        0 min,  0.000 sec (  0.255%)
 integral evaluation            ...        0 min,  0.001 sec ( 16.876%)
 iterations                     ...        0 min,  0.001 sec ( 18.060%)
 molecular gradient             ...        0 min,  0.002 sec ( 45.334%)
 printout                       ...        0 min,  0.000 sec (  2.068%)

         :::::::::::::::::::::::::::::::::::::::::::::::::::::
         ::                     SUMMARY                     ::
         :::::::::::::::::::::::::::::::::::::::::::::::::::::
         :: total energy             -17.732070485755 Eh    ::
         :: total w/o Gsasa/hb       -17.728089534980 Eh    ::
         :: gradient norm              0.000022527715 Eh/a0 ::
         :: HOMO-LUMO gap             12.072927723408 eV    ::
         ::.................................................::
         :: SCC energy               -17.947721716193 Eh    ::
         :: -> isotropic ES            0.037017797882 Eh    ::
         :: -> anisotropic ES          0.003175400934 Eh    ::
         :: -> anisotropic XC          0.006159723632 Eh    ::
         :: -> dispersion             -0.007334603037 Eh    ::
         :: -> Gsolv                  -0.008489712269 Eh    ::
         ::    -> Gelec               -0.004508761495 Eh    ::
         ::    -> Gsasa                0.000499461672 Eh    ::
         ::    -> Ghb                 -0.005561172145 Eh    ::
         ::    -> Gshift               0.001080759698 Eh    ::
         :: repulsion energy           0.215651230439 Eh    ::
         :: add. restraining           0.000000000000 Eh    ::
         :: total charge               0.000000000000 e     ::
         :::::::::::::::::::::::::::::::::::::::::::::::::::::

           ------------------------------------------------- 
          |                Numerical Hessian                |
           ------------------------------------------------- 
step length          :   0.00500
SCC accuracy         :   0.30000
Hessian scale factor :   1.00000
frozen atoms in %    :   0.00000    0
RMS gradient         :   0.00002
estimated CPU  time      0.01 min
estimated wall time      0.01 min

writing file <hessian>.

 projected vibrational frequencies (cm⁻¹)
eigval :       -0.00    -0.00    -0.00     0.00     0.00     0.00
eigval :       69.51   197.19   231.05   258.25   278.98   383.63
eigval :      413.88   494.04   806.55   856.14   945.94   980.37
eigval :     1016.16  1072.81  1098.77  1122.81  1162.42  1223.90
eigval :     1248.59  1307.33  1326.08  1362.15  1398.89  1409.17
eigval :     1481.49  1485.43  1493.84  1497.82  1503.93  2813.37
eigval :     2973.86  2990.35  3024.78  3030.08  3036.59  3038.48
eigval :     3047.34  3059.20  3503.16
           -------------------------------------------------
          |                Property Printout                |
           -------------------------------------------------

    * Orbital Energies and Occupations

         #    Occupation            Energy/Eh            Energy/eV
      -------------------------------------------------------------
         1        2.0000           -0.6841373             -18.6163
       ...           ...                  ...                  ...
         4        2.0000           -0.5913752             -16.0921
         5        2.0000           -0.5601350             -15.2420
         6        2.0000           -0.5460722             -14.8594
         7        2.0000           -0.5213574             -14.1869
         8        2.0000           -0.5171063             -14.0712
         9        2.0000           -0.4875254             -13.2662
        10        2.0000           -0.4731909             -12.8762
        11        2.0000           -0.4657835             -12.6746
        12        2.0000           -0.4559122             -12.4060
        13        2.0000           -0.4521046             -12.3024
        14        2.0000           -0.4334228             -11.7940
        15        2.0000           -0.4247385             -11.5577
        16        2.0000           -0.4054024             -11.0316 (HOMO)
        17                          0.0382696               1.0414 (LUMO)
        18                          0.0938892               2.5549
        19                          0.1162228               3.1626
        20                          0.1284575               3.4955
        21                          0.1436600               3.9092
        22                          0.1487283               4.0471
        23                          0.1842470               5.0136
        24                          0.1998245               5.4375
        25                          0.2056888               5.5971
        26                          0.2393770               6.5138
        27                          0.2471638               6.7257
       ...                                ...                  ...
        30                          0.3034998               8.2587
      -------------------------------------------------------------
                  HL-Gap            0.4436719 Eh           12.0729 eV
             Fermi-level           -0.1835664 Eh           -4.9951 eV

     #   Z          covCN         q      C6AA      α(0)
     1   6 C        3.752    -0.116    22.778     6.806
     2   6 C        3.801    -0.067    21.776     6.644
     3   6 C        3.723     0.119    18.739     6.182
     4   1 H        0.923     0.010     2.894     2.660
     5   6 C        3.752    -0.129    23.045     6.846
     6   8 O        1.655    -0.527    23.483     6.542
     7   1 H        0.925     0.047     2.363     2.404
     8   1 H        0.925     0.043     2.406     2.426
     9   1 H        0.925     0.040     2.453     2.449
    10   1 H        0.924     0.043     2.407     2.426
    11   1 H        0.924     0.043     2.406     2.426
    12   1 H        0.925     0.051     2.313     2.378
    13   1 H        0.925     0.044     2.393     2.419
    14   1 H        0.925     0.050     2.320     2.382
    15   1 H        0.805     0.349     0.590     1.207

 Mol. C6AA /au·bohr⁶  :       1455.028679
 Mol. C8AA /au·bohr⁸  :      29860.235540
 Mol. α(0) /au        :         56.196006


Wiberg/Mayer (AO) data.
largest (>0.10) Wiberg bond orders for each atom

 ---------------------------------------------------------------------------
     #   Z sym  total        # sym  WBO       # sym  WBO       # sym  WBO
 ---------------------------------------------------------------------------
     1   6 C    3.995 --     2 C    1.020     9 H    0.987     7 H    0.986
                             8 H    0.985
     2   6 C    3.995 --     1 C    1.020     3 C    0.993    10 H    0.977
                            11 H    0.976
     3   6 C    3.950 --     5 C    1.004     2 C    0.993     6 O    0.976
                             4 H    0.962
     4   1 H    1.000 --     3 C    0.962
     5   6 C    3.995 --     3 C    1.004    14 H    0.986    13 H    0.984
                            12 H    0.982
     6   8 O    1.904 --     3 C    0.976    15 H    0.862
     7   1 H    0.998 --     1 C    0.986
     8   1 H    0.998 --     1 C    0.985
     9   1 H    0.998 --     1 C    0.987
    10   1 H    0.998 --     2 C    0.977
    11   1 H    0.998 --     2 C    0.976
    12   1 H    0.997 --     5 C    0.982
    13   1 H    0.998 --     5 C    0.984
    14   1 H    0.997 --     5 C    0.986
    15   1 H    0.878 --     6 O    0.862
 ---------------------------------------------------------------------------

Topologies differ in total number of bonds
Writing topology from bond orders to xtbtopo.mol

molecular dipole:
                 x           y           z       tot (Debye)
 q only:       -0.253       0.477      -0.362
   full:       -0.377       0.526      -0.498       2.074
molecular quadrupole (traceless):
                xx          xy          yy          xz          yz          zz
 q only:        3.564       1.249      -2.156       1.363       1.358      -1.408
  q+dip:        3.953       0.793      -3.425       1.924       2.654      -0.529
   full:        4.233       1.196      -3.180       1.932       2.238      -1.053

           -------------------------------------------------
          |                Geometry Summary                 |
           -------------------------------------------------

      molecular mass/u    :       74.1217560
   center of mass at/Å    :       -0.0005728       0.0000133       0.0011473
  moments of inertia/u·Å² :        0.6579225E+02   0.1457181E+03   0.1904287E+03
rotational constants/cm⁻¹ :        0.2562252E+00   0.1156866E+00   0.8852464E-01

 * 14 selected distances

     #   Z          #   Z                                           value/Å
     1   6 C        2   6 C                                       1.5225760
     2   6 C        3   6 C                                       1.5318850 (max)
     3   6 C        4   1 H                                       1.1035273
     3   6 C        5   6 C                                       1.5269409
     3   6 C        6   8 O                                       1.4215209
     1   6 C        7   1 H                                       1.0866021
     1   6 C        8   1 H                                       1.0864708
     1   6 C        9   1 H                                       1.0875685
     2   6 C       10   1 H                                       1.0913634
     2   6 C       11   1 H                                       1.0920005
     5   6 C       12   1 H                                       1.0851255
     5   6 C       13   1 H                                       1.0879058
     5   6 C       14   1 H                                       1.0875437
     6   8 O       15   1 H                                       0.9667157 (min)

 * 4 distinct bonds (by element types)

   Z      Z             #   av. dist./Å        max./Å        min./Å
   1 H    6 C           9     1.0897897     1.1035273     1.0851255
   6 C    6 C           3     1.5271339     1.5318850     1.5225760
   1 H    8 O           1     0.9667157     0.9667157     0.9667157
   6 C    8 O           1     1.4215209     1.4215209     1.4215209

           -------------------------------------------------
          |               Frequency Printout                |
           -------------------------------------------------
 projected vibrational frequencies (cm⁻¹)
eigval :       -0.00    -0.00    -0.00     0.00     0.00     0.00
eigval :       69.51   197.19   231.05   258.25   278.98   383.63
eigval :      413.88   494.04   806.55   856.14   945.94   980.37
eigval :     1016.16  1072.81  1098.77  1122.81  1162.42  1223.90
eigval :     1248.59  1307.33  1326.08  1362.15  1398.89  1409.17
eigval :     1481.49  1485.43  1493.84  1497.82  1503.93  2813.37
eigval :     2973.86  2990.35  3024.78  3030.08  3036.59  3038.48
eigval :     3047.34  3059.20  3503.16
 reduced masses (amu)
   1: 12.73   2:  9.80   3:  9.68   4: 10.81   5: 10.50   6: 10.56   7:  6.63   8:  1.34
   9:  2.85  10:  7.89  11:  3.48  12:  9.40  13:  9.25  14: 10.05  15:  3.67  16:  6.47
  17:  7.26  18:  2.57  19:  6.30  20:  6.30  21:  7.47  22:  8.17  23:  6.78  24:  4.44
  25:  3.18  26:  3.06  27:  4.23  28:  5.44  29:  3.35  30:  3.21  31:  1.65  32:  1.57
  33:  1.84  34:  1.58  35:  1.55  36:  1.71  37:  1.97  38:  1.49  39:  1.85  40:  1.85
  41:  1.64  42:  1.95  43:  1.34  44:  1.65  45:  1.87
 IR intensities (km·mol⁻¹)
   1:  0.25   2:  0.87   3:  0.93   4:  1.12   5:  0.15   6:  0.44   7:  0.10   8:  0.06
   9:  3.81  10: 25.42  11:193.90  12:  6.18  13:  5.56  14:  8.09  15:  5.88  16:  1.13
  17: 28.52  18:  6.80  19: 12.26  20:127.69  21:  2.92  22: 61.80  23: 26.56  24: 48.83
  25: 11.86  26: 10.96  27: 47.38  28: 16.44  29:  8.65  30:  0.54  31:  1.28  32:  1.95
  33:  0.22  34:  2.37  35:  0.95  36:152.21  37: 63.06  38: 53.33  39: 60.52  40: 75.55
  41: 48.53  42: 67.34  43: 34.45  44: 39.91  45: 52.62
 Raman intensities (Ä⁴*amu⁻¹)
   1:  0.00   2:  0.00   3:  0.00   4:  0.00   5:  0.00   6:  0.00   7:  0.00   8:  0.00
   9:  0.00  10:  0.00  11:  0.00  12:  0.00  13:  0.00  14:  0.00  15:  0.00  16:  0.00
  17:  0.00  18:  0.00  19:  0.00  20:  0.00  21:  0.00  22:  0.00  23:  0.00  24:  0.00
  25:  0.00  26:  0.00  27:  0.00  28:  0.00  29:  0.00  30:  0.00  31:  0.00  32:  0.00
  33:  0.00  34:  0.00  35:  0.00  36:  0.00  37:  0.00  38:  0.00  39:  0.00  40:  0.00
  41:  0.00  42:  0.00  43:  0.00  44:  0.00  45:  0.00
 output can be read by thermo (or use thermo option).
 writing <g98.out> molden fake output.
 recommended (thermochemical) frequency scaling factor: 1.0
           -------------------------------------------------
          |             Thermodynamic Functions             |
           -------------------------------------------------

Molecule has no symmetry elements
It seems to be the C1 point group
c1  symmetry found (for desy threshold:  0.10E+00) used in thermo

          ...................................................
          :                      SETUP                      :
          :.................................................:
          :  # frequencies                          39      :
          :  # imaginary freq.                       0      :
          :  linear?                             false      :
          :  only rotor calc.                    false      :
          :  symmetry                               c1      :
          :  rotational number                       1      :
          :  scaling factor                  1.0000000      :
          :  rotor cutoff                    0.0000000 cm⁻¹ :
          :  imag. cutoff                 -100.0000000 cm⁻¹ :
          :.................................................:

    mode    ω/cm⁻¹     T·S(HO)/kcal·mol⁻¹    T·S(FR)/kcal·mol⁻¹   T·S(vib)
   ------------------------------------------------------------------------
       1     69.51    -1.24243 (100.00%)    -0.95841 (  0.00%)    -1.24243
       2    197.19    -0.64375 (100.00%)    -0.64988 (  0.00%)    -0.64375
       3    231.05    -0.55778 (100.00%)    -0.60296 (  0.00%)    -0.55778
       4    258.25    -0.49897 (100.00%)    -0.57000 (  0.00%)    -0.49897
       5    278.98    -0.45912 (100.00%)    -0.54714 (  0.00%)    -0.45912
   ------------------------------------------------------------------------

   temp. (K)  partition function   enthalpy   heat capacity  entropy
                                   cal/mol     cal/K/mol   cal/K/mol   J/K/mol
 298.15  VIB   26.9                 2572.528     18.116     15.172
         ROT  0.103E+06              888.752      2.981     25.923
         INT  0.278E+07             3461.280     21.097     41.095
         TR   0.617E+27             1481.254      4.968     38.808
         TOT                        4942.5341    26.0650    79.9030   334.3142

       T/K    H(0)-H(T)+PV         H(T)/Eh          T*S/Eh         G(T)/Eh
   ------------------------------------------------------------------------
    298.15    0.787643E-02    0.141478E+00    0.379645E-01    0.103514E+00
   ------------------------------------------------------------------------

         :::::::::::::::::::::::::::::::::::::::::::::::::::::
         ::                  THERMODYNAMIC                  ::
         :::::::::::::::::::::::::::::::::::::::::::::::::::::
         :: total free energy         -17.628556958166 Eh   ::
         ::.................................................::
         :: total energy              -17.732070485779 Eh   ::
         :: zero point energy           0.133601596806 Eh   ::
         :: G(RRHO) w/o ZPVE           -0.030088069193 Eh   ::
         :: G(RRHO) contrib.            0.103513527613 Eh   ::
         :::::::::::::::::::::::::::::::::::::::::::::::::::::

optimized geometry written to: xtbopt.coord


           -------------------------------------------------
          | TOTAL ENERGY              -17.732070485779 Eh   |
          | TOTAL ENTHALPY            -17.590592459591 Eh   |
          | TOTAL FREE ENERGY         -17.628556958166 Eh   |
          | GRADIENT NORM               0.000022528681 Eh/α |
          | HOMO-LUMO GAP              12.072927698932 eV   |
           -------------------------------------------------

------------------------------------------------------------------------
 * finished run on 2025/04/04 at 20:25:47.746     
------------------------------------------------------------------------
 total:
 * wall-time:     0 d,  0 h,  0 min,  0.589 sec
 *  cpu-time:     0 d,  0 h,  0 min,  0.523 sec
 * ratio c/w:     0.887 speedup
 SCF:
 * wall-time:     0 d,  0 h,  0 min,  0.008 sec
 *  cpu-time:     0 d,  0 h,  0 min,  0.007 sec
 * ratio c/w:     0.909 speedup
 ANC optimizer:
 * wall-time:     0 d,  0 h,  0 min,  0.144 sec
 *  cpu-time:     0 d,  0 h,  0 min,  0.130 sec
 * ratio c/w:     0.905 speedup
 analytical hessian:
 * wall-time:     0 d,  0 h,  0 min,  0.385 sec
 *  cpu-time:     0 d,  0 h,  0 min,  0.377 sec
 * ratio c/w:     0.979 speedup

