 Entering Gaussian System
 *********************************************
 Gaussian 98:
 frequency output generated by the xtb code
 *********************************************
                         Standard orientation:
 --------------------------------------------------------------------
  Center     Atomic     Atomic              Coordinates (Angstroms)
  Number     Number      Type              X           Y           Z
 --------------------------------------------------------------------
    1          6             0       -3.418137    0.592184    0.065854
    2          6             0       -1.923104    0.497238    0.073691
    3          6             0       -1.129188    1.506055   -0.259184
    4          6             0        0.366296    1.449620   -0.265609
    5          6             0        0.871632    0.002113   -0.289418
    6          1             0        0.623893   -0.419134   -1.270340
    7          6             0        0.124550   -0.791518    0.784742
    8          6             0       -1.373604   -0.857054    0.468142
    9          1             0       -1.913739   -1.216580    1.353408
   10          8             0       -1.671903   -1.837806   -0.519684
   11          6             0        2.371340   -0.058250   -0.130949
   12          6             0        3.155212   -0.302440   -1.170340
   13          6             0        2.932315    0.176483    1.238399
   14          1             0       -3.837034   -0.259031   -0.468865
   15          1             0       -3.751192    1.513237   -0.404156
   16          1             0       -3.798627    0.560153    1.086503
   17          1             0       -1.562924    2.459902   -0.529594
   18          1             0        0.752646    1.991130   -1.132224
   19          1             0        0.739199    1.962133    0.626387
   20          1             0        0.512608   -1.810288    0.846602
   21          1             0        0.248584   -0.309713    1.754410
   22          1             0       -1.217656   -1.599174   -1.339052
   23          1             0        4.228053   -0.331195   -1.080406
   24          1             0        2.759597   -0.484346   -2.155736
   25          1             0        2.702000   -0.667041    1.887294
   26          1             0        4.011858    0.290176    1.193286
   27          1             0        2.504514    1.069949    1.687748
 --------------------------------------------------------------------
     1 basis functions        1 primitive gaussians
     1 alpha electrons        1 beta electrons
 
 Harmonic frequencies (cm**-1), IR intensities (km*mol⁻¹),
 Raman scattering activities (A**4/amu), Raman depolarization ratios,
 reduced masses (AMU), force constants (mDyne/A) and normal coordinates:
                      1                      2                      3
                        a                      a                      a 
 Frequencies --    50.0712                60.1813               120.9773
 Red. masses --     9.3838                 9.1410                10.4631
 Frc consts  --     0.0000                 0.0000                 0.0000
 IR Inten    --     0.6622                 0.5029                 1.5639
 Raman Activ --     0.0000                 0.0000                 0.0000
 Depolar     --     0.0000                 0.0000                 0.0000
 Atom AN      X      Y      Z        X      Y      Z        X      Y      Z
   1   6     0.02   0.04  -0.10    -0.00   0.13   0.48     0.05   0.03  -0.06
   2   6     0.01   0.02  -0.06    -0.01  -0.00   0.09     0.05   0.00  -0.01
   3   6     0.04  -0.03  -0.16    -0.00  -0.08  -0.12     0.07   0.01   0.05
   4   6     0.03  -0.06  -0.13    -0.01  -0.14  -0.41     0.06  -0.00   0.14
   5   6     0.00  -0.08  -0.00     0.03  -0.14  -0.12     0.07   0.01  -0.15
   6   1     0.00  -0.05   0.01     0.05  -0.09  -0.02     0.04   0.06  -0.07
   7   6    -0.01   0.04   0.07    -0.01  -0.04  -0.08     0.08  -0.26  -0.33
   8   6    -0.02   0.06   0.11    -0.00  -0.04  -0.07    -0.01  -0.02   0.00
   9   1    -0.00   0.06   0.05     0.01  -0.05  -0.03     0.05   0.05   0.06
  10   8    -0.09  -0.08   0.29    -0.01   0.09  -0.22    -0.53  -0.11   0.25
  11   6     0.01   0.01  -0.01     0.02   0.01   0.07     0.06   0.08  -0.02
  12   6     0.05   0.56  -0.11     0.19   0.08   0.18     0.20   0.04   0.09
  13   6    -0.04  -0.44   0.09    -0.19   0.08   0.15    -0.07   0.23   0.02
  14   1     0.00  -0.01   0.00    -0.06   0.06   0.16     0.01  -0.04   0.06
  15   1     0.01  -0.01  -0.07    -0.01   0.05   0.18     0.02  -0.03  -0.10
  16   1    -0.00   0.06  -0.03     0.08   0.03   0.17     0.01   0.10  -0.02
  17   1     0.02  -0.02  -0.08     0.00  -0.01  -0.01     0.02   0.00   0.02
  18   1     0.02  -0.04  -0.05    -0.05  -0.11  -0.18     0.04   0.06   0.08
  19   1     0.01  -0.00  -0.05     0.05   0.03  -0.18    -0.00  -0.06   0.08
  20   1    -0.01   0.01   0.04    -0.00  -0.01   0.00    -0.01  -0.09  -0.21
  21   1     0.01   0.03   0.01    -0.01   0.01  -0.03     0.09  -0.17  -0.06
  22   1    -0.02  -0.06   0.06    -0.04   0.07  -0.06    -0.19  -0.08   0.02
  23   1     0.01   0.20  -0.04     0.05   0.06   0.10     0.06   0.03   0.07
  24   1     0.02   0.26  -0.05     0.10   0.01   0.04     0.09  -0.02   0.02
  25   1     0.03  -0.21  -0.07    -0.01  -0.01   0.02     0.06   0.03  -0.01
  26   1    -0.02  -0.07   0.04    -0.06   0.11   0.08    -0.03   0.17   0.02
  27   1    -0.06  -0.20   0.13    -0.14  -0.02   0.05    -0.11   0.02   0.02
                      4                      5                      6
                        a                      a                      a 
 Frequencies --   144.8042               147.8052               166.3204
 Red. masses --     1.5419                 3.6341                 7.8512
 Frc consts  --     0.0000                 0.0000                 0.0000
 IR Inten    --     1.8032                 0.2581                 0.5033
 Raman Activ --     0.0000                 0.0000                 0.0000
 Depolar     --     0.0000                 0.0000                 0.0000
 Atom AN      X      Y      Z        X      Y      Z        X      Y      Z
   1   6    -0.01  -0.01   0.09     0.01   0.12  -0.01     0.02   0.17  -0.12
   2   6    -0.01  -0.02  -0.02     0.00  -0.01  -0.01     0.01  -0.00   0.02
   3   6    -0.01  -0.02  -0.05     0.06  -0.07  -0.02     0.11  -0.08   0.02
   4   6    -0.01  -0.01   0.04     0.05  -0.15   0.00     0.08  -0.24   0.08
   5   6     0.00  -0.00   0.04     0.02  -0.15   0.05    -0.03  -0.28   0.21
   6   1     0.00   0.00   0.01     0.02  -0.05   0.02    -0.01  -0.10   0.07
   7   6    -0.02  -0.01   0.02    -0.06  -0.12   0.02    -0.12  -0.17   0.22
   8   6    -0.00  -0.01  -0.03    -0.07  -0.05  -0.01    -0.10  -0.05   0.01
   9   1    -0.01  -0.02  -0.02    -0.03  -0.00  -0.00    -0.07  -0.04  -0.03
  10   8     0.04   0.05  -0.12    -0.16  -0.04   0.00    -0.01   0.10  -0.18
  11   6     0.01  -0.01   0.02     0.04  -0.01   0.04    -0.01  -0.04   0.04
  12   6    -0.02   0.05  -0.01     0.03   0.26  -0.04    -0.14   0.17  -0.12
  13   6     0.04  -0.03   0.01     0.09   0.15  -0.02     0.18   0.31  -0.10
  14   1    -0.04  -0.28   0.49    -0.02   0.14  -0.15    -0.01   0.04  -0.00
  15   1    -0.03  -0.24  -0.42     0.03   0.12   0.15     0.05   0.04  -0.09
  16   1     0.06   0.53   0.07    -0.01  -0.13  -0.01    -0.02   0.12  -0.04
  17   1    -0.00  -0.01  -0.03     0.03  -0.01  -0.01     0.06  -0.01  -0.01
  18   1     0.02   0.01   0.03     0.03  -0.05   0.00     0.05  -0.10   0.02
  19   1    -0.02  -0.01   0.03     0.01  -0.04   0.00     0.03  -0.06   0.01
  20   1    -0.00  -0.00   0.01    -0.03  -0.04   0.02    -0.06  -0.06   0.09
  21   1    -0.02  -0.00   0.01    -0.03  -0.03   0.01    -0.05  -0.04   0.06
  22   1    -0.03   0.06  -0.04    -0.04  -0.02  -0.00     0.01   0.07  -0.03
  23   1    -0.00   0.01  -0.01     0.01   0.13  -0.03    -0.03   0.15  -0.10
  24   1    -0.01   0.03  -0.00     0.00   0.08  -0.01    -0.09  -0.01  -0.00
  25   1    -0.14   0.08   0.06    -0.34   0.27   0.16     0.31   0.01  -0.04
  26   1     0.03  -0.19   0.02     0.07  -0.38   0.03     0.02   0.35  -0.11
  27   1     0.16   0.10  -0.07     0.35   0.31  -0.22    -0.13  -0.03   0.04
                      7                      8                      9
                        a                      a                      a 
 Frequencies --   223.6493               239.2949               274.3444
 Red. masses --    10.2491                 8.4227                 8.7530
 Frc consts  --     0.0000                 0.0000                 0.0000
 IR Inten    --     2.3578                 0.5410                 3.8619
 Raman Activ --     0.0000                 0.0000                 0.0000
 Depolar     --     0.0000                 0.0000                 0.0000
 Atom AN      X      Y      Z        X      Y      Z        X      Y      Z
   1   6     0.06   0.40   0.12    -0.08   0.04   0.26     0.15  -0.03   0.08
   2   6     0.03  -0.07  -0.24    -0.08  -0.03  -0.21     0.14   0.04   0.02
   3   6     0.06   0.04   0.13    -0.10  -0.11  -0.51     0.09  -0.04  -0.33
   4   6     0.04   0.06   0.09    -0.08   0.07   0.17     0.07  -0.04   0.24
   5   6    -0.05   0.05  -0.02     0.07   0.12   0.13    -0.09  -0.08  -0.04
   6   1    -0.03   0.04  -0.01     0.04   0.06   0.02    -0.07   0.02  -0.02
   7   6    -0.08   0.04  -0.04    -0.02  -0.02  -0.04     0.08  -0.11   0.04
   8   6    -0.04  -0.12  -0.19    -0.04   0.02  -0.07     0.10   0.05   0.14
   9   1    -0.04   0.02  -0.05    -0.01   0.02  -0.02     0.01   0.01   0.02
  10   8     0.22  -0.53   0.09    -0.09  -0.04  -0.02     0.18   0.19   0.01
  11   6    -0.07   0.01  -0.02     0.09   0.07   0.12    -0.14  -0.08  -0.12
  12   6    -0.07   0.02  -0.03    -0.05  -0.04   0.04    -0.09   0.03  -0.09
  13   6    -0.13   0.05  -0.01     0.36  -0.06   0.04    -0.48   0.06  -0.03
  14   1    -0.12   0.15   0.09    -0.11   0.07   0.06     0.04  -0.00   0.01
  15   1     0.08   0.14   0.04    -0.05   0.06   0.19     0.02  -0.00   0.06
  16   1     0.10   0.18   0.07     0.10  -0.06   0.12     0.07  -0.04   0.03
  17   1     0.02   0.04   0.13    -0.03  -0.06  -0.23     0.03  -0.04  -0.20
  18   1     0.01   0.04   0.04     0.10   0.09   0.15     0.16   0.07   0.19
  19   1     0.01  -0.00   0.04    -0.19  -0.04   0.15    -0.10  -0.13   0.18
  20   1     0.00   0.02   0.02    -0.01  -0.01  -0.05     0.00  -0.04  -0.03
  21   1    -0.06   0.03  -0.02    -0.01  -0.06   0.01     0.07  -0.06   0.02
  22   1     0.19  -0.28   0.06    -0.05  -0.01  -0.02     0.14   0.03   0.05
  23   1    -0.02   0.01  -0.01    -0.01  -0.05  -0.02    -0.03   0.03  -0.02
  24   1    -0.02   0.00  -0.01    -0.05   0.00   0.02    -0.01   0.00  -0.03
  25   1    -0.03   0.01  -0.01     0.17  -0.05  -0.01    -0.19   0.04   0.00
  26   1    -0.04   0.04   0.01     0.10   0.01  -0.06    -0.14   0.02   0.08
  27   1    -0.06   0.00  -0.00     0.11  -0.05   0.08    -0.18   0.03  -0.07
                     10                     11                     12
                        a                      a                      a 
 Frequencies --   305.4265               316.0701               342.5341
 Red. masses --     7.6616                 5.2404                 7.5234
 Frc consts  --     0.0000                 0.0000                 0.0000
 IR Inten    --    72.2378               110.7623                18.5002
 Raman Activ --     0.0000                 0.0000                 0.0000
 Depolar     --     0.0000                 0.0000                 0.0000
 Atom AN      X      Y      Z        X      Y      Z        X      Y      Z
   1   6     0.20  -0.32   0.13    -0.22   0.03   0.00     0.05   0.25  -0.13
   2   6     0.20   0.10  -0.14    -0.20   0.07   0.09     0.03  -0.09   0.27
   3   6     0.13   0.19  -0.01    -0.12  -0.02   0.02    -0.09  -0.12  -0.08
   4   6     0.13   0.09  -0.13    -0.09  -0.13   0.08    -0.12   0.08  -0.19
   5   6    -0.04   0.02   0.11     0.04  -0.10  -0.09    -0.03   0.12   0.02
   6   1    -0.00   0.01   0.03     0.02  -0.01  -0.04     0.03   0.04  -0.01
   7   6    -0.06  -0.07   0.01    -0.04   0.01  -0.03     0.16  -0.26  -0.15
   8   6     0.01   0.03  -0.13    -0.07   0.09   0.05     0.09  -0.11   0.17
   9   1    -0.04   0.06  -0.04    -0.02   0.01   0.01     0.05  -0.08   0.04
  10   8    -0.31   0.05  -0.07    -0.01   0.18  -0.03     0.09   0.09  -0.02
  11   6    -0.07  -0.00   0.13     0.10  -0.06  -0.10    -0.06   0.15   0.13
  12   6    -0.27   0.03  -0.01     0.32   0.00   0.04    -0.26  -0.03   0.03
  13   6     0.03   0.03   0.09     0.09  -0.01  -0.10     0.06  -0.03   0.12
  14   1     0.13  -0.15   0.07    -0.03  -0.01   0.01    -0.01   0.11  -0.07
  15   1    -0.08  -0.13   0.05    -0.06  -0.01  -0.03     0.15   0.09  -0.09
  16   1     0.13  -0.14   0.06    -0.09   0.03  -0.01    -0.10   0.13  -0.08
  17   1     0.03   0.06   0.04     0.00   0.01  -0.01    -0.07  -0.07  -0.08
  18   1     0.03  -0.06  -0.10    -0.01   0.02   0.06    -0.08  -0.04  -0.11
  19   1     0.09   0.08  -0.09    -0.04  -0.08   0.06    -0.02   0.10  -0.11
  20   1    -0.00  -0.01  -0.01    -0.04  -0.01   0.02     0.04  -0.09  -0.23
  21   1    -0.05  -0.04   0.02     0.02   0.02  -0.02     0.14  -0.23   0.02
  22   1     0.35  -0.32   0.12     0.61  -0.33   0.22     0.24  -0.07   0.09
  23   1    -0.07   0.00  -0.07     0.09   0.03   0.09    -0.07  -0.06  -0.06
  24   1    -0.14   0.02   0.02     0.17  -0.01  -0.02    -0.14   0.01   0.03
  25   1     0.02   0.02   0.04     0.04  -0.00  -0.02    -0.00  -0.02   0.02
  26   1     0.01   0.01  -0.00     0.03   0.01  -0.04     0.02  -0.06   0.01
  27   1     0.01   0.01   0.03     0.02  -0.00  -0.03     0.07  -0.00   0.07
                     13                     14                     15
                        a                      a                      a 
 Frequencies --   389.3585               459.9214               486.2548
 Red. masses --     9.8294                 8.3673                 8.9768
 Frc consts  --     0.0000                 0.0000                 0.0000
 IR Inten    --    17.9512                 1.6351                 1.5975
 Raman Activ --     0.0000                 0.0000                 0.0000
 Depolar     --     0.0000                 0.0000                 0.0000
 Atom AN      X      Y      Z        X      Y      Z        X      Y      Z
   1   6    -0.17  -0.08   0.03    -0.24   0.01   0.00     0.02  -0.03   0.01
   2   6    -0.12   0.23  -0.20    -0.18   0.00  -0.03     0.01   0.03   0.21
   3   6    -0.05   0.27   0.07     0.02  -0.12   0.08     0.10  -0.09  -0.02
   4   6    -0.04  -0.14  -0.04     0.06  -0.16   0.04     0.11  -0.04  -0.00
   5   6    -0.04  -0.16  -0.02     0.32  -0.04  -0.04    -0.07  -0.05  -0.40
   6   1     0.02  -0.04  -0.02     0.13  -0.02  -0.01     0.04   0.02  -0.14
   7   6     0.00  -0.28  -0.15     0.11   0.13  -0.11    -0.08   0.24  -0.31
   8   6    -0.01   0.29  -0.05     0.06   0.09  -0.08    -0.04  -0.02   0.03
   9   1    -0.03   0.13  -0.01     0.07   0.02   0.01     0.04  -0.04   0.03
  10   8     0.43  -0.03   0.21    -0.05   0.05   0.03     0.09  -0.04   0.02
  11   6    -0.05  -0.08   0.08     0.34   0.02   0.09    -0.20  -0.30   0.24
  12   6    -0.07   0.03   0.05    -0.18  -0.07  -0.30    -0.22   0.13   0.15
  13   6     0.07   0.01   0.03    -0.12   0.06   0.30     0.15   0.03   0.08
  14   1    -0.01  -0.05   0.03    -0.07   0.00   0.00     0.06  -0.03  -0.02
  15   1    -0.15  -0.04   0.03    -0.07   0.00  -0.00     0.01  -0.02  -0.03
  16   1     0.01  -0.06   0.03    -0.06   0.00   0.00    -0.05  -0.01  -0.02
  17   1     0.04   0.12   0.07     0.06  -0.00   0.04     0.03  -0.03  -0.02
  18   1    -0.01  -0.07  -0.03    -0.01   0.00   0.03     0.06   0.12   0.10
  19   1     0.04  -0.04  -0.03     0.00  -0.05   0.02     0.01  -0.16   0.09
  20   1    -0.13  -0.14  -0.23     0.01   0.03   0.04     0.02   0.09   0.04
  21   1     0.15  -0.24   0.02     0.00   0.08  -0.05     0.01   0.20  -0.15
  22   1    -0.07   0.10  -0.02     0.02  -0.04   0.01     0.01   0.02   0.01
  23   1    -0.02   0.03  -0.00    -0.04  -0.07  -0.32    -0.06   0.04   0.02
  24   1    -0.03   0.00   0.02    -0.27   0.01  -0.01    -0.08   0.09   0.04
  25   1     0.04   0.02   0.04    -0.11   0.01   0.05     0.17   0.07   0.14
  26   1     0.02  -0.00  -0.03    -0.03   0.05   0.24     0.03   0.06  -0.14
  27   1     0.04   0.02  -0.00    -0.13   0.00   0.02     0.08   0.04  -0.01
                     16                     17                     18
                        a                      a                      a 
 Frequencies --   520.4997               555.6579               592.2962
 Red. masses --     8.6023                10.2754                10.0663
 Frc consts  --     0.0000                 0.0000                 0.0000
 IR Inten    --     3.8066                 6.4477                 2.7743
 Raman Activ --     0.0000                 0.0000                 0.0000
 Depolar     --     0.0000                 0.0000                 0.0000
 Atom AN      X      Y      Z        X      Y      Z        X      Y      Z
   1   6     0.09   0.01  -0.01     0.06   0.05  -0.05    -0.09  -0.06  -0.00
   2   6     0.05   0.00  -0.07     0.02  -0.26  -0.42    -0.07  -0.28  -0.36
   3   6     0.00   0.05   0.05    -0.19   0.04   0.16     0.26  -0.34   0.19
   4   6    -0.08  -0.31   0.03    -0.23  -0.07   0.03     0.28   0.08   0.01
   5   6    -0.08  -0.22  -0.20    -0.03  -0.04  -0.06    -0.01   0.10  -0.05
   6   1     0.03  -0.11  -0.05    -0.02  -0.03  -0.01     0.00   0.07  -0.03
   7   6     0.09   0.03   0.01     0.31   0.02   0.08    -0.17   0.06  -0.11
   8   6     0.11   0.04  -0.04     0.32   0.04   0.01    -0.22   0.01   0.25
   9   1     0.03   0.03  -0.00     0.09   0.06   0.03    -0.06   0.01   0.07
  10   8    -0.04   0.06   0.01    -0.15   0.28   0.02     0.07   0.25   0.07
  11   6    -0.12   0.61  -0.03    -0.10  -0.29   0.09    -0.06   0.14  -0.02
  12   6    -0.14  -0.10   0.15    -0.05   0.07   0.05    -0.03  -0.01   0.04
  13   6     0.04  -0.02   0.01     0.01  -0.01   0.00    -0.01   0.01  -0.04
  14   1     0.01   0.01   0.00    -0.16   0.08   0.02    -0.15   0.01   0.05
  15   1     0.03   0.01   0.00     0.09   0.07   0.05    -0.04   0.01   0.07
  16   1     0.04   0.01   0.00     0.14   0.06   0.03     0.13  -0.01   0.06
  17   1     0.03   0.04   0.05    -0.07   0.01   0.08     0.06  -0.12  -0.02
  18   1     0.03  -0.01   0.08    -0.10  -0.01  -0.00    -0.02  -0.00  -0.06
  19   1    -0.00  -0.22   0.08    -0.03  -0.02  -0.01     0.14   0.07  -0.05
  20   1     0.03   0.02   0.14     0.11   0.02   0.07    -0.08  -0.00  -0.13
  21   1     0.00   0.14  -0.06     0.09   0.06  -0.00     0.04  -0.06  -0.01
  22   1    -0.00  -0.02  -0.00     0.01   0.00   0.01     0.10   0.16   0.09
  23   1    -0.04   0.03   0.03    -0.02  -0.03   0.04    -0.01   0.04   0.03
  24   1    -0.04  -0.17   0.07     0.00   0.11  -0.01     0.01  -0.07   0.02
  25   1    -0.05  -0.12  -0.17     0.08   0.06   0.11    -0.02  -0.03  -0.06
  26   1     0.03  -0.14  -0.03    -0.01   0.05  -0.07     0.00  -0.04  -0.02
  27   1     0.15  -0.05   0.22    -0.01   0.03  -0.08     0.04  -0.01   0.05
                     19                     20                     21
                        a                      a                      a 
 Frequencies --   669.0417               712.7907               785.2012
 Red. masses --     9.7768                 1.9744                 9.3690
 Frc consts  --     0.0000                 0.0000                 0.0000
 IR Inten    --     1.6263                 0.1471                10.3650
 Raman Activ --     0.0000                 0.0000                 0.0000
 Depolar     --     0.0000                 0.0000                 0.0000
 Atom AN      X      Y      Z        X      Y      Z        X      Y      Z
   1   6    -0.44   0.03   0.01     0.00   0.00  -0.00     0.24  -0.04   0.04
   2   6    -0.17   0.11   0.07     0.00  -0.02   0.00    -0.01  -0.11   0.14
   3   6     0.21  -0.14  -0.05    -0.09   0.05  -0.01     0.03  -0.37  -0.06
   4   6     0.30   0.02   0.03    -0.03   0.14   0.01    -0.14  -0.20   0.06
   5   6     0.02   0.05   0.13     0.01  -0.01   0.02     0.10   0.08   0.22
   6   1    -0.06   0.02   0.05    -0.01   0.04  -0.01     0.03   0.02   0.06
   7   6     0.33   0.01   0.10     0.03   0.03  -0.05    -0.16   0.20  -0.15
   8   6     0.28   0.03  -0.17     0.07  -0.01  -0.01     0.08   0.32  -0.33
   9   1     0.13  -0.02  -0.03     0.03  -0.01   0.00     0.06   0.11  -0.05
  10   8    -0.10  -0.07  -0.05    -0.01   0.01   0.00     0.05   0.13   0.15
  11   6    -0.24   0.01   0.01     0.01  -0.20   0.04    -0.06  -0.02   0.02
  12   6    -0.12   0.04   0.15     0.01   0.02  -0.02    -0.05   0.02   0.05
  13   6    -0.09  -0.03  -0.17     0.00  -0.02   0.03    -0.05  -0.03  -0.15
  14   1    -0.08  -0.00  -0.01    -0.02   0.01  -0.00     0.09   0.00  -0.03
  15   1    -0.14  -0.00  -0.01     0.02   0.01  -0.00     0.16  -0.00  -0.03
  16   1    -0.15  -0.00  -0.01    -0.00   0.01  -0.00    -0.02   0.01  -0.02
  17   1     0.12  -0.01  -0.04    -0.05  -0.00  -0.02     0.03  -0.01   0.28
  18   1     0.07  -0.06  -0.04    -0.02   0.03  -0.01    -0.08  -0.08  -0.02
  19   1     0.09   0.07  -0.04    -0.02   0.06  -0.01    -0.12   0.06  -0.02
  20   1     0.12   0.01  -0.01     0.02   0.01  -0.01    -0.16   0.01  -0.15
  21   1     0.05  -0.03   0.05     0.01   0.01  -0.02    -0.06  -0.08   0.03
  22   1    -0.05  -0.14  -0.06    -0.01  -0.01  -0.00    -0.04  -0.11  -0.03
  23   1    -0.04   0.04   0.14     0.03   0.65  -0.15    -0.02   0.03   0.07
  24   1     0.05  -0.02   0.02    -0.03  -0.64   0.13     0.03  -0.02   0.00
  25   1     0.02  -0.01  -0.03    -0.04  -0.05  -0.06    -0.02  -0.01  -0.04
  26   1    -0.03  -0.03  -0.14     0.01  -0.07   0.03    -0.02  -0.01  -0.04
  27   1     0.04  -0.00  -0.01     0.03  -0.03   0.07    -0.03  -0.01  -0.05
                     22                     23                     24
                        a                      a                      a 
 Frequencies --   818.6903               880.2242               892.8062
 Red. masses --     3.5675                 5.6156                 3.8047
 Frc consts  --     0.0000                 0.0000                 0.0000
 IR Inten    --    10.5304                 2.9796                23.3390
 Raman Activ --     0.0000                 0.0000                 0.0000
 Depolar     --     0.0000                 0.0000                 0.0000
 Atom AN      X      Y      Z        X      Y      Z        X      Y      Z
   1   6    -0.10   0.00   0.02    -0.07   0.01  -0.00     0.01   0.01  -0.00
   2   6     0.01  -0.05  -0.05     0.02   0.03  -0.01    -0.00   0.02  -0.01
   3   6     0.04  -0.07  -0.20    -0.03   0.03  -0.24     0.01   0.00  -0.02
   4   6     0.09   0.11  -0.28     0.02   0.07   0.20    -0.02  -0.05   0.02
   5   6    -0.04   0.05  -0.06     0.09  -0.06   0.07     0.01   0.03  -0.00
   6   1    -0.02  -0.08   0.03     0.09   0.19  -0.09    -0.00   0.02  -0.00
   7   6     0.06  -0.01   0.19    -0.04  -0.33  -0.24     0.01  -0.01   0.00
   8   6    -0.05  -0.10   0.10     0.00  -0.19  -0.01    -0.02  -0.01   0.02
   9   1    -0.07   0.02   0.01     0.03   0.01   0.04    -0.01   0.00   0.01
  10   8    -0.03   0.04  -0.01     0.08   0.15   0.17    -0.00  -0.01  -0.01
  11   6     0.01  -0.01  -0.01    -0.00   0.03   0.03    -0.00  -0.12   0.02
  12   6     0.02  -0.00  -0.02    -0.04  -0.01   0.04     0.02   0.47  -0.11
  13   6     0.01  -0.00   0.05    -0.02  -0.01  -0.10    -0.00   0.04   0.01
  14   1     0.02  -0.00  -0.03    -0.01   0.00  -0.00     0.01  -0.00   0.00
  15   1    -0.01  -0.01  -0.03    -0.02  -0.00  -0.01    -0.01  -0.00   0.00
  16   1    -0.10  -0.00  -0.02    -0.03   0.00  -0.00     0.01  -0.01   0.00
  17   1     0.00   0.19   0.70     0.02   0.13   0.30     0.02   0.01   0.02
  18   1     0.20   0.22   0.13    -0.01  -0.19  -0.09    -0.01  -0.03  -0.01
  19   1    -0.18  -0.16   0.13     0.00   0.26  -0.09     0.00   0.00  -0.01
  20   1     0.05  -0.00  -0.08     0.08  -0.02   0.35     0.01   0.00   0.01
  21   1     0.06  -0.10   0.09    -0.19   0.27  -0.21     0.00   0.01  -0.01
  22   1     0.03   0.07   0.03     0.03   0.14   0.08     0.01   0.01   0.01
  23   1     0.01   0.02  -0.02    -0.01   0.00   0.02    -0.03  -0.61   0.13
  24   1    -0.01  -0.02   0.00    -0.00   0.04   0.00    -0.02  -0.57   0.11
  25   1     0.01   0.00   0.02    -0.02  -0.01  -0.03    -0.02  -0.03  -0.06
  26   1     0.00   0.00   0.01    -0.01  -0.00  -0.02     0.00  -0.03   0.01
  27   1     0.00   0.00   0.01    -0.02  -0.01  -0.03     0.02  -0.01   0.06
                     25                     26                     27
                        a                      a                      a 
 Frequencies --   906.1695               926.2591               957.6500
 Red. masses --     9.6417                 7.6514                 5.8416
 Frc consts  --     0.0000                 0.0000                 0.0000
 IR Inten    --    33.9291                11.1677                 7.8319
 Raman Activ --     0.0000                 0.0000                 0.0000
 Depolar     --     0.0000                 0.0000                 0.0000
 Atom AN      X      Y      Z        X      Y      Z        X      Y      Z
   1   6     0.08   0.06  -0.03     0.07   0.07  -0.04    -0.07  -0.01  -0.00
   2   6    -0.01   0.09  -0.08    -0.03   0.12  -0.03     0.04  -0.02  -0.03
   3   6    -0.05   0.15   0.01     0.09  -0.08  -0.17    -0.03   0.17   0.07
   4   6    -0.09  -0.22  -0.02    -0.12  -0.26   0.27     0.05  -0.15  -0.14
   5   6     0.36   0.10   0.16    -0.22   0.10  -0.03    -0.01   0.06   0.23
   6   1     0.23  -0.02   0.03    -0.17   0.13  -0.02     0.07  -0.07   0.08
   7   6     0.12   0.19  -0.09     0.16   0.20  -0.03    -0.10   0.10  -0.21
   8   6    -0.18  -0.12   0.28    -0.08   0.00   0.19     0.09  -0.23  -0.03
   9   1    -0.01  -0.05   0.09    -0.01  -0.01   0.04     0.12  -0.09   0.04
  10   8    -0.06  -0.16  -0.16    -0.06  -0.15  -0.17     0.03   0.11   0.12
  11   6     0.02  -0.01   0.16    -0.04  -0.01  -0.13    -0.05  -0.01  -0.06
  12   6    -0.10   0.03   0.20     0.02  -0.07  -0.16    -0.23  -0.03  -0.19
  13   6    -0.14  -0.08  -0.38     0.09   0.03   0.28     0.17   0.01   0.10
  14   1     0.08  -0.03   0.02     0.10  -0.05   0.03    -0.06   0.02  -0.00
  15   1    -0.10  -0.02   0.01    -0.13  -0.02   0.01     0.01   0.01   0.00
  16   1     0.08  -0.04   0.01     0.09  -0.05   0.02    -0.02   0.02  -0.00
  17   1     0.06   0.08   0.02     0.15   0.10   0.19     0.01   0.03  -0.08
  18   1     0.00  -0.04   0.02    -0.13  -0.27  -0.10     0.16  -0.01   0.05
  19   1    -0.08  -0.04   0.01     0.05   0.15  -0.10    -0.04  -0.14   0.05
  20   1     0.06   0.06  -0.11     0.09   0.06  -0.12     0.11   0.07  -0.10
  21   1     0.09  -0.02   0.01     0.19   0.01  -0.01    -0.16  -0.03  -0.01
  22   1     0.07   0.13   0.06     0.02   0.04   0.00     0.03   0.05   0.05
  23   1    -0.03   0.06   0.01     0.00   0.09   0.05    -0.09   0.08   0.38
  24   1    -0.09   0.01   0.09     0.13  -0.01  -0.10     0.34  -0.06  -0.19
  25   1    -0.05  -0.01  -0.09     0.05   0.02   0.10    -0.08   0.01  -0.00
  26   1    -0.04  -0.01  -0.10     0.03   0.02   0.07     0.05   0.05   0.26
  27   1    -0.08  -0.02  -0.15     0.04   0.02   0.07    -0.10  -0.02  -0.06
                     28                     29                     30
                        a                      a                      a 
 Frequencies --   982.3070               990.3628              1026.9289
 Red. masses --     6.2582                 7.1625                 4.3584
 Frc consts  --     0.0000                 0.0000                 0.0000
 IR Inten    --     3.5652                47.6044                15.0537
 Raman Activ --     0.0000                 0.0000                 0.0000
 Depolar     --     0.0000                 0.0000                 0.0000
 Atom AN      X      Y      Z        X      Y      Z        X      Y      Z
   1   6     0.10   0.19  -0.01    -0.01   0.21  -0.06     0.02   0.02  -0.38
   2   6    -0.08   0.08  -0.04    -0.01   0.09  -0.05    -0.02   0.08   0.27
   3   6     0.14  -0.25   0.14     0.14  -0.08   0.09    -0.04  -0.05  -0.09
   4   6    -0.18   0.14  -0.10    -0.15  -0.15  -0.09     0.01   0.12   0.02
   5   6     0.19   0.03  -0.10    -0.21   0.17   0.07     0.02  -0.12  -0.04
   6   1     0.14   0.03  -0.06    -0.13  -0.01   0.06     0.01  -0.09   0.01
   7   6     0.15  -0.26   0.15    -0.03  -0.02  -0.05    -0.05   0.03   0.02
   8   6    -0.12   0.13  -0.05     0.04  -0.31  -0.20     0.07  -0.01  -0.01
   9   1    -0.12   0.09  -0.04     0.06  -0.11  -0.03     0.10  -0.14  -0.00
  10   8     0.01  -0.03  -0.01     0.07   0.22   0.24     0.01   0.02   0.01
  11   6    -0.05   0.01  -0.00     0.04  -0.00  -0.01     0.01  -0.07   0.04
  12   6    -0.20  -0.01  -0.08     0.20   0.01   0.07    -0.04   0.00   0.03
  13   6     0.06  -0.05   0.04    -0.04  -0.04  -0.01     0.06   0.09  -0.06
  14   1     0.28  -0.10   0.02     0.21  -0.09   0.04    -0.26  -0.02   0.17
  15   1    -0.25  -0.06  -0.01    -0.33  -0.05   0.01    -0.26   0.05   0.18
  16   1     0.06  -0.11   0.01     0.09  -0.11   0.02     0.56  -0.03   0.12
  17   1     0.01  -0.11  -0.06     0.09  -0.03  -0.08    -0.08   0.01   0.15
  18   1    -0.16   0.21   0.03    -0.03   0.03   0.02    -0.07   0.07  -0.00
  19   1    -0.15   0.01   0.03    -0.08  -0.09   0.03     0.07  -0.01  -0.00
  20   1     0.00  -0.07   0.21     0.21   0.08  -0.07    -0.10  -0.03  -0.02
  21   1     0.03   0.08  -0.03    -0.20  -0.06   0.04     0.01  -0.03   0.02
  22   1    -0.01   0.00  -0.01    -0.01   0.00   0.02    -0.03  -0.10  -0.04
  23   1    -0.07   0.08   0.23     0.07  -0.02  -0.24    -0.01  -0.02   0.04
  24   1     0.19  -0.07  -0.10    -0.18  -0.01   0.11     0.01   0.06  -0.01
  25   1    -0.01   0.03   0.05     0.05   0.02   0.05    -0.10  -0.05  -0.15
  26   1     0.01   0.04   0.09    -0.01   0.00  -0.09     0.03  -0.03   0.12
  27   1    -0.06   0.00  -0.08     0.02   0.01  -0.01    -0.02  -0.03   0.06
                     31                     32                     33
                        a                      a                      a 
 Frequencies --  1035.5447              1036.6494              1056.4987
 Red. masses --     5.1212                 4.5993                 6.1761
 Frc consts  --     0.0000                 0.0000                 0.0000
 IR Inten    --     5.8296                 4.2150                 6.9138
 Raman Activ --     0.0000                 0.0000                 0.0000
 Depolar     --     0.0000                 0.0000                 0.0000
 Atom AN      X      Y      Z        X      Y      Z        X      Y      Z
   1   6    -0.04  -0.04   0.03     0.02   0.16   0.13     0.00   0.23   0.02
   2   6     0.03   0.01  -0.01    -0.01  -0.07  -0.14    -0.00  -0.13  -0.08
   3   6     0.10  -0.04  -0.01    -0.04  -0.03   0.02    -0.12  -0.01   0.01
   4   6    -0.03  -0.02   0.03     0.00   0.07   0.03     0.11   0.17   0.03
   5   6    -0.30   0.03  -0.12    -0.07  -0.10   0.02    -0.05  -0.28   0.11
   6   1    -0.08   0.04  -0.04    -0.04  -0.02   0.01    -0.02  -0.08   0.04
   7   6     0.01  -0.03   0.04     0.00   0.06  -0.05    -0.14   0.11  -0.14
   8   6     0.05   0.07   0.03     0.08  -0.00   0.05     0.24   0.08   0.16
   9   1    -0.04   0.04  -0.02     0.07   0.00   0.04     0.26  -0.07   0.12
  10   8    -0.01  -0.03  -0.04    -0.02  -0.01  -0.03    -0.03  -0.07  -0.11
  11   6     0.06   0.08   0.09    -0.00  -0.27   0.07     0.01   0.20  -0.05
  12   6    -0.00   0.05   0.21     0.00  -0.02   0.05     0.03   0.02  -0.01
  13   6     0.32  -0.14  -0.22     0.09   0.34  -0.10    -0.01  -0.18   0.04
  14   1    -0.03   0.02  -0.02     0.29  -0.06  -0.05     0.26  -0.08   0.01
  15   1     0.05   0.01  -0.01    -0.11  -0.06  -0.08    -0.26  -0.06  -0.04
  16   1    -0.05   0.02  -0.01    -0.18  -0.07  -0.04    -0.02  -0.10  -0.01
  17   1     0.06   0.00  -0.00    -0.08  -0.04  -0.00    -0.24  -0.07   0.08
  18   1    -0.02  -0.03  -0.01     0.02  -0.02  -0.00     0.15  -0.06  -0.00
  19   1     0.02   0.01  -0.01    -0.00   0.04  -0.00    -0.00   0.07   0.01
  20   1     0.03   0.00   0.00    -0.04  -0.00  -0.02    -0.24  -0.05  -0.00
  21   1     0.05   0.03  -0.01     0.03   0.01  -0.01     0.04   0.01  -0.04
  22   1    -0.02  -0.04  -0.03     0.01   0.02   0.00     0.00  -0.02  -0.02
  23   1     0.00  -0.00  -0.06     0.00  -0.04  -0.01     0.01  -0.05  -0.01
  24   1    -0.15  -0.04   0.13    -0.02   0.20  -0.02    -0.01  -0.08   0.02
  25   1    -0.21   0.04  -0.06    -0.22  -0.18  -0.44     0.09   0.09   0.21
  26   1     0.08   0.14   0.46     0.05  -0.15   0.21    -0.02   0.09  -0.06
  27   1    -0.32  -0.06  -0.39     0.05  -0.08   0.32    -0.05   0.04  -0.19
                     34                     35                     36
                        a                      a                      a 
 Frequencies --  1075.2114              1106.0369              1129.9163
 Red. masses --     8.4541                 7.2457                 3.6166
 Frc consts  --     0.0000                 0.0000                 0.0000
 IR Inten    --   104.2771                14.6295                43.4462
 Raman Activ --     0.0000                 0.0000                 0.0000
 Depolar     --     0.0000                 0.0000                 0.0000
 Atom AN      X      Y      Z        X      Y      Z        X      Y      Z
   1   6    -0.07  -0.08  -0.07    -0.14   0.01   0.07    -0.03   0.04  -0.02
   2   6     0.04   0.07   0.02     0.16   0.04  -0.10     0.06  -0.09  -0.01
   3   6     0.22  -0.05   0.15     0.17   0.06  -0.13    -0.07   0.09   0.10
   4   6    -0.16  -0.07  -0.25    -0.19  -0.01   0.12     0.06  -0.20  -0.10
   5   6    -0.14   0.15   0.21     0.16   0.06  -0.22     0.08   0.19  -0.12
   6   1    -0.04   0.12   0.02     0.12  -0.02  -0.06     0.02   0.38  -0.17
   7   6    -0.12  -0.17  -0.17    -0.35   0.01   0.16    -0.11  -0.01   0.16
   8   6     0.23   0.27   0.26     0.35  -0.14   0.16     0.05  -0.07   0.07
   9   1     0.16   0.11   0.14     0.12  -0.10   0.03    -0.12  -0.25  -0.15
  10   8    -0.04  -0.20  -0.21    -0.02   0.01  -0.02     0.05   0.14   0.05
  11   6    -0.01  -0.06  -0.03     0.02  -0.00   0.04     0.01  -0.02   0.02
  12   6     0.09  -0.02  -0.03    -0.05  -0.00  -0.02    -0.03  -0.00  -0.00
  13   6    -0.02   0.06   0.03    -0.02  -0.01  -0.01    -0.01   0.02  -0.00
  14   1    -0.15   0.02   0.02    -0.00   0.01  -0.03     0.01  -0.01   0.01
  15   1     0.04   0.03   0.04    -0.01  -0.01  -0.03    -0.08  -0.01   0.00
  16   1     0.08   0.03   0.02    -0.13   0.01  -0.02     0.02  -0.02   0.00
  17   1     0.17   0.01  -0.04     0.24   0.12   0.01    -0.00   0.02  -0.03
  18   1     0.12   0.05   0.06    -0.39   0.16  -0.03     0.30  -0.20   0.01
  19   1    -0.30  -0.02   0.06     0.12  -0.01  -0.04    -0.24   0.10   0.00
  20   1    -0.05  -0.03   0.17    -0.21  -0.05  -0.04    -0.23  -0.08   0.05
  21   1    -0.13   0.11  -0.10    -0.13  -0.14   0.12     0.23   0.04  -0.01
  22   1     0.04   0.07   0.02    -0.03  -0.05  -0.03    -0.17  -0.33  -0.19
  23   1     0.03  -0.00  -0.08    -0.02   0.02   0.04    -0.01   0.03   0.02
  24   1    -0.02   0.03   0.00     0.04  -0.01  -0.02     0.02   0.00  -0.01
  25   1     0.01  -0.03  -0.04     0.01   0.00   0.01    -0.00  -0.02  -0.03
  26   1    -0.00  -0.03  -0.04    -0.01  -0.00  -0.04     0.00  -0.02  -0.01
  27   1     0.05  -0.00   0.09     0.01   0.00  -0.00     0.01   0.00   0.01
                     37                     38                     39
                        a                      a                      a 
 Frequencies --  1149.1313              1168.1579              1180.1677
 Red. masses --     7.0694                 7.4276                 4.4285
 Frc consts  --     0.0000                 0.0000                 0.0000
 IR Inten    --    11.2671                44.2869                13.6037
 Raman Activ --     0.0000                 0.0000                 0.0000
 Depolar     --     0.0000                 0.0000                 0.0000
 Atom AN      X      Y      Z        X      Y      Z        X      Y      Z
   1   6    -0.08  -0.09   0.03    -0.33   0.08  -0.05     0.05  -0.01  -0.03
   2   6     0.12   0.08  -0.05     0.58  -0.19   0.14    -0.09   0.04   0.07
   3   6     0.28   0.02   0.06     0.14   0.05  -0.01    -0.05   0.02   0.07
   4   6    -0.24   0.23   0.00    -0.15  -0.08   0.05     0.05  -0.03  -0.02
   5   6    -0.02  -0.41   0.11    -0.01   0.01   0.00     0.08  -0.03  -0.19
   6   1    -0.03  -0.16   0.06     0.09   0.01  -0.03    -0.09   0.19  -0.11
   7   6     0.10   0.18  -0.12    -0.02   0.08  -0.00     0.01   0.09   0.22
   8   6    -0.15  -0.18  -0.06     0.02   0.03  -0.10     0.06  -0.18  -0.32
   9   1     0.00  -0.17  -0.04    -0.25   0.34  -0.05     0.22   0.15   0.12
  10   8     0.02   0.09   0.07    -0.03  -0.03  -0.01    -0.11  -0.10   0.05
  11   6    -0.00   0.04  -0.01     0.04  -0.01   0.03    -0.05   0.00  -0.03
  12   6     0.01   0.00  -0.00    -0.00  -0.00  -0.02    -0.02   0.01   0.04
  13   6    -0.00  -0.00   0.02    -0.03   0.00  -0.02     0.05   0.00   0.03
  14   1    -0.10   0.03  -0.02    -0.11   0.01   0.02    -0.01  -0.01   0.02
  15   1     0.08   0.01  -0.00    -0.26  -0.02   0.03     0.02   0.01   0.02
  16   1    -0.06   0.04  -0.01    -0.06  -0.01  -0.00     0.05   0.01   0.01
  17   1     0.20   0.04  -0.05    -0.28  -0.14   0.00     0.08   0.02  -0.08
  18   1    -0.04   0.06   0.02     0.02  -0.10  -0.01     0.13  -0.08  -0.00
  19   1    -0.38   0.28   0.01    -0.02   0.00  -0.01    -0.21   0.15  -0.00
  20   1    -0.07   0.00  -0.07     0.02   0.03  -0.06    -0.27  -0.09  -0.00
  21   1     0.27   0.06  -0.07     0.07   0.01  -0.01     0.04  -0.11   0.11
  22   1    -0.03  -0.09  -0.04     0.05   0.12   0.07     0.21   0.47   0.28
  23   1     0.00  -0.05   0.00    -0.00   0.01   0.00    -0.01   0.00  -0.00
  24   1    -0.00   0.01  -0.00     0.02  -0.00  -0.01    -0.03   0.01   0.02
  25   1     0.01  -0.01  -0.00     0.01  -0.01  -0.01    -0.01  -0.00  -0.01
  26   1    -0.00  -0.01  -0.01    -0.01  -0.01  -0.03     0.01   0.00   0.04
  27   1     0.00   0.01  -0.01     0.01   0.00   0.01    -0.02  -0.00  -0.02
                     40                     41                     42
                        a                      a                      a 
 Frequencies --  1222.8667              1252.2616              1270.7169
 Red. masses --     3.7650                 5.7664                 5.2737
 Frc consts  --     0.0000                 0.0000                 0.0000
 IR Inten    --     1.7103                 9.4741                13.9060
 Raman Activ --     0.0000                 0.0000                 0.0000
 Depolar     --     0.0000                 0.0000                 0.0000
 Atom AN      X      Y      Z        X      Y      Z        X      Y      Z
   1   6    -0.02  -0.01   0.02     0.08   0.02  -0.02    -0.01   0.05  -0.02
   2   6     0.05  -0.02  -0.01    -0.21   0.04   0.04     0.05  -0.09   0.06
   3   6     0.08   0.01  -0.08    -0.11  -0.08   0.03    -0.20   0.06  -0.02
   4   6    -0.10  -0.01  -0.07     0.08   0.08  -0.01     0.23  -0.13  -0.11
   5   6    -0.16   0.20   0.27    -0.26  -0.10   0.11     0.22  -0.15   0.22
   6   1     0.12   0.05   0.03     0.38   0.05  -0.11    -0.37   0.27   0.03
   7   6     0.12  -0.01  -0.03    -0.28  -0.00   0.08    -0.05   0.04  -0.11
   8   6    -0.12  -0.10  -0.17     0.31  -0.13  -0.04     0.07  -0.11   0.04
   9   1     0.16  -0.14   0.03    -0.20   0.25  -0.06    -0.19   0.23  -0.01
  10   8    -0.02   0.02   0.05    -0.03  -0.01  -0.00     0.01   0.03  -0.02
  11   6    -0.01  -0.03  -0.01     0.15   0.03   0.14    -0.19   0.02  -0.19
  12   6     0.05  -0.01  -0.02     0.01  -0.01  -0.08     0.03   0.01   0.07
  13   6    -0.03  -0.00  -0.02    -0.08  -0.00  -0.06     0.07  -0.00   0.06
  14   1    -0.01   0.01  -0.01     0.05  -0.02   0.01     0.02  -0.01   0.01
  15   1     0.01  -0.00  -0.01     0.02   0.01   0.01    -0.06  -0.01   0.01
  16   1    -0.04   0.00  -0.01     0.06  -0.01   0.01     0.01  -0.02   0.00
  17   1     0.01   0.01   0.01     0.19   0.06  -0.05     0.12   0.08  -0.04
  18   1    -0.09   0.09   0.01     0.02   0.03   0.00    -0.34   0.33   0.02
  19   1     0.35  -0.32   0.01     0.02   0.01   0.01    -0.04  -0.03   0.02
  20   1    -0.40  -0.16   0.17     0.22   0.10  -0.14    -0.02   0.01  -0.01
  21   1     0.40   0.18  -0.14     0.35   0.11  -0.09     0.13   0.07  -0.08
  22   1     0.04   0.08   0.06     0.01   0.06   0.03    -0.03  -0.04  -0.03
  23   1     0.02   0.01  -0.05     0.01  -0.03  -0.02     0.00  -0.02   0.01
  24   1     0.00  -0.01  -0.00     0.09  -0.01  -0.06    -0.11   0.02   0.06
  25   1     0.01   0.00   0.01     0.02  -0.02  -0.02    -0.01   0.01   0.03
  26   1    -0.01   0.01   0.02    -0.02  -0.02  -0.07     0.02   0.03   0.10
  27   1     0.02   0.01   0.01     0.02   0.01  -0.01     0.00   0.00   0.01
                     43                     44                     45
                        a                      a                      a 
 Frequencies --  1285.6001              1294.6983              1324.7455
 Red. masses --     6.9325                 3.8172                 3.1188
 Frc consts  --     0.0000                 0.0000                 0.0000
 IR Inten    --    19.7893                 3.8274                94.2566
 Raman Activ --     0.0000                 0.0000                 0.0000
 Depolar     --     0.0000                 0.0000                 0.0000
 Atom AN      X      Y      Z        X      Y      Z        X      Y      Z
   1   6    -0.00  -0.02   0.01    -0.00  -0.06   0.03    -0.00   0.00   0.01
   2   6     0.01   0.06  -0.03     0.01   0.17  -0.08    -0.04   0.03  -0.03
   3   6     0.06   0.02  -0.02     0.15   0.03  -0.02     0.00  -0.00  -0.00
   4   6     0.04  -0.07  -0.06     0.03  -0.11  -0.03     0.06  -0.03  -0.01
   5   6    -0.16  -0.12  -0.01     0.04  -0.18   0.11    -0.05  -0.03   0.05
   6   1    -0.42   0.27  -0.03     0.27   0.35  -0.21    -0.02   0.01   0.01
   7   6     0.01  -0.00   0.02    -0.13  -0.01   0.15     0.09   0.05  -0.11
   8   6    -0.05   0.02  -0.03    -0.06   0.11  -0.05     0.26   0.16   0.05
   9   1     0.13  -0.06   0.05     0.25  -0.23   0.04    -0.41  -0.47  -0.49
  10   8     0.00  -0.00   0.00    -0.01  -0.03   0.01    -0.13  -0.12   0.11
  11   6     0.53   0.07   0.35    -0.22  -0.00  -0.14     0.01   0.01   0.00
  12   6    -0.16  -0.01  -0.07     0.07   0.00   0.02     0.00  -0.00  -0.00
  13   6    -0.14  -0.01  -0.12     0.05   0.01   0.04     0.00  -0.00   0.00
  14   1    -0.02   0.01  -0.01    -0.04   0.03  -0.03     0.01   0.01  -0.02
  15   1     0.02   0.00  -0.00     0.05   0.00  -0.01     0.01  -0.00  -0.01
  16   1    -0.02   0.01  -0.00    -0.03   0.04  -0.01     0.02   0.01   0.01
  17   1    -0.16  -0.06   0.03    -0.40  -0.17   0.08    -0.06  -0.02   0.02
  18   1    -0.15   0.12   0.00    -0.17   0.12   0.00    -0.07   0.05  -0.00
  19   1    -0.01  -0.04   0.01    -0.05  -0.01   0.00    -0.03   0.01   0.01
  20   1     0.05   0.02  -0.02     0.29   0.11  -0.11    -0.11  -0.03   0.00
  21   1     0.02   0.01  -0.00     0.07  -0.02   0.03    -0.11   0.00  -0.01
  22   1     0.01   0.02   0.01     0.01   0.03   0.02     0.13   0.31   0.21
  23   1    -0.05   0.03   0.21     0.02  -0.04  -0.10     0.00  -0.01  -0.01
  24   1     0.11  -0.01  -0.06    -0.03   0.01   0.01     0.00   0.00  -0.00
  25   1     0.01  -0.04  -0.07     0.00   0.02   0.03    -0.00   0.00  -0.00
  26   1    -0.04  -0.04  -0.20     0.01   0.01   0.09    -0.00   0.00  -0.01
  27   1     0.00   0.02  -0.05     0.00  -0.01   0.02    -0.00  -0.00  -0.00
                     46                     47                     48
                        a                      a                      a 
 Frequencies --  1327.3699              1333.6042              1352.3184
 Red. masses --     5.3714                 6.7427                 5.0558
 Frc consts  --     0.0000                 0.0000                 0.0000
 IR Inten    --     3.5322                 5.6334                18.5551
 Raman Activ --     0.0000                 0.0000                 0.0000
 Depolar     --     0.0000                 0.0000                 0.0000
 Atom AN      X      Y      Z        X      Y      Z        X      Y      Z
   1   6     0.00  -0.00  -0.00    -0.07   0.10  -0.02    -0.04   0.03   0.00
   2   6    -0.06   0.00   0.01     0.24  -0.39   0.09     0.07  -0.10   0.01
   3   6     0.08  -0.08   0.00    -0.22   0.06  -0.02    -0.01  -0.01   0.00
   4   6    -0.39   0.27  -0.08     0.11   0.03  -0.02    -0.15   0.07   0.02
   5   6     0.15  -0.29   0.09    -0.17  -0.12   0.03     0.28   0.09  -0.08
   6   1    -0.08   0.42  -0.16     0.20   0.14  -0.13    -0.30  -0.15   0.14
   7   6     0.07   0.12  -0.03     0.12  -0.00   0.06    -0.35  -0.18   0.09
   8   6     0.04  -0.03   0.06    -0.23   0.31  -0.08     0.01   0.20  -0.10
   9   1    -0.13   0.06  -0.04     0.19  -0.21   0.01     0.13  -0.22  -0.06
  10   8     0.00   0.00  -0.01    -0.01  -0.03   0.01    -0.04  -0.05   0.03
  11   6    -0.02   0.01  -0.03     0.02   0.02   0.05     0.01  -0.01  -0.07
  12   6    -0.00   0.00   0.01     0.01  -0.00  -0.02    -0.02   0.01   0.02
  13   6     0.01  -0.01  -0.01    -0.01   0.00  -0.01    -0.01  -0.01  -0.02
  14   1     0.02  -0.01   0.00     0.02  -0.03   0.04     0.01  -0.01   0.01
  15   1     0.02   0.01   0.00    -0.11  -0.02  -0.02    -0.02  -0.01  -0.02
  16   1     0.02  -0.00   0.01    -0.01  -0.08  -0.01     0.00  -0.03   0.00
  17   1     0.15   0.04   0.00     0.44   0.21  -0.07     0.11   0.04  -0.01
  18   1     0.29  -0.15   0.01    -0.06   0.09   0.00     0.16  -0.09   0.02
  19   1     0.34  -0.27  -0.01    -0.01   0.03  -0.00     0.11  -0.04  -0.02
  20   1     0.03   0.03  -0.05     0.11   0.03  -0.04     0.33   0.11  -0.05
  21   1    -0.17  -0.11   0.09    -0.14  -0.04   0.06     0.36   0.14  -0.12
  22   1    -0.02  -0.01  -0.02     0.02   0.03   0.03     0.06   0.13   0.09
  23   1    -0.01  -0.01   0.03     0.01  -0.02  -0.06    -0.02   0.04   0.15
  24   1    -0.03   0.01   0.01     0.06  -0.01  -0.03    -0.13   0.02   0.06
  25   1    -0.01   0.02   0.02    -0.01  -0.00  -0.01     0.03   0.01   0.03
  26   1    -0.00   0.03   0.02    -0.00  -0.01  -0.03     0.00   0.01   0.07
  27   1     0.01  -0.01   0.02    -0.01  -0.00  -0.00     0.03   0.00   0.03
                     49                     50                     51
                        a                      a                      a 
 Frequencies --  1396.4591              1398.1782              1427.2888
 Red. masses --     3.2403                 3.3549                 2.5664
 Frc consts  --     0.0000                 0.0000                 0.0000
 IR Inten    --     5.5496                 3.4862                13.3611
 Raman Activ --     0.0000                 0.0000                 0.0000
 Depolar     --     0.0000                 0.0000                 0.0000
 Atom AN      X      Y      Z        X      Y      Z        X      Y      Z
   1   6     0.07  -0.00  -0.00    -0.45   0.01   0.01     0.00  -0.00  -0.00
   2   6    -0.01   0.01  -0.00     0.07  -0.02   0.01    -0.00  -0.00  -0.00
   3   6    -0.00   0.00   0.01    -0.00   0.02  -0.00    -0.00  -0.00  -0.00
   4   6     0.04  -0.01   0.00     0.01  -0.02   0.00     0.03   0.01   0.01
   5   6    -0.09  -0.01  -0.01    -0.02   0.00  -0.00    -0.13  -0.00   0.03
   6   1     0.06   0.01  -0.03     0.01   0.00  -0.01     0.19   0.01  -0.06
   7   6     0.04   0.02  -0.01     0.01   0.01  -0.00     0.04   0.02   0.01
   8   6    -0.00  -0.01   0.01    -0.02  -0.01  -0.00    -0.00  -0.00   0.01
   9   1    -0.00   0.01   0.00     0.01   0.02   0.01    -0.00   0.01   0.01
  10   8     0.00   0.00  -0.00     0.01   0.00   0.00     0.00   0.00  -0.00
  11   6     0.12  -0.00  -0.00     0.02  -0.00  -0.00     0.13  -0.06  -0.23
  12   6     0.01  -0.01  -0.04     0.00  -0.00  -0.01     0.08  -0.02  -0.09
  13   6    -0.15  -0.04  -0.38    -0.02  -0.01  -0.06    -0.02   0.01   0.19
  14   1    -0.07   0.02   0.02     0.48  -0.16  -0.16    -0.00  -0.00   0.00
  15   1    -0.07  -0.02   0.02     0.45   0.14  -0.09    -0.00   0.00   0.00
  16   1    -0.07  -0.00  -0.03     0.47   0.02   0.19    -0.00   0.00  -0.00
  17   1     0.00   0.00  -0.00    -0.03  -0.01  -0.00     0.00   0.00  -0.00
  18   1    -0.03   0.00  -0.01    -0.02   0.00  -0.01    -0.02  -0.01  -0.02
  19   1    -0.06   0.03   0.01    -0.02   0.00   0.01    -0.02  -0.00   0.01
  20   1    -0.04  -0.01   0.03    -0.01  -0.00   0.00    -0.03  -0.01  -0.02
  21   1    -0.04  -0.04   0.03    -0.01  -0.01   0.01    -0.06  -0.01   0.02
  22   1    -0.00  -0.01  -0.01    -0.01  -0.01  -0.01    -0.01  -0.01  -0.01
  23   1    -0.02   0.04   0.20    -0.00   0.01   0.03    -0.05   0.12   0.56
  24   1    -0.17   0.02   0.06    -0.03   0.00   0.01    -0.55   0.07   0.22
  25   1     0.22   0.25   0.38     0.03   0.04   0.06     0.03  -0.15  -0.17
  26   1     0.01   0.00   0.44     0.00  -0.00   0.07    -0.01   0.04  -0.10
  27   1     0.22  -0.12   0.42     0.03  -0.02   0.06     0.07   0.14  -0.17
                     52                     53                     54
                        a                      a                      a 
 Frequencies --  1461.2857              1467.9378              1470.3242
 Red. masses --     1.9215                 1.8504                 1.5674
 Frc consts  --     0.0000                 0.0000                 0.0000
 IR Inten    --     0.1982                 2.1219                 3.4898
 Raman Activ --     0.0000                 0.0000                 0.0000
 Depolar     --     0.0000                 0.0000                 0.0000
 Atom AN      X      Y      Z        X      Y      Z        X      Y      Z
   1   6     0.00   0.01  -0.00     0.00  -0.01  -0.00     0.02   0.09   0.20
   2   6    -0.03  -0.01   0.01     0.01   0.02  -0.01    -0.02   0.03   0.04
   3   6     0.02   0.01  -0.01    -0.00  -0.01   0.01     0.00  -0.00   0.00
   4   6    -0.12  -0.19  -0.01     0.06   0.12   0.00    -0.00   0.00  -0.00
   5   6    -0.01  -0.00   0.01     0.05   0.00  -0.01    -0.00  -0.00   0.00
   6   1     0.01  -0.01   0.00    -0.03  -0.00   0.01     0.00   0.00  -0.00
   7   6     0.07  -0.06   0.13     0.05  -0.08   0.16     0.00   0.00   0.00
   8   6     0.00  -0.01   0.01    -0.00  -0.01   0.01     0.00  -0.02  -0.00
   9   1    -0.00   0.02   0.01     0.02   0.00   0.01    -0.01   0.03   0.01
  10   8    -0.00   0.00  -0.00    -0.00  -0.00  -0.00     0.00  -0.00  -0.00
  11   6     0.01  -0.00  -0.00    -0.00  -0.02   0.02     0.00  -0.00   0.00
  12   6     0.01  -0.00  -0.02    -0.01   0.00   0.01     0.00  -0.00  -0.00
  13   6     0.05  -0.02  -0.01    -0.00  -0.14  -0.02    -0.00  -0.00  -0.00
  14   1     0.00  -0.01   0.02     0.00   0.00  -0.01    -0.26   0.31  -0.26
  15   1     0.02   0.01   0.00    -0.01   0.00   0.01    -0.02  -0.34  -0.64
  16   1    -0.00  -0.02  -0.00    -0.01   0.02  -0.00     0.27  -0.35   0.10
  17   1    -0.03  -0.01   0.00     0.01   0.00   0.00     0.00  -0.00  -0.00
  18   1     0.24   0.35   0.33    -0.14  -0.23  -0.21     0.00  -0.00  -0.00
  19   1     0.24   0.35  -0.30    -0.16  -0.21   0.19    -0.00  -0.00   0.00
  20   1    -0.10  -0.07  -0.36    -0.09  -0.07  -0.41    -0.01  -0.00  -0.01
  21   1    -0.16   0.32  -0.13    -0.16   0.36  -0.15    -0.01   0.01  -0.00
  22   1     0.00  -0.01  -0.00     0.00  -0.00  -0.00    -0.00  -0.00  -0.00
  23   1    -0.00   0.01   0.04     0.00  -0.01  -0.04    -0.00   0.00   0.00
  24   1    -0.04   0.00   0.01     0.04  -0.00  -0.01    -0.00   0.00  -0.00
  25   1    -0.13   0.08   0.06    -0.23   0.02  -0.05    -0.00  -0.00  -0.00
  26   1    -0.00   0.05  -0.09    -0.05   0.43  -0.00    -0.00   0.01   0.00
  27   1    -0.04  -0.07   0.10     0.28   0.08   0.08     0.01   0.00   0.00
                     55                     56                     57
                        a                      a                      a 
 Frequencies --  1481.3482              1481.6987              1484.4744
 Red. masses --     1.6660                 1.6692                 1.6758
 Frc consts  --     0.0000                 0.0000                 0.0000
 IR Inten    --     1.2380                 8.2106                 2.8191
 Raman Activ --     0.0000                 0.0000                 0.0000
 Depolar     --     0.0000                 0.0000                 0.0000
 Atom AN      X      Y      Z        X      Y      Z        X      Y      Z
   1   6    -0.03   0.17  -0.08     0.02  -0.10   0.05     0.00  -0.00   0.00
   2   6    -0.02   0.00  -0.00     0.00  -0.01   0.00    -0.00   0.01  -0.00
   3   6     0.06   0.04  -0.01    -0.03  -0.02   0.00     0.00  -0.00  -0.00
   4   6    -0.03  -0.04   0.00    -0.04  -0.07  -0.00     0.00   0.05   0.00
   5   6     0.00   0.00  -0.00    -0.01  -0.00  -0.01     0.04  -0.01   0.00
   6   1    -0.01  -0.00   0.00    -0.01  -0.01   0.00    -0.03   0.01   0.01
   7   6    -0.00   0.01  -0.03    -0.01   0.02  -0.04     0.05  -0.06   0.11
   8   6     0.00  -0.01   0.00    -0.00   0.01   0.00     0.00  -0.01   0.01
   9   1    -0.02   0.01  -0.01     0.01  -0.00   0.00     0.00   0.01   0.01
  10   8     0.00   0.00   0.00     0.00  -0.00   0.00     0.00   0.00  -0.00
  11   6    -0.00  -0.01   0.01    -0.00  -0.01   0.02    -0.02   0.02  -0.02
  12   6    -0.02   0.01   0.03    -0.04   0.01   0.05    -0.02   0.01   0.04
  13   6    -0.09  -0.05   0.00    -0.16  -0.09   0.00    -0.11   0.15   0.01
  14   1    -0.12  -0.24   0.48     0.07   0.13  -0.27    -0.00   0.00  -0.01
  15   1     0.31   0.09  -0.08    -0.17  -0.05   0.05    -0.00  -0.00   0.00
  16   1    -0.12  -0.53  -0.06     0.07   0.30   0.04     0.00   0.01   0.00
  17   1    -0.05  -0.02   0.00     0.02   0.01  -0.00     0.00   0.00   0.00
  18   1     0.02   0.06   0.05     0.10   0.13   0.13    -0.03  -0.07  -0.06
  19   1     0.02   0.06  -0.05     0.10   0.14  -0.12    -0.02  -0.08   0.06
  20   1     0.01   0.01   0.05     0.03   0.02   0.10    -0.09  -0.06  -0.33
  21   1     0.00  -0.05   0.02     0.01  -0.09   0.04    -0.16   0.28  -0.12
  22   1     0.00  -0.00   0.00    -0.00  -0.00  -0.00     0.00  -0.00  -0.00
  23   1     0.00  -0.01  -0.07     0.00  -0.02  -0.11    -0.00  -0.01  -0.05
  24   1     0.06  -0.00  -0.02     0.10  -0.01  -0.03     0.04  -0.01  -0.01
  25   1     0.11  -0.12  -0.12     0.19  -0.21  -0.20     0.54  -0.17  -0.04
  26   1    -0.02   0.16   0.16    -0.03   0.27   0.28     0.05  -0.47   0.24
  27   1     0.25   0.17  -0.10     0.43   0.29  -0.18    -0.12   0.07  -0.23
                     58                     59                     60
                        a                      a                      a 
 Frequencies --  1718.9302              1744.0287              2905.3995
 Red. masses --    11.3033                11.6054                 1.7364
 Frc consts  --     0.0000                 0.0000                 0.0000
 IR Inten    --    34.4617                 0.9609               100.0324
 Raman Activ --     0.0000                 0.0000                 0.0000
 Depolar     --     0.0000                 0.0000                 0.0000
 Atom AN      X      Y      Z        X      Y      Z        X      Y      Z
   1   6     0.00   0.00  -0.00    -0.07  -0.02   0.01     0.00   0.00  -0.00
   2   6    -0.01  -0.01   0.00     0.45   0.53  -0.18    -0.01  -0.01   0.01
   3   6     0.01   0.01  -0.00    -0.46  -0.45   0.15     0.00  -0.00   0.00
   4   6     0.01  -0.01   0.00     0.06   0.03  -0.01    -0.00  -0.00  -0.01
   5   6     0.07  -0.01  -0.03    -0.01  -0.00   0.00     0.00   0.00   0.00
   6   1    -0.06   0.01   0.02    -0.00   0.00  -0.00    -0.00  -0.01  -0.02
   7   6     0.01  -0.00  -0.00     0.00   0.01  -0.00    -0.01  -0.00  -0.00
   8   6    -0.00   0.00  -0.00    -0.02  -0.04   0.03    -0.13  -0.09   0.20
   9   1    -0.00   0.00  -0.00     0.04  -0.06   0.00     0.47   0.31  -0.78
  10   8    -0.00  -0.00   0.00     0.00  -0.01  -0.00     0.00   0.01   0.01
  11   6    -0.42   0.14   0.59    -0.01   0.01   0.01     0.00  -0.00   0.00
  12   6     0.37  -0.11  -0.49     0.01  -0.00  -0.01    -0.00  -0.00  -0.00
  13   6     0.00  -0.02  -0.08    -0.00  -0.00  -0.00    -0.00  -0.00  -0.00
  14   1     0.00  -0.00  -0.00    -0.06   0.00   0.04    -0.00  -0.01  -0.00
  15   1    -0.00  -0.00   0.00     0.05   0.02  -0.01     0.00  -0.00   0.00
  16   1     0.00   0.00   0.00    -0.05  -0.02  -0.02    -0.00  -0.00   0.01
  17   1    -0.00   0.00   0.00     0.09  -0.05   0.02    -0.01   0.01  -0.00
  18   1    -0.00   0.00  -0.00     0.07   0.00   0.03    -0.00  -0.00   0.01
  19   1    -0.00   0.00   0.00     0.05  -0.00  -0.02     0.01   0.01   0.01
  20   1    -0.00  -0.00   0.00    -0.02  -0.01  -0.00     0.01  -0.02  -0.00
  21   1    -0.00  -0.00   0.00    -0.00   0.00   0.00     0.00   0.02   0.03
  22   1     0.00   0.00   0.00    -0.00   0.00   0.00    -0.00  -0.00   0.01
  23   1     0.09   0.02   0.12     0.00  -0.00   0.00     0.00   0.00   0.00
  24   1    -0.14  -0.00  -0.05    -0.00   0.00  -0.00     0.00  -0.00  -0.00
  25   1     0.00  -0.04  -0.05     0.00  -0.00  -0.00    -0.00   0.00   0.00
  26   1    -0.00   0.01   0.06     0.00  -0.00   0.00     0.00   0.00  -0.00
  27   1    -0.01   0.03  -0.07    -0.00   0.00  -0.00    -0.00   0.00   0.00
                     61                     62                     63
                        a                      a                      a 
 Frequencies --  2917.0314              2935.3048              2969.8205
 Red. masses --     1.7362                 1.8918                 1.5688
 Frc consts  --     0.0000                 0.0000                 0.0000
 IR Inten    --    63.0100                83.5664                87.6765
 Raman Activ --     0.0000                 0.0000                 0.0000
 Depolar     --     0.0000                 0.0000                 0.0000
 Atom AN      X      Y      Z        X      Y      Z        X      Y      Z
   1   6     0.00   0.00  -0.00     0.00  -0.00  -0.00     0.00   0.00  -0.00
   2   6    -0.00  -0.00   0.00    -0.00  -0.00   0.00    -0.00  -0.00   0.00
   3   6     0.00   0.00   0.00     0.01   0.00   0.00     0.01  -0.01  -0.00
   4   6     0.00   0.00   0.06     0.04   0.06   0.26     0.11   0.16  -0.12
   5   6    -0.06  -0.10  -0.22     0.01   0.02   0.06     0.00   0.00  -0.01
   6   1     0.21   0.36   0.84    -0.05  -0.08  -0.19     0.01   0.01   0.03
   7   6    -0.00   0.01  -0.00     0.00  -0.01  -0.01    -0.01   0.02   0.00
   8   6    -0.00  -0.00   0.01    -0.00  -0.00   0.00    -0.00   0.00  -0.00
   9   1     0.01   0.01  -0.02     0.01   0.00  -0.01    -0.00  -0.00   0.00
  10   8    -0.00   0.00   0.00     0.00   0.00  -0.00     0.00   0.00   0.00
  11   6    -0.00  -0.00  -0.01     0.00   0.00   0.00     0.00   0.00  -0.00
  12   6     0.00   0.00   0.00    -0.00  -0.00  -0.00    -0.00  -0.00   0.00
  13   6    -0.00  -0.00   0.00     0.00  -0.00  -0.00    -0.00  -0.01   0.00
  14   1    -0.00  -0.00  -0.00     0.00   0.00   0.00    -0.00  -0.00  -0.00
  15   1    -0.00   0.00  -0.00     0.00  -0.00  -0.00    -0.00   0.00  -0.00
  16   1    -0.00  -0.00   0.00    -0.00  -0.00   0.01    -0.00  -0.00   0.01
  17   1     0.00  -0.00   0.00     0.00  -0.00   0.00    -0.02   0.04  -0.01
  18   1     0.04   0.05  -0.08     0.13   0.18  -0.24    -0.30  -0.43   0.73
  19   1    -0.06  -0.09  -0.15    -0.30  -0.41  -0.72    -0.10  -0.14  -0.32
  20   1     0.01  -0.02   0.00    -0.01   0.02  -0.00     0.03  -0.07   0.00
  21   1    -0.00  -0.01  -0.03     0.00   0.01   0.02    -0.00  -0.01  -0.02
  22   1     0.00   0.00   0.00    -0.00  -0.00  -0.00    -0.00  -0.00  -0.00
  23   1    -0.00   0.00   0.00     0.00  -0.00  -0.00     0.00   0.00   0.00
  24   1    -0.00  -0.00  -0.01     0.00   0.00   0.00    -0.00  -0.00  -0.00
  25   1     0.00   0.00  -0.00    -0.00  -0.00   0.00     0.00   0.01  -0.01
  26   1     0.00   0.00  -0.00    -0.00   0.00   0.00     0.00   0.00  -0.00
  27   1     0.00   0.00   0.00    -0.01   0.01   0.00    -0.01   0.01   0.00
                     64                     65                     66
                        a                      a                      a 
 Frequencies --  2976.2793              2996.0501              2998.0790
 Red. masses --     1.8258                 1.8684                 1.6575
 Frc consts  --     0.0000                 0.0000                 0.0000
 IR Inten    --    72.3587                39.2778                65.6332
 Raman Activ --     0.0000                 0.0000                 0.0000
 Depolar     --     0.0000                 0.0000                 0.0000
 Atom AN      X      Y      Z        X      Y      Z        X      Y      Z
   1   6    -0.00   0.00  -0.00     0.04  -0.06  -0.27     0.00  -0.01  -0.04
   2   6    -0.00  -0.00   0.00     0.00   0.00  -0.01     0.00  -0.00  -0.00
   3   6    -0.00   0.00  -0.00    -0.00   0.00  -0.00    -0.00  -0.00   0.00
   4   6    -0.01  -0.01   0.01    -0.00  -0.00  -0.00    -0.00  -0.00  -0.00
   5   6     0.00   0.01   0.01     0.00   0.00   0.00    -0.00  -0.00  -0.01
   6   1    -0.01  -0.01  -0.03    -0.00  -0.00  -0.00     0.01   0.01   0.02
   7   6    -0.08   0.26   0.03     0.01   0.01   0.03    -0.04  -0.07  -0.22
   8   6    -0.00   0.01  -0.00     0.00   0.00  -0.00     0.00   0.00  -0.01
   9   1    -0.01  -0.00   0.01    -0.00  -0.00   0.00    -0.02  -0.01   0.03
  10   8     0.00  -0.00  -0.00     0.00  -0.00   0.00    -0.00  -0.00   0.00
  11   6     0.00   0.00   0.00    -0.00   0.00   0.00    -0.00  -0.00  -0.00
  12   6     0.00  -0.00  -0.00     0.00  -0.00  -0.00     0.00   0.00   0.00
  13   6    -0.00  -0.00   0.00     0.00   0.00  -0.00    -0.01  -0.01   0.01
  14   1     0.00   0.00   0.00     0.14   0.28   0.14     0.02   0.05   0.03
  15   1     0.00  -0.00   0.00     0.02  -0.05  -0.02     0.00  -0.01  -0.00
  16   1     0.00   0.00  -0.00    -0.30  -0.04   0.83    -0.04  -0.00   0.11
  17   1     0.00  -0.01   0.00     0.00  -0.01   0.00    -0.00   0.00  -0.00
  18   1     0.03   0.04  -0.07     0.00   0.00  -0.00    -0.00  -0.00   0.01
  19   1     0.00   0.00   0.01     0.00   0.00   0.01     0.01   0.01   0.01
  20   1     0.34  -0.88   0.05    -0.01   0.02   0.00     0.05  -0.17  -0.02
  21   1    -0.03  -0.04  -0.15    -0.01  -0.06  -0.11     0.10   0.43   0.83
  22   1    -0.00   0.00  -0.00     0.00   0.00  -0.00     0.00   0.00  -0.00
  23   1    -0.00   0.00  -0.00    -0.00   0.00  -0.00    -0.00  -0.00  -0.00
  24   1     0.00   0.00   0.00     0.00   0.00   0.00    -0.00  -0.00  -0.00
  25   1     0.00   0.01  -0.00    -0.00  -0.01   0.00     0.02   0.06  -0.04
  26   1     0.00  -0.00   0.00    -0.00  -0.00  -0.00     0.02  -0.00   0.00
  27   1     0.00  -0.00  -0.00    -0.00   0.00  -0.00     0.00  -0.01  -0.00
                     67                     68                     69
                        a                      a                      a 
 Frequencies --  3009.5358              3019.2244              3026.6499
 Red. masses --     1.8910                 1.5825                 1.6469
 Frc consts  --     0.0000                 0.0000                 0.0000
 IR Inten    --    41.7904                48.0569                53.8370
 Raman Activ --     0.0000                 0.0000                 0.0000
 Depolar     --     0.0000                 0.0000                 0.0000
 Atom AN      X      Y      Z        X      Y      Z        X      Y      Z
   1   6     0.00   0.00   0.00    -0.11  -0.20  -0.02    -0.00  -0.00   0.00
   2   6     0.00   0.00  -0.00    -0.01  -0.01   0.00    -0.00  -0.00   0.00
   3   6    -0.00   0.00  -0.00     0.00   0.00  -0.00    -0.00   0.00  -0.00
   4   6    -0.00  -0.00   0.00     0.00   0.00  -0.00     0.00   0.00   0.00
   5   6     0.00   0.00   0.00    -0.00  -0.00  -0.00     0.00   0.00   0.00
   6   1    -0.00  -0.00  -0.00     0.00   0.00   0.00    -0.00  -0.00  -0.00
   7   6     0.00   0.00   0.02     0.00  -0.00   0.00     0.00   0.00   0.01
   8   6    -0.00  -0.00   0.00    -0.00  -0.00   0.00    -0.00  -0.00   0.00
   9   1     0.00   0.00  -0.00     0.01   0.01  -0.01     0.00   0.00  -0.00
  10   8     0.00   0.00  -0.00     0.00   0.00   0.00     0.00   0.00  -0.00
  11   6    -0.00  -0.01   0.01     0.00  -0.00  -0.00    -0.01   0.00   0.01
  12   6     0.00  -0.00  -0.00    -0.00   0.00   0.00     0.00   0.00   0.00
  13   6    -0.03  -0.27   0.09     0.00  -0.00  -0.00    -0.16   0.10   0.15
  14   1    -0.00  -0.00  -0.00     0.33   0.70   0.46     0.01   0.01   0.01
  15   1    -0.00   0.00  -0.00    -0.03   0.01  -0.02    -0.00   0.00  -0.00
  16   1     0.00   0.00  -0.00     0.11  -0.02  -0.35     0.00  -0.00  -0.01
  17   1     0.00  -0.00   0.00    -0.00   0.01  -0.00     0.00  -0.00   0.00
  18   1     0.00   0.01  -0.01    -0.00  -0.00   0.01    -0.00  -0.00   0.00
  19   1     0.00   0.00   0.01    -0.00  -0.00  -0.00    -0.00  -0.01  -0.01
  20   1    -0.01   0.02   0.00    -0.00   0.01   0.00    -0.00   0.01   0.00
  21   1    -0.01  -0.03  -0.06    -0.00  -0.01  -0.01    -0.00  -0.02  -0.04
  22   1    -0.00  -0.00   0.00    -0.00  -0.00   0.00    -0.00  -0.00   0.00
  23   1     0.00  -0.00   0.00     0.00  -0.00   0.00     0.00   0.00   0.00
  24   1    -0.00   0.00  -0.00    -0.00  -0.00  -0.00    -0.01  -0.00  -0.02
  25   1     0.20   0.67  -0.52    -0.00  -0.00   0.00     0.06   0.32  -0.21
  26   1     0.06  -0.03   0.01     0.00  -0.00  -0.00     0.14   0.03   0.01
  27   1    -0.17   0.30   0.18    -0.01   0.02   0.01     0.34  -0.73  -0.34
                     70                     71                     72
                        a                      a                      a 
 Frequencies --  3042.3395              3046.8671              3047.9437
 Red. masses --     1.6969                 1.7739                 1.6075
 Frc consts  --     0.0000                 0.0000                 0.0000
 IR Inten    --    12.9414               181.7050                39.5226
 Raman Activ --     0.0000                 0.0000                 0.0000
 Depolar     --     0.0000                 0.0000                 0.0000
 Atom AN      X      Y      Z        X      Y      Z        X      Y      Z
   1   6    -0.08   0.20  -0.09    -0.03   0.07  -0.03     0.01  -0.02   0.01
   2   6     0.00   0.01  -0.00    -0.01   0.00  -0.00     0.00  -0.00   0.00
   3   6     0.03  -0.09   0.02    -0.09   0.22  -0.06     0.03  -0.07   0.02
   4   6    -0.00  -0.00   0.00     0.00   0.01  -0.01    -0.00  -0.00   0.00
   5   6     0.00   0.00  -0.00    -0.00  -0.00  -0.00     0.00   0.00   0.00
   6   1     0.00   0.00   0.00     0.00   0.00  -0.00    -0.00  -0.00  -0.00
   7   6     0.00   0.00   0.00     0.00  -0.00  -0.00     0.00   0.00   0.00
   8   6    -0.00   0.00  -0.00     0.00  -0.00   0.00     0.00   0.00  -0.00
   9   1    -0.00  -0.00   0.01     0.00   0.00  -0.01    -0.00  -0.00   0.00
  10   8     0.00  -0.00  -0.00     0.00   0.00   0.00    -0.00  -0.00  -0.00
  11   6    -0.00  -0.00   0.00    -0.00   0.00  -0.00    -0.01  -0.00  -0.00
  12   6     0.00   0.00   0.00     0.00   0.00   0.00     0.01   0.00   0.00
  13   6    -0.00   0.00   0.00    -0.07  -0.01  -0.01    -0.22  -0.02  -0.02
  14   1     0.00   0.05  -0.00     0.00   0.02  -0.00    -0.00  -0.01  -0.00
  15   1     0.26  -0.77   0.39     0.10  -0.27   0.14    -0.03   0.09  -0.04
  16   1     0.01   0.03  -0.06     0.01   0.01  -0.03    -0.00  -0.00   0.01
  17   1    -0.14   0.30  -0.08     0.34  -0.76   0.22    -0.11   0.24  -0.07
  18   1     0.00   0.01  -0.01    -0.01  -0.02   0.03     0.01   0.01  -0.01
  19   1     0.00   0.00   0.00    -0.00  -0.00  -0.01     0.00   0.00   0.01
  20   1    -0.00   0.00  -0.00    -0.00   0.00  -0.00    -0.00   0.00   0.00
  21   1    -0.00  -0.00  -0.00     0.00   0.00   0.00    -0.00  -0.00  -0.01
  22   1     0.00  -0.00  -0.00    -0.00  -0.00   0.00     0.00   0.00   0.00
  23   1    -0.00   0.00  -0.00    -0.00  -0.00  -0.00    -0.03   0.00  -0.00
  24   1    -0.00  -0.00  -0.00    -0.00  -0.00  -0.00     0.00  -0.00  -0.00
  25   1     0.00   0.00  -0.00    -0.02  -0.03   0.02    -0.06  -0.10   0.07
  26   1     0.00   0.00   0.00     0.28   0.03  -0.02     0.90   0.09  -0.06
  27   1     0.00  -0.00  -0.00    -0.02   0.03   0.02    -0.08   0.09   0.05
                     73                     74                     75
                        a                      a                      a 
 Frequencies --  3095.9254              3112.3509              3500.7454
 Red. masses --     1.5266                 2.0727                 1.8702
 Frc consts  --     0.0000                 0.0000                 0.0000
 IR Inten    --    63.5650               110.8425                53.6814
 Raman Activ --     0.0000                 0.0000                 0.0000
 Depolar     --     0.0000                 0.0000                 0.0000
 Atom AN      X      Y      Z        X      Y      Z        X      Y      Z
   1   6     0.00  -0.00   0.00    -0.00   0.00   0.00     0.00   0.00  -0.00
   2   6     0.00   0.00  -0.00    -0.00  -0.00   0.00    -0.00  -0.00   0.00
   3   6     0.00  -0.00   0.00    -0.00   0.00  -0.00     0.00  -0.00   0.00
   4   6    -0.00  -0.00   0.00     0.00   0.00   0.00    -0.00  -0.00  -0.00
   5   6     0.00   0.00   0.00    -0.00   0.00  -0.00     0.00   0.00   0.00
   6   1    -0.00  -0.00  -0.00    -0.01  -0.00  -0.01    -0.00  -0.00  -0.00
   7   6    -0.00   0.00  -0.00     0.00   0.00   0.00     0.00  -0.00  -0.00
   8   6     0.00   0.00  -0.00    -0.00  -0.00   0.00     0.00  -0.00  -0.01
   9   1    -0.00  -0.00   0.00     0.00   0.00  -0.00    -0.00  -0.01   0.00
  10   8     0.00  -0.00  -0.00     0.00   0.00  -0.00     0.11   0.06  -0.20
  11   6     0.01  -0.00  -0.01     0.01   0.00   0.01     0.00  -0.00  -0.00
  12   6    -0.09   0.04   0.19     0.26   0.02   0.16    -0.00  -0.00  -0.00
  13   6    -0.00  -0.00  -0.00     0.01  -0.00  -0.00     0.00   0.00  -0.00
  14   1    -0.00  -0.00  -0.00     0.00   0.00   0.00     0.00  -0.00  -0.00
  15   1    -0.00   0.00  -0.00     0.00  -0.00   0.00    -0.00   0.00  -0.00
  16   1    -0.00  -0.00   0.00     0.00   0.00  -0.00    -0.00   0.00   0.00
  17   1    -0.00   0.01  -0.00     0.00  -0.00   0.00    -0.00   0.00  -0.00
  18   1     0.00   0.00  -0.00     0.00   0.00  -0.00     0.00   0.00   0.00
  19   1     0.00   0.00   0.00    -0.00  -0.00  -0.00     0.00   0.00   0.00
  20   1     0.00  -0.00   0.00     0.00  -0.00   0.00     0.00  -0.00  -0.00
  21   1     0.00   0.00   0.00     0.00  -0.00  -0.00     0.00   0.00   0.00
  22   1    -0.00  -0.00   0.00    -0.00  -0.00   0.00    -0.45  -0.23   0.83
  23   1     0.60  -0.01   0.08    -0.75   0.02  -0.05    -0.00   0.00  -0.00
  24   1    -0.30  -0.13  -0.70    -0.19  -0.10  -0.54     0.00   0.00   0.00
  25   1    -0.00  -0.01   0.01     0.00   0.00   0.00    -0.00  -0.00   0.00
  26   1     0.01   0.00  -0.00    -0.03  -0.00  -0.00    -0.00  -0.00   0.00
  27   1    -0.01   0.01   0.01    -0.00   0.01   0.00    -0.00   0.00   0.00
