      -----------------------------------------------------------      
     |                   =====================                   |     
     |                           x T B                           |     
     |                   =====================                   |     
     |                         S. Grimme                         |     
     |          Mulliken Center for Theoretical Chemistry        |     
     |                    University of Bonn                     |     
      -----------------------------------------------------------      

   * xtb version 6.7.1 (edcfbbe) compiled by 'albert@albert-system' on 2024-07-22

   xtb is free software: you can redistribute it and/or modify it under
   the terms of the GNU Lesser General Public License as published by
   the Free Software Foundation, either version 3 of the License, or
   (at your option) any later version.
   
   xtb is distributed in the hope that it will be useful,
   but WITHOUT ANY WARRANTY; without even the implied warranty of
   MERCHANTABILITY or FITNESS FOR A PARTICULAR PURPOSE.  See the
   GNU Lesser General Public License for more details.
   
   Cite this work as:
   * C. Bannwarth, E. Caldeweyher, S. Ehlert, A. Hansen, P. Pracht,
     J. Seibert, S. Spicher, S. Grimme, WIREs Comput. Mol. Sci., 2020, 11,
     e01493. DOI: 10.1002/wcms.1493
   
   for GFN2-xTB:
   * C. Bannwarth, S. Ehlert and S. Grimme., J. Chem. Theory Comput., 2019,
     15, 1652-1671. DOI: 10.1021/acs.jctc.8b01176
   for GFN1-xTB:
   * S. Grimme, C. Bannwarth, P. Shushkov, J. Chem. Theory Comput., 2017,
     13, 1989-2009. DOI: 10.1021/acs.jctc.7b00118
   for GFN0-xTB:
   * P. Pracht, E. Caldeweyher, S. Ehlert, S. Grimme, ChemRxiv, 2019, preprint.
     DOI: 10.26434/chemrxiv.8326202.v1
   for GFN-FF:
   * S. Spicher and S. Grimme, Angew. Chem. Int. Ed., 2020, 59, 15665-15673.
     DOI: 10.1002/anie.202004239
   
   for ALPB and GBSA implicit solvation:
   * S. Ehlert, M. Stahn, S. Spicher, S. Grimme, J. Chem. Theory Comput.,
     2021, 17, 4250-4261. DOI: 10.1021/acs.jctc.1c00471
   
   for ddCOSMO and CPCM-X implicit solvation:
   * M. Stahn, S. Ehlert, S. Grimme, J. Phys. Chem. A,
     2023, XX, XXXX-XXXX. DOI: 10.1021/acs.jpca.3c04382
   
   for DFT-D4:
   * E. Caldeweyher, C. Bannwarth and S. Grimme, J. Chem. Phys., 2017,
     147, 034112. DOI: 10.1063/1.4993215
   * E. Caldeweyher, S. Ehlert, A. Hansen, H. Neugebauer, S. Spicher,
     C. Bannwarth and S. Grimme, J. Chem. Phys., 2019, 150, 154122.
     DOI: 10.1063/1.5090222
   * E. Caldeweyher, J.-M. Mewes, S. Ehlert and S. Grimme, Phys. Chem. Chem. Phys.
     2020, 22, 8499-8512. DOI: 10.1039/D0CP00502A
   
   for sTDA-xTB:
   * S. Grimme and C. Bannwarth, J. Chem. Phys., 2016, 145, 054103.
     DOI: 10.1063/1.4959605
   
   in the mass-spec context:
   * V. Asgeirsson, C. Bauer and S. Grimme, Chem. Sci., 2017, 8, 4879.
     DOI: 10.1039/c7sc00601b
   * J. Koopman and S. Grimme, ACS Omega 2019, 4, 12, 15120-15133.
     DOI: 10.1021/acsomega.9b02011
   
   for metadynamics refer to:
   * S. Grimme, J. Chem. Theory Comput., 2019, 155, 2847-2862
     DOI: 10.1021/acs.jctc.9b00143
   
   for SPH calculations refer to:
   * S. Spicher and S. Grimme, J. Chem. Theory Comput., 2021, 17, 1701-1714
     DOI: 10.1021/acs.jctc.0c01306
   
   for ONIOM refer to:
   * C. Plett, A. Katbashev, S. Ehlert, S. Grimme, M. Bursch,
     Phys. Chem. Chem. Phys., 2023, 25, 17860-17868. DOI: 10.1039/D3CP02178E
   
   for DIPRO refer to:
   * J. Kohn, N. Gildemeister, S. Grimme, D. Fazzi, A. Hansen,
     J. Chem. Phys., 2023, just accepted.
   
   for PTB refer to:
   * S. Grimme, M. Mueller, A. Hansen, J. Chem. Phys., 2023, 158, 124111.
     DOI: 10.1063/5.0137838
   
   with help from (in alphabetical order)
   P. Atkinson, C. Bannwarth, F. Bohle, G. Brandenburg, E. Caldeweyher
   M. Checinski, S. Dohm, S. Ehlert, S. Ehrlich, I. Gerasimov, C. Hölzer
   A. Katbashev, J. Kohn, J. Koopman, C. Lavigne, S. Lehtola, F. März, M. Müller,
   F. Musil, H. Neugebauer, J. Pisarek, C. Plett, P. Pracht, F. Pultar,
   J. Seibert, P. Shushkov, S. Spicher, M. Stahn, M. Steiner, T. Strunk,
   J. Stückrath, T. Rose, and J. Unsleber
   
 * started run on 2025/04/03 at 21:12:25.667     
   ID    Z sym.   atoms
    1    6 C      1-7, 11
    2    9 F      8-10, 12-14
    3    1 H      15-18

           -------------------------------------------------
          |                Calculation Setup                |
           -------------------------------------------------

          program call               : /srv/scratch/z5358697/.xtb/bin/xtb gas.coord --gfn2 --sp --chrg 0 --norestart --parallel 1
          hostname                   : k160
          coordinate file            : gas.coord
          omp threads                :                     1


           -------------------------------------------------
          |                 G F N 2 - x T B                 |
           -------------------------------------------------

        Reference                      10.1021/acs.jctc.8b01176
      * Hamiltonian:
        H0-scaling (s, p, d)           1.850000    2.230000    2.230000
        zeta-weighting                 0.500000
      * Dispersion:
        s8                             2.700000
        a1                             0.520000
        a2                             5.000000
        s9                             5.000000
      * Repulsion:
        kExp                           1.500000    1.000000
        rExp                           1.000000
      * Coulomb:
        alpha                          2.000000
        third order                    shell-resolved
        anisotropic                    true
        a3                             3.000000
        a5                             4.000000
        cn-shift                       1.200000
        cn-exp                         4.000000
        max-rad                        5.000000


          ...................................................
          :                      SETUP                      :
          :.................................................:
          :  # basis functions                  60          :
          :  # atomic orbitals                  60          :
          :  # shells                           32          :
          :  # electrons                        78          :
          :  max. iterations                   250          :
          :  Hamiltonian                  GFN2-xTB          :
          :  restarted?                      false          :
          :  GBSA solvation                  false          :
          :  PC potential                    false          :
          :  electronic temp.          300.0000000     K    :
          :  accuracy                    1.0000000          :
          :  -> integral cutoff          0.2500000E+02      :
          :  -> integral neglect         0.1000000E-07      :
          :  -> SCF convergence          0.1000000E-05 Eh   :
          :  -> wf. convergence          0.1000000E-03 e    :
          :  Broyden damping             0.4000000          :
          :  net charge                          0          :
          :  unpaired electrons                  0          :
          ...................................................

 iter      E             dE          RMSdq      gap      omega  full diag
   1    -47.8356868 -0.478357E+02  0.537E+00    4.74       0.0  T
   2    -47.9345851 -0.988983E-01  0.304E+00    4.62       1.0  T
   3    -47.9379848 -0.339967E-02  0.139E+00    4.64       1.0  T
   4    -47.9408534 -0.286861E-02  0.138E-01    4.58       1.0  T
   5    -47.9408872 -0.338525E-04  0.578E-02    4.60       1.0  T
   6    -47.9409160 -0.288150E-04  0.322E-02    4.59       1.0  T
   7    -47.9409225 -0.645554E-05  0.912E-03    4.59       2.6  T
   8    -47.9409227 -0.206683E-06  0.485E-03    4.59       4.9  T
   9    -47.9409229 -0.150203E-06  0.746E-04    4.59      31.6  T
  10    -47.9409229 -0.311126E-08  0.314E-04    4.59      75.0  T

   *** convergence criteria satisfied after 10 iterations ***

         #    Occupation            Energy/Eh            Energy/eV
      -------------------------------------------------------------
         1        2.0000           -0.8879231             -24.1616
       ...           ...                  ...                  ...
        33        2.0000           -0.5348516             -14.5541
        34        2.0000           -0.5220786             -14.2065
        35        2.0000           -0.5181951             -14.1008
        36        2.0000           -0.4844921             -13.1837
        37        2.0000           -0.4835034             -13.1568
        38        2.0000           -0.4732452             -12.8777
        39        2.0000           -0.4709338             -12.8148 (HOMO)
        40                         -0.3021433              -8.2217 (LUMO)
        41                         -0.2907795              -7.9125
        42                         -0.1688987              -4.5960
        43                          0.0038036               0.1035
        44                          0.0094572               0.2573
       ...                                ...                  ...
        60                          0.5901034              16.0575
      -------------------------------------------------------------
                  HL-Gap            0.1687905 Eh            4.5930 eV
             Fermi-level           -0.3865386 Eh          -10.5182 eV

 SCC (total)                   0 d,  0 h,  0 min,  0.015 sec
 SCC setup                      ...        0 min,  0.000 sec (  1.271%)
 Dispersion                     ...        0 min,  0.000 sec (  0.623%)
 classical contributions        ...        0 min,  0.000 sec (  0.158%)
 integral evaluation            ...        0 min,  0.002 sec ( 12.849%)
 iterations                     ...        0 min,  0.007 sec ( 48.314%)
 molecular gradient             ...        0 min,  0.005 sec ( 35.726%)
 printout                       ...        0 min,  0.000 sec (  0.937%)

         :::::::::::::::::::::::::::::::::::::::::::::::::::::
         ::                     SUMMARY                     ::
         :::::::::::::::::::::::::::::::::::::::::::::::::::::
         :: total energy             -47.571321420525 Eh    ::
         :: gradient norm              0.020384076332 Eh/a0 ::
         :: HOMO-LUMO gap              4.593022753066 eV    ::
         ::.................................................::
         :: SCC energy               -47.940834262996 Eh    ::
         :: -> isotropic ES            0.087866821373 Eh    ::
         :: -> anisotropic ES         -0.001328456812 Eh    ::
         :: -> anisotropic XC         -0.028817073835 Eh    ::
         :: -> dispersion             -0.016559131410 Eh    ::
         :: repulsion energy           0.369512842471 Eh    ::
         :: add. restraining           0.000000000000 Eh    ::
         :: total charge               0.000000000000 e     ::
         :::::::::::::::::::::::::::::::::::::::::::::::::::::

           -------------------------------------------------
          |                Property Printout                |
           -------------------------------------------------

    * Orbital Energies and Occupations

         #    Occupation            Energy/Eh            Energy/eV
      -------------------------------------------------------------
         1        2.0000           -0.8879231             -24.1616
       ...           ...                  ...                  ...
        27        2.0000           -0.5422913             -14.7565
        28        2.0000           -0.5412814             -14.7290
        29        2.0000           -0.5401352             -14.6978
        30        2.0000           -0.5394833             -14.6801
        31        2.0000           -0.5385787             -14.6555
        32        2.0000           -0.5372091             -14.6182
        33        2.0000           -0.5348516             -14.5541
        34        2.0000           -0.5220786             -14.2065
        35        2.0000           -0.5181951             -14.1008
        36        2.0000           -0.4844921             -13.1837
        37        2.0000           -0.4835034             -13.1568
        38        2.0000           -0.4732452             -12.8777
        39        2.0000           -0.4709338             -12.8148 (HOMO)
        40                         -0.3021433              -8.2217 (LUMO)
        41                         -0.2907795              -7.9125
        42                         -0.1688987              -4.5960
        43                          0.0038036               0.1035
        44                          0.0094572               0.2573
        45                          0.0140833               0.3832
        46                          0.0161124               0.4384
        47                          0.0589739               1.6048
        48                          0.0789282               2.1477
        49                          0.0957639               2.6059
        50                          0.1077522               2.9321
       ...                                ...                  ...
        60                          0.5901034              16.0575
      -------------------------------------------------------------
                  HL-Gap            0.1687905 Eh            4.5930 eV
             Fermi-level           -0.3865386 Eh          -10.5182 eV

     #   Z          covCN         q      C6AA      α(0)
     1   6 C        2.919    -0.014    28.368     8.734
     2   6 C        2.919    -0.014    28.368     8.734
     3   6 C        2.923    -0.018    28.449     8.747
     4   6 C        2.972    -0.014    28.355     8.735
     5   6 C        2.972    -0.014    28.355     8.735
     6   6 C        2.923    -0.018    28.449     8.747
     7   6 C        3.335     0.486    17.296     6.589
     8   9 F        0.791    -0.198    11.214     3.956
     9   9 F        0.791    -0.195    11.188     3.951
    10   9 F        0.792    -0.201    11.245     3.961
    11   6 C        3.335     0.486    17.296     6.589
    12   9 F        0.791    -0.195    11.188     3.951
    13   9 F        0.792    -0.201    11.245     3.961
    14   9 F        0.791    -0.198    11.214     3.956
    15   1 H        0.926     0.072     2.063     2.246
    16   1 H        0.926     0.072     2.063     2.246
    17   1 H        0.926     0.082     1.962     2.190
    18   1 H        0.926     0.082     1.962     2.190

 Mol. C6AA /au·bohr⁶  :       4293.483042
 Mol. C8AA /au·bohr⁸  :     100612.012057
 Mol. α(0) /au        :         98.216342


Wiberg/Mayer (AO) data.
largest (>0.10) Wiberg bond orders for each atom

 ---------------------------------------------------------------------------
     #   Z sym  total        # sym  WBO       # sym  WBO       # sym  WBO
 ---------------------------------------------------------------------------
     1   6 C    3.988 --     2 C    1.445     6 C    1.433    15 H    0.967
                             4 C    0.109
     2   6 C    3.988 --     1 C    1.445     3 C    1.433    16 H    0.967
                             5 C    0.109
     3   6 C    3.985 --     2 C    1.433     4 C    1.424    17 H    0.964
                             6 C    0.107
     4   6 C    3.980 --     3 C    1.424     5 C    1.381    11 C    0.952
                             1 C    0.109
     5   6 C    3.980 --     6 C    1.424     4 C    1.381     7 C    0.952
                             2 C    0.109
     6   6 C    3.985 --     1 C    1.433     5 C    1.424    18 H    0.964
                             3 C    0.107
     7   6 C    3.839 --     9 F    0.954     5 C    0.952    10 F    0.951
                             8 F    0.945
     8   9 F    1.078 --     7 C    0.945
     9   9 F    1.083 --     7 C    0.954
    10   9 F    1.076 --     7 C    0.951
    11   6 C    3.839 --    12 F    0.954     4 C    0.952    13 F    0.951
                            14 F    0.945
    12   9 F    1.083 --    11 C    0.954
    13   9 F    1.076 --    11 C    0.951
    14   9 F    1.078 --    11 C    0.945
    15   1 H    0.994 --     1 C    0.967
    16   1 H    0.994 --     2 C    0.967
    17   1 H    0.993 --     3 C    0.964
    18   1 H    0.993 --     6 C    0.964
 ---------------------------------------------------------------------------

Topologies differ in total number of bonds
Writing topology from bond orders to xtbtopo.mol

molecular dipole:
                 x           y           z       tot (Debye)
 q only:       -0.000      -2.564      -0.000
   full:       -0.000      -2.603      -0.000       6.617
molecular quadrupole (traceless):
                xx          xy          yy          xz          yz          zz
 q only:       -4.562       0.001       7.718       0.116      -0.001      -3.155
  q+dip:       -2.876       0.001       9.202       0.146      -0.001      -6.326
   full:       -4.362       0.001       7.659       0.122      -0.001      -3.297


           -------------------------------------------------
          | TOTAL ENERGY              -47.571321420525 Eh   |
          | GRADIENT NORM               0.020384076332 Eh/α |
          | HOMO-LUMO GAP               4.593022753066 eV   |
           -------------------------------------------------

------------------------------------------------------------------------
 * finished run on 2025/04/03 at 21:12:25.712     
------------------------------------------------------------------------
 total:
 * wall-time:     0 d,  0 h,  0 min,  0.044 sec
 *  cpu-time:     0 d,  0 h,  0 min,  0.023 sec
 * ratio c/w:     0.535 speedup
 SCF:
 * wall-time:     0 d,  0 h,  0 min,  0.015 sec
 *  cpu-time:     0 d,  0 h,  0 min,  0.015 sec
 * ratio c/w:     0.990 speedup

