      -----------------------------------------------------------      
     |                   =====================                   |     
     |                           x T B                           |     
     |                   =====================                   |     
     |                         S. Grimme                         |     
     |          Mulliken Center for Theoretical Chemistry        |     
     |                    University of Bonn                     |     
      -----------------------------------------------------------      

   * xtb version 6.7.1 (edcfbbe) compiled by 'albert@albert-system' on 2024-07-22

   xtb is free software: you can redistribute it and/or modify it under
   the terms of the GNU Lesser General Public License as published by
   the Free Software Foundation, either version 3 of the License, or
   (at your option) any later version.
   
   xtb is distributed in the hope that it will be useful,
   but WITHOUT ANY WARRANTY; without even the implied warranty of
   MERCHANTABILITY or FITNESS FOR A PARTICULAR PURPOSE.  See the
   GNU Lesser General Public License for more details.
   
   Cite this work as:
   * C. Bannwarth, E. Caldeweyher, S. Ehlert, A. Hansen, P. Pracht,
     J. Seibert, S. Spicher, S. Grimme, WIREs Comput. Mol. Sci., 2020, 11,
     e01493. DOI: 10.1002/wcms.1493
   
   for GFN2-xTB:
   * C. Bannwarth, S. Ehlert and S. Grimme., J. Chem. Theory Comput., 2019,
     15, 1652-1671. DOI: 10.1021/acs.jctc.8b01176
   for GFN1-xTB:
   * S. Grimme, C. Bannwarth, P. Shushkov, J. Chem. Theory Comput., 2017,
     13, 1989-2009. DOI: 10.1021/acs.jctc.7b00118
   for GFN0-xTB:
   * P. Pracht, E. Caldeweyher, S. Ehlert, S. Grimme, ChemRxiv, 2019, preprint.
     DOI: 10.26434/chemrxiv.8326202.v1
   for GFN-FF:
   * S. Spicher and S. Grimme, Angew. Chem. Int. Ed., 2020, 59, 15665-15673.
     DOI: 10.1002/anie.202004239
   
   for ALPB and GBSA implicit solvation:
   * S. Ehlert, M. Stahn, S. Spicher, S. Grimme, J. Chem. Theory Comput.,
     2021, 17, 4250-4261. DOI: 10.1021/acs.jctc.1c00471
   
   for ddCOSMO and CPCM-X implicit solvation:
   * M. Stahn, S. Ehlert, S. Grimme, J. Phys. Chem. A,
     2023, XX, XXXX-XXXX. DOI: 10.1021/acs.jpca.3c04382
   
   for DFT-D4:
   * E. Caldeweyher, C. Bannwarth and S. Grimme, J. Chem. Phys., 2017,
     147, 034112. DOI: 10.1063/1.4993215
   * E. Caldeweyher, S. Ehlert, A. Hansen, H. Neugebauer, S. Spicher,
     C. Bannwarth and S. Grimme, J. Chem. Phys., 2019, 150, 154122.
     DOI: 10.1063/1.5090222
   * E. Caldeweyher, J.-M. Mewes, S. Ehlert and S. Grimme, Phys. Chem. Chem. Phys.
     2020, 22, 8499-8512. DOI: 10.1039/D0CP00502A
   
   for sTDA-xTB:
   * S. Grimme and C. Bannwarth, J. Chem. Phys., 2016, 145, 054103.
     DOI: 10.1063/1.4959605
   
   in the mass-spec context:
   * V. Asgeirsson, C. Bauer and S. Grimme, Chem. Sci., 2017, 8, 4879.
     DOI: 10.1039/c7sc00601b
   * J. Koopman and S. Grimme, ACS Omega 2019, 4, 12, 15120-15133.
     DOI: 10.1021/acsomega.9b02011
   
   for metadynamics refer to:
   * S. Grimme, J. Chem. Theory Comput., 2019, 155, 2847-2862
     DOI: 10.1021/acs.jctc.9b00143
   
   for SPH calculations refer to:
   * S. Spicher and S. Grimme, J. Chem. Theory Comput., 2021, 17, 1701-1714
     DOI: 10.1021/acs.jctc.0c01306
   
   for ONIOM refer to:
   * C. Plett, A. Katbashev, S. Ehlert, S. Grimme, M. Bursch,
     Phys. Chem. Chem. Phys., 2023, 25, 17860-17868. DOI: 10.1039/D3CP02178E
   
   for DIPRO refer to:
   * J. Kohn, N. Gildemeister, S. Grimme, D. Fazzi, A. Hansen,
     J. Chem. Phys., 2023, just accepted.
   
   for PTB refer to:
   * S. Grimme, M. Mueller, A. Hansen, J. Chem. Phys., 2023, 158, 124111.
     DOI: 10.1063/5.0137838
   
   with help from (in alphabetical order)
   P. Atkinson, C. Bannwarth, F. Bohle, G. Brandenburg, E. Caldeweyher
   M. Checinski, S. Dohm, S. Ehlert, S. Ehrlich, I. Gerasimov, C. Hölzer
   A. Katbashev, J. Kohn, J. Koopman, C. Lavigne, S. Lehtola, F. März, M. Müller,
   F. Musil, H. Neugebauer, J. Pisarek, C. Plett, P. Pracht, F. Pultar,
   J. Seibert, P. Shushkov, S. Spicher, M. Stahn, M. Steiner, T. Strunk,
   J. Stückrath, T. Rose, and J. Unsleber
   
 * started run on 2025/04/03 at 22:13:56.391     
   ID    Z sym.   atoms
    1    6 C      1-3
    2    8 O      4, 5
    3    1 H      6-11

           -------------------------------------------------
          |                Calculation Setup                |
           -------------------------------------------------

          program call               : /srv/scratch/z5358697/.xtb/bin/xtb gas.coord --gfn2 --sp --chrg 0 --norestart --parallel 1
          hostname                   : k142
          coordinate file            : gas.coord
          omp threads                :                     1


           -------------------------------------------------
          |                 G F N 2 - x T B                 |
           -------------------------------------------------

        Reference                      10.1021/acs.jctc.8b01176
      * Hamiltonian:
        H0-scaling (s, p, d)           1.850000    2.230000    2.230000
        zeta-weighting                 0.500000
      * Dispersion:
        s8                             2.700000
        a1                             0.520000
        a2                             5.000000
        s9                             5.000000
      * Repulsion:
        kExp                           1.500000    1.000000
        rExp                           1.000000
      * Coulomb:
        alpha                          2.000000
        third order                    shell-resolved
        anisotropic                    true
        a3                             3.000000
        a5                             4.000000
        cn-shift                       1.200000
        cn-exp                         4.000000
        max-rad                        5.000000


          ...................................................
          :                      SETUP                      :
          :.................................................:
          :  # basis functions                  26          :
          :  # atomic orbitals                  26          :
          :  # shells                           16          :
          :  # electrons                        30          :
          :  max. iterations                   250          :
          :  Hamiltonian                  GFN2-xTB          :
          :  restarted?                      false          :
          :  GBSA solvation                  false          :
          :  PC potential                    false          :
          :  electronic temp.          300.0000000     K    :
          :  accuracy                    1.0000000          :
          :  -> integral cutoff          0.2500000E+02      :
          :  -> integral neglect         0.1000000E-07      :
          :  -> SCF convergence          0.1000000E-05 Eh   :
          :  -> wf. convergence          0.1000000E-03 e    :
          :  Broyden damping             0.4000000          :
          :  net charge                          0          :
          :  unpaired electrons                  0          :
          ...................................................

 iter      E             dE          RMSdq      gap      omega  full diag
   1    -17.7441509 -0.177442E+02  0.431E+00    5.77       0.0  T
   2    -17.7862776 -0.421267E-01  0.218E+00    4.58       1.0  T
   3    -17.7895006 -0.322293E-02  0.131E+00    5.04       1.0  T
   4    -17.7916496 -0.214905E-02  0.166E-01    4.79       1.0  T
   5    -17.7917697 -0.120125E-03  0.779E-02    4.83       1.0  T
   6    -17.7917726 -0.281336E-05  0.123E-02    4.83       2.5  T
   7    -17.7917727 -0.157337E-06  0.611E-03    4.83       4.9  T
   8    -17.7917727 -0.268629E-07  0.148E-03    4.83      20.4  T
   9    -17.7917727 -0.266612E-08  0.681E-04    4.83      44.3  T
  10    -17.7917727 -0.556454E-09  0.170E-04    4.83     177.6  T

   *** convergence criteria satisfied after 10 iterations ***

         #    Occupation            Energy/Eh            Energy/eV
      -------------------------------------------------------------
         1        2.0000           -0.7496246             -20.3983
       ...           ...                  ...                  ...
         9        2.0000           -0.5213429             -14.1865
        10        2.0000           -0.5142911             -13.9946
        11        2.0000           -0.4956748             -13.4880
        12        2.0000           -0.4808675             -13.0851
        13        2.0000           -0.4721504             -12.8479
        14        2.0000           -0.4644918             -12.6395
        15        2.0000           -0.4154372             -11.3046 (HOMO)
        16                         -0.2378419              -6.4720 (LUMO)
        17                          0.0483757               1.3164
        18                          0.0931775               2.5355
        19                          0.0975966               2.6557
        20                          0.1312928               3.5727
       ...                                ...                  ...
        26                          0.6033171              16.4171
      -------------------------------------------------------------
                  HL-Gap            0.1775953 Eh            4.8326 eV
             Fermi-level           -0.3266395 Eh           -8.8883 eV

 SCC (total)                   0 d,  0 h,  0 min,  0.006 sec
 SCC setup                      ...        0 min,  0.000 sec (  2.572%)
 Dispersion                     ...        0 min,  0.000 sec (  0.848%)
 classical contributions        ...        0 min,  0.000 sec (  0.254%)
 integral evaluation            ...        0 min,  0.001 sec ( 10.734%)
 iterations                     ...        0 min,  0.003 sec ( 58.044%)
 molecular gradient             ...        0 min,  0.001 sec ( 25.348%)
 printout                       ...        0 min,  0.000 sec (  1.982%)

         :::::::::::::::::::::::::::::::::::::::::::::::::::::
         ::                     SUMMARY                     ::
         :::::::::::::::::::::::::::::::::::::::::::::::::::::
         :: total energy             -17.612751527568 Eh    ::
         :: gradient norm              0.036781264269 Eh/a0 ::
         :: HOMO-LUMO gap              4.832614467885 eV    ::
         ::.................................................::
         :: SCC energy               -17.791769359129 Eh    ::
         :: -> isotropic ES            0.049799464643 Eh    ::
         :: -> anisotropic ES          0.003669388595 Eh    ::
         :: -> anisotropic XC          0.002018973524 Eh    ::
         :: -> dispersion             -0.004994109326 Eh    ::
         :: repulsion energy           0.179017831561 Eh    ::
         :: add. restraining           0.000000000000 Eh    ::
         :: total charge              -0.000000000000 e     ::
         :::::::::::::::::::::::::::::::::::::::::::::::::::::

           -------------------------------------------------
          |                Property Printout                |
           -------------------------------------------------

    * Orbital Energies and Occupations

         #    Occupation            Energy/Eh            Energy/eV
      -------------------------------------------------------------
         1        2.0000           -0.7496246             -20.3983
       ...           ...                  ...                  ...
         3        2.0000           -0.6616224             -18.0037
         4        2.0000           -0.6468707             -17.6022
         5        2.0000           -0.6159412             -16.7606
         6        2.0000           -0.5837340             -15.8842
         7        2.0000           -0.5718530             -15.5609
         8        2.0000           -0.5591621             -15.2156
         9        2.0000           -0.5213429             -14.1865
        10        2.0000           -0.5142911             -13.9946
        11        2.0000           -0.4956748             -13.4880
        12        2.0000           -0.4808675             -13.0851
        13        2.0000           -0.4721504             -12.8479
        14        2.0000           -0.4644918             -12.6395
        15        2.0000           -0.4154372             -11.3046 (HOMO)
        16                         -0.2378419              -6.4720 (LUMO)
        17                          0.0483757               1.3164
        18                          0.0931775               2.5355
        19                          0.0975966               2.6557
        20                          0.1312928               3.5727
        21                          0.1592902               4.3345
        22                          0.1672941               4.5523
        23                          0.2216315               6.0309
        24                          0.2421726               6.5899
        25                          0.3417336               9.2990
        26                          0.6033171              16.4171
      -------------------------------------------------------------
                  HL-Gap            0.1775953 Eh            4.8326 eV
             Fermi-level           -0.3266395 Eh           -8.8883 eV

     #   Z          covCN         q      C6AA      α(0)
     1   6 C        3.754    -0.102    22.512     6.766
     2   6 C        3.801    -0.097    22.355     6.732
     3   6 C        2.691     0.357    20.939     7.489
     4   8 O        0.857    -0.378    21.253     6.181
     5   8 O        1.659    -0.362    20.125     6.056
     6   1 H        0.925     0.039     2.458     2.452
     7   1 H        0.925     0.052     2.300     2.372
     8   1 H        0.925     0.055     2.260     2.351
     9   1 H        0.925     0.071     2.077     2.254
    10   1 H        0.924     0.046     2.375     2.410
    11   1 H        0.804     0.321     0.662     1.279

 Mol. C6AA /au·bohr⁶  :        987.889290
 Mol. C8AA /au·bohr⁸  :      21067.753958
 Mol. α(0) /au        :         46.339654


Wiberg/Mayer (AO) data.
largest (>0.10) Wiberg bond orders for each atom

 ---------------------------------------------------------------------------
     #   Z sym  total        # sym  WBO       # sym  WBO       # sym  WBO
 ---------------------------------------------------------------------------
     1   6 C    3.992 --     2 C    0.995     6 H    0.987     8 H    0.987
                             7 H    0.984
     2   6 C    3.995 --     1 C    0.995     3 C    0.974     9 H    0.973
                            10 H    0.968
     3   6 C    3.916 --     4 O    1.780     5 O    1.133     2 C    0.974
     4   8 O    2.053 --     3 C    1.780     5 O    0.163
     5   8 O    2.214 --     3 C    1.133    11 H    0.873     4 O    0.163
     6   1 H    0.998 --     1 C    0.987
     7   1 H    0.997 --     1 C    0.984
     8   1 H    0.997 --     1 C    0.987
     9   1 H    0.995 --     2 C    0.973
    10   1 H    0.998 --     2 C    0.968
    11   1 H    0.897 --     5 O    0.873
 ---------------------------------------------------------------------------

Topologies differ in total number of bonds
Writing topology from bond orders to xtbtopo.mol

molecular dipole:
                 x           y           z       tot (Debye)
 q only:        0.836      -1.379      -0.039
   full:        1.006      -1.728      -0.080       5.087
molecular quadrupole (traceless):
                xx          xy          yy          xz          yz          zz
 q only:       -0.708       2.825       0.014       0.176      -0.043       0.694
  q+dip:       -1.675       3.445       0.498       0.120       0.395       1.177
   full:       -1.715       3.555       0.091       0.661       0.411       1.624


           -------------------------------------------------
          | TOTAL ENERGY              -17.612751527568 Eh   |
          | GRADIENT NORM               0.036781264269 Eh/α |
          | HOMO-LUMO GAP               4.832614467885 eV   |
           -------------------------------------------------

------------------------------------------------------------------------
 * finished run on 2025/04/03 at 22:13:56.425     
------------------------------------------------------------------------
 total:
 * wall-time:     0 d,  0 h,  0 min,  0.034 sec
 *  cpu-time:     0 d,  0 h,  0 min,  0.013 sec
 * ratio c/w:     0.383 speedup
 SCF:
 * wall-time:     0 d,  0 h,  0 min,  0.006 sec
 *  cpu-time:     0 d,  0 h,  0 min,  0.006 sec
 * ratio c/w:     0.986 speedup

