      -----------------------------------------------------------      
     |                   =====================                   |     
     |                           x T B                           |     
     |                   =====================                   |     
     |                         S. Grimme                         |     
     |          Mulliken Center for Theoretical Chemistry        |     
     |                    University of Bonn                     |     
      -----------------------------------------------------------      

   * xtb version 6.7.1 (edcfbbe) compiled by 'albert@albert-system' on 2024-07-22

   xtb is free software: you can redistribute it and/or modify it under
   the terms of the GNU Lesser General Public License as published by
   the Free Software Foundation, either version 3 of the License, or
   (at your option) any later version.
   
   xtb is distributed in the hope that it will be useful,
   but WITHOUT ANY WARRANTY; without even the implied warranty of
   MERCHANTABILITY or FITNESS FOR A PARTICULAR PURPOSE.  See the
   GNU Lesser General Public License for more details.
   
   Cite this work as:
   * C. Bannwarth, E. Caldeweyher, S. Ehlert, A. Hansen, P. Pracht,
     J. Seibert, S. Spicher, S. Grimme, WIREs Comput. Mol. Sci., 2020, 11,
     e01493. DOI: 10.1002/wcms.1493
   
   for GFN2-xTB:
   * C. Bannwarth, S. Ehlert and S. Grimme., J. Chem. Theory Comput., 2019,
     15, 1652-1671. DOI: 10.1021/acs.jctc.8b01176
   for GFN1-xTB:
   * S. Grimme, C. Bannwarth, P. Shushkov, J. Chem. Theory Comput., 2017,
     13, 1989-2009. DOI: 10.1021/acs.jctc.7b00118
   for GFN0-xTB:
   * P. Pracht, E. Caldeweyher, S. Ehlert, S. Grimme, ChemRxiv, 2019, preprint.
     DOI: 10.26434/chemrxiv.8326202.v1
   for GFN-FF:
   * S. Spicher and S. Grimme, Angew. Chem. Int. Ed., 2020, 59, 15665-15673.
     DOI: 10.1002/anie.202004239
   
   for ALPB and GBSA implicit solvation:
   * S. Ehlert, M. Stahn, S. Spicher, S. Grimme, J. Chem. Theory Comput.,
     2021, 17, 4250-4261. DOI: 10.1021/acs.jctc.1c00471
   
   for ddCOSMO and CPCM-X implicit solvation:
   * M. Stahn, S. Ehlert, S. Grimme, J. Phys. Chem. A,
     2023, XX, XXXX-XXXX. DOI: 10.1021/acs.jpca.3c04382
   
   for DFT-D4:
   * E. Caldeweyher, C. Bannwarth and S. Grimme, J. Chem. Phys., 2017,
     147, 034112. DOI: 10.1063/1.4993215
   * E. Caldeweyher, S. Ehlert, A. Hansen, H. Neugebauer, S. Spicher,
     C. Bannwarth and S. Grimme, J. Chem. Phys., 2019, 150, 154122.
     DOI: 10.1063/1.5090222
   * E. Caldeweyher, J.-M. Mewes, S. Ehlert and S. Grimme, Phys. Chem. Chem. Phys.
     2020, 22, 8499-8512. DOI: 10.1039/D0CP00502A
   
   for sTDA-xTB:
   * S. Grimme and C. Bannwarth, J. Chem. Phys., 2016, 145, 054103.
     DOI: 10.1063/1.4959605
   
   in the mass-spec context:
   * V. Asgeirsson, C. Bauer and S. Grimme, Chem. Sci., 2017, 8, 4879.
     DOI: 10.1039/c7sc00601b
   * J. Koopman and S. Grimme, ACS Omega 2019, 4, 12, 15120-15133.
     DOI: 10.1021/acsomega.9b02011
   
   for metadynamics refer to:
   * S. Grimme, J. Chem. Theory Comput., 2019, 155, 2847-2862
     DOI: 10.1021/acs.jctc.9b00143
   
   for SPH calculations refer to:
   * S. Spicher and S. Grimme, J. Chem. Theory Comput., 2021, 17, 1701-1714
     DOI: 10.1021/acs.jctc.0c01306
   
   for ONIOM refer to:
   * C. Plett, A. Katbashev, S. Ehlert, S. Grimme, M. Bursch,
     Phys. Chem. Chem. Phys., 2023, 25, 17860-17868. DOI: 10.1039/D3CP02178E
   
   for DIPRO refer to:
   * J. Kohn, N. Gildemeister, S. Grimme, D. Fazzi, A. Hansen,
     J. Chem. Phys., 2023, just accepted.
   
   for PTB refer to:
   * S. Grimme, M. Mueller, A. Hansen, J. Chem. Phys., 2023, 158, 124111.
     DOI: 10.1063/5.0137838
   
   with help from (in alphabetical order)
   P. Atkinson, C. Bannwarth, F. Bohle, G. Brandenburg, E. Caldeweyher
   M. Checinski, S. Dohm, S. Ehlert, S. Ehrlich, I. Gerasimov, C. Hölzer
   A. Katbashev, J. Kohn, J. Koopman, C. Lavigne, S. Lehtola, F. März, M. Müller,
   F. Musil, H. Neugebauer, J. Pisarek, C. Plett, P. Pracht, F. Pultar,
   J. Seibert, P. Shushkov, S. Spicher, M. Stahn, M. Steiner, T. Strunk,
   J. Stückrath, T. Rose, and J. Unsleber
   
 * started run on 2025/04/06 at 18:00:38.658     
   ID    Z sym.   atoms
    1    6 C      1, 2, 4, 6, 8, 10
    2    1 H      3, 5, 7, 9, 11, 18-24
    3    8 O      12-17

           -------------------------------------------------
          |                Calculation Setup                |
           -------------------------------------------------

          program call               : /srv/scratch/z5358697/.xtb/bin/xtb gas.coord --gfn2 --sp --chrg 0 --norestart --parallel 1
          hostname                   : k155
          coordinate file            : gas.coord
          omp threads                :                     1


           -------------------------------------------------
          |                 G F N 2 - x T B                 |
           -------------------------------------------------

        Reference                      10.1021/acs.jctc.8b01176
      * Hamiltonian:
        H0-scaling (s, p, d)           1.850000    2.230000    2.230000
        zeta-weighting                 0.500000
      * Dispersion:
        s8                             2.700000
        a1                             0.520000
        a2                             5.000000
        s9                             5.000000
      * Repulsion:
        kExp                           1.500000    1.000000
        rExp                           1.000000
      * Coulomb:
        alpha                          2.000000
        third order                    shell-resolved
        anisotropic                    true
        a3                             3.000000
        a5                             4.000000
        cn-shift                       1.200000
        cn-exp                         4.000000
        max-rad                        5.000000


          ...................................................
          :                      SETUP                      :
          :.................................................:
          :  # basis functions                  60          :
          :  # atomic orbitals                  60          :
          :  # shells                           36          :
          :  # electrons                        72          :
          :  max. iterations                   250          :
          :  Hamiltonian                  GFN2-xTB          :
          :  restarted?                      false          :
          :  GBSA solvation                  false          :
          :  PC potential                    false          :
          :  electronic temp.          300.0000000     K    :
          :  accuracy                    1.0000000          :
          :  -> integral cutoff          0.2500000E+02      :
          :  -> integral neglect         0.1000000E-07      :
          :  -> SCF convergence          0.1000000E-05 Eh   :
          :  -> wf. convergence          0.1000000E-03 e    :
          :  Broyden damping             0.4000000          :
          :  net charge                          0          :
          :  unpaired electrons                  0          :
          ...................................................

 iter      E             dE          RMSdq      gap      omega  full diag
   1    -43.6289776 -0.436290E+02  0.453E+00   10.50       0.0  T
   2    -43.6611472 -0.321695E-01  0.249E+00   10.27       1.0  T
   3    -43.6622028 -0.105564E-02  0.684E-01   10.33       1.0  T
   4    -43.6631603 -0.957522E-03  0.142E-01   10.28       1.0  T
   5    -43.6632308 -0.704170E-04  0.577E-02   10.31       1.0  T
   6    -43.6632405 -0.974198E-05  0.182E-02   10.31       1.1  T
   7    -43.6632411 -0.582571E-06  0.592E-03   10.31       3.4  T
   8    -43.6632413 -0.260245E-06  0.169E-03   10.31      12.1  T
   9    -43.6632413 -0.428605E-08  0.621E-04   10.31      32.9  T
  10    -43.6632413 -0.317097E-08  0.168E-04   10.31     121.3  T

   *** convergence criteria satisfied after 10 iterations ***

         #    Occupation            Energy/Eh            Energy/eV
      -------------------------------------------------------------
         1        2.0000           -0.7333848             -19.9564
       ...           ...                  ...                  ...
        30        2.0000           -0.4605296             -12.5316
        31        2.0000           -0.4560298             -12.4092
        32        2.0000           -0.4473721             -12.1736
        33        2.0000           -0.4350391             -11.8380
        34        2.0000           -0.4222224             -11.4893
        35        2.0000           -0.4189024             -11.3989
        36        2.0000           -0.4070437             -11.0762 (HOMO)
        37                         -0.0281896              -0.7671 (LUMO)
        38                         -0.0059212              -0.1611
        39                          0.0143179               0.3896
        40                          0.0170293               0.4634
        41                          0.0288545               0.7852
       ...                                ...                  ...
        60                          0.2906899               7.9101
      -------------------------------------------------------------
                  HL-Gap            0.3788541 Eh           10.3091 eV
             Fermi-level           -0.2176167 Eh           -5.9217 eV

 SCC (total)                   0 d,  0 h,  0 min,  0.025 sec
 SCC setup                      ...        0 min,  0.000 sec (  0.707%)
 Dispersion                     ...        0 min,  0.000 sec (  0.566%)
 classical contributions        ...        0 min,  0.000 sec (  0.106%)
 integral evaluation            ...        0 min,  0.003 sec ( 10.634%)
 iterations                     ...        0 min,  0.015 sec ( 58.794%)
 molecular gradient             ...        0 min,  0.007 sec ( 28.604%)
 printout                       ...        0 min,  0.000 sec (  0.537%)

         :::::::::::::::::::::::::::::::::::::::::::::::::::::
         ::                     SUMMARY                     ::
         :::::::::::::::::::::::::::::::::::::::::::::::::::::
         :: total energy             -43.359214410129 Eh    ::
         :: gradient norm              0.012787644838 Eh/a0 ::
         :: HOMO-LUMO gap             10.309144291336 eV    ::
         ::.................................................::
         :: SCC energy               -43.663078549384 Eh    ::
         :: -> isotropic ES            0.137254029386 Eh    ::
         :: -> anisotropic ES         -0.002940173030 Eh    ::
         :: -> anisotropic XC         -0.009866092025 Eh    ::
         :: -> dispersion             -0.019263237613 Eh    ::
         :: repulsion energy           0.303864139255 Eh    ::
         :: add. restraining           0.000000000000 Eh    ::
         :: total charge              -0.000000000000 e     ::
         :::::::::::::::::::::::::::::::::::::::::::::::::::::

           -------------------------------------------------
          |                Property Printout                |
           -------------------------------------------------

    * Orbital Energies and Occupations

         #    Occupation            Energy/Eh            Energy/eV
      -------------------------------------------------------------
         1        2.0000           -0.7333848             -19.9564
       ...           ...                  ...                  ...
        24        2.0000           -0.5142676             -13.9939
        25        2.0000           -0.5097844             -13.8719
        26        2.0000           -0.5012209             -13.6389
        27        2.0000           -0.4947856             -13.4638
        28        2.0000           -0.4906688             -13.3518
        29        2.0000           -0.4751514             -12.9295
        30        2.0000           -0.4605296             -12.5316
        31        2.0000           -0.4560298             -12.4092
        32        2.0000           -0.4473721             -12.1736
        33        2.0000           -0.4350391             -11.8380
        34        2.0000           -0.4222224             -11.4893
        35        2.0000           -0.4189024             -11.3989
        36        2.0000           -0.4070437             -11.0762 (HOMO)
        37                         -0.0281896              -0.7671 (LUMO)
        38                         -0.0059212              -0.1611
        39                          0.0143179               0.3896
        40                          0.0170293               0.4634
        41                          0.0288545               0.7852
        42                          0.0577291               1.5709
        43                          0.0812718               2.2115
        44                          0.0817346               2.2241
        45                          0.0987254               2.6865
        46                          0.1042974               2.8381
        47                          0.1105806               3.0091
       ...                                ...                  ...
        60                          0.2906899               7.9101
      -------------------------------------------------------------
                  HL-Gap            0.3788541 Eh           10.3091 eV
             Fermi-level           -0.2176167 Eh           -5.9217 eV

     #   Z          covCN         q      C6AA      α(0)
     1   6 C        3.675     0.067    19.672     6.355
     2   6 C        3.741     0.092    19.128     6.240
     3   1 H        0.924     0.068     2.107     2.270
     4   6 C        3.730     0.100    19.022     6.226
     5   1 H        0.923     0.041     2.440     2.443
     6   6 C        3.729     0.099    19.045     6.230
     7   1 H        0.923     0.026     2.650     2.546
     8   6 C        3.726     0.077    19.388     6.287
     9   1 H        0.924     0.080     1.982     2.202
    10   6 C        3.614     0.232    17.416     6.022
    11   1 H        0.923     0.039     2.457     2.451
    12   8 O        1.699    -0.355    19.975     6.034
    13   8 O        1.656    -0.449    21.814     6.305
    14   8 O        1.655    -0.438    21.591     6.273
    15   8 O        1.656    -0.444    21.724     6.292
    16   8 O        1.656    -0.440    21.644     6.280
    17   8 O        1.655    -0.432    21.472     6.255
    18   1 H        0.924     0.034     2.529     2.487
    19   1 H        0.924     0.070     2.085     2.258
    20   1 H        0.804     0.313     0.682     1.297
    21   1 H        0.804     0.297     0.730     1.342
    22   1 H        0.805     0.306     0.704     1.318
    23   1 H        0.804     0.319     0.667     1.282
    24   1 H        0.804     0.296     0.732     1.344

 Mol. C6AA /au·bohr⁶  :       4693.309977
 Mol. C8AA /au·bohr⁸  :      99803.567501
 Mol. α(0) /au        :         98.039907


Wiberg/Mayer (AO) data.
largest (>0.10) Wiberg bond orders for each atom

 ---------------------------------------------------------------------------
     #   Z sym  total        # sym  WBO       # sym  WBO       # sym  WBO
 ---------------------------------------------------------------------------
     1   6 C    3.959 --    17 O    1.010     2 C    0.978    19 H    0.968
                            18 H    0.966
     2   6 C    3.940 --     1 C    0.978     4 C    0.974     3 H    0.956
                            12 O    0.952
     3   1 H    0.995 --     2 C    0.956
     4   6 C    3.964 --    16 O    1.005     2 C    0.974     6 C    0.968
                             5 H    0.955
     5   1 H    0.998 --     4 C    0.955
     6   6 C    3.959 --    15 O    0.996     4 C    0.968     8 C    0.964
                             7 H    0.956
     7   1 H    0.999 --     6 C    0.956
     8   6 C    3.955 --    14 O    1.003     6 C    0.964     9 H    0.955
                            10 C    0.950
     9   1 H    0.994 --     8 C    0.955
    10   6 C    3.932 --    13 O    1.000    12 O    0.973    11 H    0.951
                             8 C    0.950
    11   1 H    0.998 --    10 C    0.951
    12   8 O    2.075 --    10 C    0.973     2 C    0.952
    13   8 O    1.978 --    10 C    1.000    20 H    0.884
    14   8 O    1.973 --     8 C    1.003    21 H    0.894
    15   8 O    1.962 --     6 C    0.996    22 H    0.889
    16   8 O    1.958 --     4 C    1.005    23 H    0.878
    17   8 O    1.964 --     1 C    1.010    24 H    0.896
    18   1 H    0.999 --     1 C    0.966
    19   1 H    0.995 --     1 C    0.968
    20   1 H    0.902 --    13 O    0.884
    21   1 H    0.912 --    14 O    0.894
    22   1 H    0.906 --    15 O    0.889
    23   1 H    0.898 --    16 O    0.878
    24   1 H    0.912 --    17 O    0.896
 ---------------------------------------------------------------------------

Topologies differ in total number of bonds
Writing topology from bond orders to xtbtopo.mol

molecular dipole:
                 x           y           z       tot (Debye)
 q only:        0.742      -0.128       0.192
   full:        1.191      -0.290       0.413       3.288
molecular quadrupole (traceless):
                xx          xy          yy          xz          yz          zz
 q only:      -10.258      -0.426       7.905       3.011       1.252       2.353
  q+dip:      -16.387      -0.915      11.178       3.821       3.070       5.208
   full:      -15.966      -0.620      11.423       4.098       2.216       4.543


           -------------------------------------------------
          | TOTAL ENERGY              -43.359214410129 Eh   |
          | GRADIENT NORM               0.012787644838 Eh/α |
          | HOMO-LUMO GAP              10.309144291336 eV   |
           -------------------------------------------------

------------------------------------------------------------------------
 * finished run on 2025/04/06 at 18:00:38.712     
------------------------------------------------------------------------
 total:
 * wall-time:     0 d,  0 h,  0 min,  0.054 sec
 *  cpu-time:     0 d,  0 h,  0 min,  0.027 sec
 * ratio c/w:     0.509 speedup
 SCF:
 * wall-time:     0 d,  0 h,  0 min,  0.026 sec
 *  cpu-time:     0 d,  0 h,  0 min,  0.019 sec
 * ratio c/w:     0.741 speedup

