22
 energy: -463.178480528431 gnorm: 0.018827984037 xtb: 6.7.1 (edcfbbe)
C           -3.52453420956181        0.00008560890004        0.00152893710068
C           -2.82817176735324        1.11712536679503        0.43247905679164
C           -1.44543731784051        1.11912100509591        0.42857392268991
C           -0.73564707922598        0.00019889750009       -0.00148263610066
C           -1.44622657164086       -1.11865550149571       -0.43022261469064
C           -2.82894560945358       -1.11677806549487       -0.43122070749109
C            0.73564921382599       -0.00008040480004       -0.00142167860063
C            1.44631292344090        1.11871773359573       -0.43018944889063
C            2.82902193845361        1.11674484559486       -0.43114626619105
C            3.52454179946182       -0.00018900110008        0.00142839510063
C            2.82808666505320       -1.11720403689506        0.43249196589165
C            1.44534773444047       -1.11906508489589        0.42866871208995
H           -4.60417373184023       -0.00004607460002        0.00272818180121
H           -3.36503319209114        1.98949164268160        0.77452703254321
H           -0.90749192010213        1.98711623328054        0.78110152964613
H           -0.90898017890279       -1.98666407288034       -0.78320119734706
H           -3.36643254479176       -1.98922705218148       -0.77211793084215
H            0.90914243180286        1.98675457708038       -0.78319195554705
H            3.36659529109183        1.98915950428145       -0.77204485284211
H            4.60415130014022       -0.00015282170007        0.00277280200123
H            3.36489189839107       -1.98962791288166        0.77467560334328
H            0.90735782040207       -1.98705859938052        0.78085653594602
22
 energy: -463.179480045687 gnorm: 0.004310884352 xtb: 6.7.1 (edcfbbe)
C           -3.53904124001660        0.00015932077946        0.00131386370250
C           -2.83913553037806        1.12391087960916        0.43022775533220
C           -1.45015355371347        1.12571583715010        0.42664937401542
C           -0.73750348140211        0.00016882373497       -0.00117770864864
C           -1.45088172536417       -1.12526931286182       -0.42801381641157
C           -2.83986427922170       -1.12350515594336       -0.42905826670612
C            0.73750807227195       -0.00009135283263       -0.00116329688632
C            1.45094682929476        1.12532197113689       -0.42795522190184
C            2.83993160062570        1.12345763841987       -0.42901405308088
C            3.53904737544224       -0.00022141893270        0.00137367890874
C            2.83906892892267       -1.12396251738398        0.43026394895134
C            1.45009197009925       -1.12570418278480        0.42662565511426
H           -4.62303481917889        0.00001475376414        0.00255023817916
H           -3.37698030047421        1.99927603723512        0.77711744528426
H           -0.90968131386349        1.99739378740471        0.77991473227067
H           -0.91102309914357       -1.99695911687395       -0.78207487255835
H           -3.37831620318827       -1.99894898255025       -0.77481728719591
H            0.91114572303109        1.99704971529749       -0.78200624708153
H            3.37844804573467        1.99887328803574       -0.77475785968511
H            4.62303444759370       -0.00019973510502        0.00258266067749
H            3.37685573576905       -1.99937955667113        0.77715019328087
H            0.90956136237600       -1.99733372778234        0.77986222849697
22
 energy: -463.179570646513 gnorm: 0.000568632367 xtb: 6.7.1 (edcfbbe)
C           -3.54621961982501        0.00018668496784        0.00119569135510
C           -2.84488440355516        1.12624281975431        0.42796806586645
C           -1.45375241984774        1.12848423416966        0.42361680746534
C           -0.73879642986500        0.00015045529658       -0.00093327447738
C           -1.45440652193090       -1.12805361044744       -0.42470904805179
C           -2.84554656591552       -1.12579024761730       -0.42689649784298
C            0.73879966431189       -0.00009874975006       -0.00091658616236
C            1.45445667096925        1.12808496230884       -0.42465534263102
C            2.84560123141251        1.12575719086005       -0.42682650435796
C            3.54622282073024       -0.00026198307228        0.00122591204297
C            2.84483401836314       -1.12629403826264        0.42798669250651
C            1.45370724343752       -1.12846691684318        0.42363634882651
H           -4.63163865142653        0.00010912961902        0.00222542397347
H           -3.38299311420959        2.00411534507326        0.77249601295474
H           -0.91346061287323        2.00288199691038        0.77423064333109
H           -0.91466681299358       -2.00249423204069       -0.77608128219410
H           -3.38421293947103       -2.00367418352393       -0.77052336167385
H            0.91476132501109        2.00256325274591       -0.77600378542485
H            3.38431299078545        2.00361615698667       -0.77044740261348
H            4.63164227877914       -0.00024749826701        0.00227944174565
H            3.38289755821173       -2.00419454185458        0.77251034254419
H            0.91336617059947       -2.00284903141216        0.77421442311535
22
 energy: -463.179588800163 gnorm: 0.000807585067 xtb: 6.7.1 (edcfbbe)
C           -3.54867319124108        0.00024084419849        0.00100468449589
C           -2.84687932069977        1.12783160088690        0.42339146798787
C           -1.45545711330027        1.12993308584719        0.41964411977608
C           -0.73934626746013        0.00013581096775       -0.00070863229800
C           -1.45603717775455       -1.12952457334785       -0.42043467195385
C           -2.84746645404079       -1.12732960617944       -0.42243457135089
C            0.73934850736985       -0.00010865951194       -0.00068929784938
C            1.45607461571828        1.12954204542303       -0.42037497537906
C            2.84750665419366        1.12729872361624       -0.42237356921297
C            3.54867476074919       -0.00029687969352        0.00106146025628
C            2.84684388161201       -1.12787391504688        0.42342072097627
C            1.45542443784437       -1.12993609433378        0.41964689162385
H           -4.63427302494688        0.00020584745102        0.00186220170562
H           -3.38490839688187        2.00706643311555        0.76500377018424
H           -0.91636531752120        2.00637576921325        0.76704139609945
H           -0.91743973809540       -2.00603075443085       -0.76846007498006
H           -3.38599133825408       -2.00653438977748       -0.76333944836613
H            0.91750958443576        2.00607428555071       -0.76838645092061
H            3.38606187853850        2.00649661761347       -0.76324712192892
H            4.63427558139423       -0.00030521604032        0.00190849842784
H            3.38484227889544       -2.00713307836960        0.76501395154046
H            0.91629817763799       -2.00636048990978        0.76704185275335
22
 energy: -463.179630995854 gnorm: 0.001182411912 xtb: 6.7.1 (edcfbbe)
C           -3.55295255732456        0.00043720672491        0.00029084978325
C           -2.85038640142159        1.13383359291152        0.40503480474427
C           -1.45892019398726        1.13582831431246        0.40256670838234
C           -0.74034766254027        0.00006733364153        0.00018271385949
C           -1.45921813436341       -1.13550131858809       -0.40219169123560
C           -2.85068621128886       -1.13313378286196       -0.40455235588587
C            0.74034740862686       -0.00012855126310        0.00020210324331
C            1.45920842185096        1.13546372402183       -0.40213793381984
C            2.85067273160287        1.13313464600093       -0.40446311597637
C            3.55295149120154       -0.00044566438848        0.00036164787290
C            2.85040472897675       -1.13385647735312        0.40506569599542
C            1.45893287801666       -1.13587487818012        0.40258415594669
H           -4.63853808780326        0.00058640640271        0.00038269810783
H           -3.38788528311367        2.01901407958096        0.73208299024754
H           -0.92362155431207        2.01932629039443        0.73752811043097
H           -0.92418044756708       -2.01914241246434       -0.73722199261051
H           -3.38842925066203       -2.01815458135348       -0.73158495436227
H            0.92415899670173        2.01909803257010       -0.73716605752610
H            3.38839809849629        2.01817930760558       -0.73145710723887
H            4.63853757826048       -0.00054156039637        0.00044455057957
H            3.38791969602645       -2.01903199690822        0.73210148109415
H            0.92365311390712       -2.01938945906906        0.73753675747325
22
 energy: -463.179653927073 gnorm: 0.001022808121 xtb: 6.7.1 (edcfbbe)
C           -3.55305425551598        0.00055935799114       -0.00019717744524
C           -2.85034447059612        1.13882875911404        0.39031442642637
C           -1.45902454831096        1.13994613299023        0.39003771837333
C           -0.74011023507537        0.00003574934061        0.00073160062088
C           -1.45917143736487       -1.13966761767864       -0.38889618802846
C           -2.85048477212256       -1.13802790590291       -0.39010922020369
C            0.74011015830312       -0.00013550867733        0.00074833398090
C            1.45913758276358        1.13961033756844       -0.38883922699776
C            2.85044408468977        1.13802590411348       -0.39005545672497
C            3.55305368126422       -0.00051860601471       -0.00007479214890
C            2.85038846687901       -1.13883022748849        0.39036688546742
C            1.45906054486444       -1.14003400553076        0.39000377141111
H           -4.63859777325925        0.00080470002437       -0.00060645956402
H           -3.38752879909375        2.02825691094579        0.70617368893070
H           -0.92511323642689        2.02774952050499        0.71523532555148
H           -0.92537015033141       -2.02766446487158       -0.71377276169301
H           -3.38776473845848       -2.02723300085994       -0.70638723308894
H            0.92530060170831        2.02757824218886       -0.71373198746916
H            3.38768604320340        2.02728342403445       -0.70625117890463
H            4.63859761777597       -0.00069623300484       -0.00052374382726
H            3.38760942760297       -2.02825058341314        0.70619084990336
H            0.92519272154877       -2.02785197800910        0.71523126871962
22
 energy: -463.179664905218 gnorm: 0.000436018988 xtb: 6.7.1 (edcfbbe)
C           -3.55119080806490        0.00056872889441       -0.00032219194880
C           -2.84888795628578        1.14126287557628        0.38277424880104
C           -1.45780925753814        1.14247006675052        0.38235718220400
C           -0.73949893184541        0.00003347396187        0.00090329772962
C           -1.45792951752845       -1.14218229807460       -0.38100188587306
C           -2.84900660635701       -1.14043480840329       -0.38267932042463
C            0.73950003311595       -0.00012572736451        0.00090836466568
C            1.45789621588309        1.14212253489577       -0.38097264849176
C            2.84896892904356        1.14045552066825       -0.38257491154279
C            3.55119254599424       -0.00054534886844       -0.00025409093581
C            2.84892864566592       -1.14127525570620        0.38279356772199
C            1.45784475233026       -1.14253172643315        0.38236851712758
H           -4.63658337661343        0.00083291010339       -0.00093652185655
H           -3.38604836679192        2.03327728332754        0.69051414678162
H           -0.92327585976207        2.03125983075858        0.70311951924142
H           -0.92346026751652       -2.03118434037217       -0.70127224090659
H           -3.38623193124698       -2.03224945718467       -0.69089627812046
H            0.92339292729950        2.03110451514779       -0.70124279680250
H            3.38616030605743        2.03228459473956       -0.69079513064625
H            4.63658493887967       -0.00073405976652       -0.00080770334704
H            3.38612060782791       -2.03326385754816        0.69054825047995
H            0.92334785637730       -2.03137614199425        0.70305618810648
22
 energy: -463.179665589250 gnorm: 0.000293640872 xtb: 6.7.1 (edcfbbe)
C           -3.55021221762367        0.00054540520960       -0.00023227596398
C           -2.84816997010715        1.14175437351210        0.38169397215959
C           -1.45722612884038        1.14253469907909        0.38222797364350
C           -0.73930560904426        0.00004651112846        0.00078116431204
C           -1.45736920983483       -1.14223903311775       -0.38101566193230
C           -2.84831151884050       -1.14096350471665       -0.38150005512956
C            0.73930645403614       -0.00011348652572        0.00078795820546
C            1.45734976060405        1.14219916127077       -0.38097335942763
C            2.84828977402635        1.14095464539485       -0.38144919357719
C            3.55021318466117       -0.00052304586593       -0.00013968312696
C            2.84819371874920       -1.14176388248638        0.38173189760788
C            1.45724785204876       -1.14260028430622        0.38219905621884
H           -4.63555956049329        0.00077065148671       -0.00072562575453
H           -3.38547108875344        2.03350359705513        0.68944906219773
H           -0.92194150274647        2.03126551247083        0.70210909608535
H           -0.92217079689596       -2.03114654930463       -0.70053084598309
H           -3.38570698993520       -2.03251271437921       -0.68968128506728
H            0.92213089460481        2.03109146032435       -0.70049552412625
H            3.38566674858888        2.03253897924396       -0.68957064914855
H            4.63556073559678       -0.00071697767334       -0.00061026036934
H            3.38551474165864       -2.03351065820308        0.68946522170078
H            0.92198547812194       -2.03134547587971        0.70206655033076
22
 energy: -463.179665589250 gnorm: 0.000293640872 xtb: 6.7.1 (edcfbbe)
C           -3.55021221762367        0.00054540520960       -0.00023227596398
C           -2.84816997010715        1.14175437351210        0.38169397215959
C           -1.45722612884038        1.14253469907909        0.38222797364350
C           -0.73930560904426        0.00004651112846        0.00078116431204
C           -1.45736920983483       -1.14223903311775       -0.38101566193230
C           -2.84831151884050       -1.14096350471665       -0.38150005512956
C            0.73930645403614       -0.00011348652572        0.00078795820546
C            1.45734976060405        1.14219916127077       -0.38097335942763
C            2.84828977402635        1.14095464539485       -0.38144919357719
C            3.55021318466117       -0.00052304586593       -0.00013968312696
C            2.84819371874920       -1.14176388248638        0.38173189760788
C            1.45724785204876       -1.14260028430622        0.38219905621884
H           -4.63555956049329        0.00077065148671       -0.00072562575453
H           -3.38547108875344        2.03350359705513        0.68944906219773
H           -0.92194150274647        2.03126551247083        0.70210909608535
H           -0.92217079689596       -2.03114654930463       -0.70053084598309
H           -3.38570698993520       -2.03251271437921       -0.68968128506728
H            0.92213089460481        2.03109146032435       -0.70049552412625
H            3.38566674858888        2.03253897924396       -0.68957064914855
H            4.63556073559678       -0.00071697767334       -0.00061026036934
H            3.38551474165864       -2.03351065820308        0.68946522170078
H            0.92198547812194       -2.03134547587971        0.70206655033076
