
                                 *****************
                                 * O   R   C   A *
                                 *****************

                                            #,                                       
                                            ###                                      
                                            ####                                     
                                            #####                                    
                                            ######                                   
                                           ########,                                 
                                     ,,################,,,,,                         
                               ,,#################################,,                 
                          ,,##########################################,,             
                       ,#########################################, ''#####,          
                    ,#############################################,,   '####,        
                  ,##################################################,,,,####,       
                ,###########''''           ''''###############################       
              ,#####''   ,,,,##########,,,,          '''####'''          '####       
            ,##' ,,,,###########################,,,                        '##       
           ' ,,###''''                  '''############,,,                           
         ,,##''                                '''############,,,,        ,,,,,,###''
      ,#''                                            '''#######################'''  
     '                                                          ''''####''''         
             ,#######,   #######,   ,#######,      ##                                
            ,#'     '#,  ##    ##  ,#'     '#,    #''#        ,####,   ,####,        
            ##       ##  ##   ,#'  ##            #'  '#       #'       #'  '#        
            ##       ##  #######   ##           ,######,      #####,   #    #        
            '#,     ,#'  ##    ##  '#,     ,#' ,#      #,     #,   #   #,  ,#        
             '#######'   ##     ##  '#######'  #'      '#     '####' # '####'        



                #########################################################
                #                        -***-                          #
                #          Department of theory and spectroscopy        #
                #                                                       #
                #                      Frank Neese                      #
                #                                                       #
                #     Directorship, Architecture, Infrastructure        #
                #                    SHARK, DRIVERS                     #
                #        Core code/Algorithms in most modules           #
                #                                                       #
                #        Max Planck Institute fuer Kohlenforschung      #
                #                Kaiser Wilhelm Platz 1                 #
                #                 D-45470 Muelheim/Ruhr                 #
                #                      Germany                          #
                #                                                       #
                #                  All rights reserved                  #
                #                        -***-                          #
                #########################################################


                         Program Version 6.0.0  -   RELEASE  -


 With contributions from (in alphabetic order):
   Daniel Aravena         : Magnetic Suceptibility
   Michael Atanasov       : Ab Initio Ligand Field Theory (pilot matlab implementation)
   Alexander A. Auer      : GIAO ZORA, VPT2 properties, NMR spectrum
   Ute Becker             : All parallelization in ORCA, NUMFREQ, NUMCALC
   Giovanni Bistoni       : ED, misc. LED, open-shell LED, HFLD
   Martin Brehm           : Molecular dynamics
   Dmytro Bykov           : pre 5.0 version of the SCF Hessian
   Marcos Casanova-Páez   : Triplet and SCS-CIS(D). UHF-(DLPNO)-IP/EA/STEOM-CCSD. UHF-CVS-IP/STEOM-CCSD
   Vijay G. Chilkuri      : MRCI spin determinant printing, contributions to CSF-ICE
   Pauline Colinet        : FMM embedding
   Dipayan Datta          : RHF DLPNO-CCSD density
   Achintya Kumar Dutta   : EOM-CC, STEOM-CC
   Nicolas Foglia         : Exact transition moments, OPA infrastructure, MCD improvements
   Dmitry Ganyushin       : Spin-Orbit,Spin-Spin,Magnetic field MRCI
   Miquel Garcia          : C-PCM and meta-GGA Hessian, CCSD/C-PCM, Gaussian charge scheme
   Tiago L. C. Gouveia    : GS-ROHF, GS-ROCIS
   Yang Guo               : DLPNO-NEVPT2, F12-NEVPT2, CIM, IAO-localization
   Andreas Hansen         : Spin unrestricted coupled pair/coupled cluster methods
   Ingolf Harden          : AUTO-CI MPn and infrastructure 
   Benjamin Helmich-Paris : MC-RPA, TRAH-(SCF,CASSCF), AVAS, COSX integrals, SCF dyn. polar.
   Lee Huntington         : MR-EOM, pCC
   Robert Izsak           : Overlap fitted RIJCOSX, COSX-SCS-MP3, EOM
   Riya Kayal             : Wick's Theorem for AUTO-CI, AUTO-CI UHF-CCSDT
   Emily Kempfer          : AUTO-CI, RHF CISDT and CCSDT
   Christian Kollmar      : KDIIS, OOCD, Brueckner-CCSD(T), CCSD density, CASPT2, CASPT2-K, improved NEVPT2
   Axel Koslowski         : Symmetry handling
   Simone Kossmann        : Meta GGA functionals, TD-DFT gradient, OOMP2, (MP2 Hessian; deprecated post 5.0)
   Lucas Lang             : DCDCAS
   Marvin Lechner         : AUTO-CI (C++ implementation), FIC-MRCC
   Spencer Leger          : CASSCF response
   Dagmar Lenk            : GEPOL surface, SMD, ORCA-2-JSON
   Dimitrios Liakos       : Extrapolation schemes; Compound Job, initial MDCI parallelization
   Dimitrios Manganas     : Further ROCIS development; embedding schemes. LFT, Crystal Embedding
   Dimitrios Pantazis     : SARC Basis sets
   Anastasios Papadopoulos: AUTO-CI, single reference methods and gradients
   Taras Petrenko         : pre 6.0 DFT Hessian and TD-DFT gradient, (ASA, deprecated), ECA, 1-Electron XAS/XES, NRVS
   Peter Pinski           : DLPNO-MP2, DLPNO-MP2 Gradient
   Christoph Reimann      : Effective Core Potentials
   Marius Retegan         : Local ZFS, SOC
   Christoph Riplinger    : Optimizer, TS searches, QM/MM, DLPNO-CCSD(T), (RO)-DLPNO pert. Triples
   Michael Roemelt        : Original ROCIS implementation
   Masaaki Saitow         : Open-shell DLPNO-CCSD energy and density
   Barbara Sandhoefer     : DKH picture change effects
   Kantharuban Sivalingam : CASSCF convergence/infrastructure, NEVPT2 and variants, FIC-MRCI
   Bernardo de Souza      : ESD, SOC TD-DFT
   Georgi Stoychev        : AutoAux, RI-MP2 NMR, DLPNO-MP2 response, X2C
   Van Anh Tran           : RI-MP2 g-tensors
   Willem Van den Heuvel  : Paramagnetic NMR
   Zikuan Wang            : NOTCH, Electric field optimization 
   Frank Wennmohs         : Technical directorship and infrastructure
   Hang Xu                : AUTO-CI-Response properties 


 We gratefully acknowledge several colleagues who have allowed us to
 interface, adapt or use parts of their codes:
   Stefan Grimme, W. Hujo, H. Kruse, P. Pracht,  : VdW corrections, initial TS optimization,
                  C. Bannwarth, S. Ehlert,         DFT functionals, gCP, sTDA/sTD-DF
                  L. Wittmann, M. Mueller
   Ed Valeev, F. Pavosevic, A. Kumar             : LibInt (2-el integral package), F12 methods
   Garnet Chan, S. Sharma, J. Yang, R. Olivares  : DMRG
   Ulf Ekstrom                                   : XCFun DFT Library
   Mihaly Kallay                                 : mrcc  (arbitrary order and MRCC methods)
   Frank Weinhold                                : gennbo (NPA and NBO analysis)
   Simon Mueller                                 : openCOSMO-RS
   Christopher J. Cramer and Donald G. Truhlar   : smd solvation model
   Lars Goerigk                                  : TD-DFT with DH, B97 family of functionals
   V. Asgeirsson, H. Jonsson                     : NEB implementation
   FAccTs GmbH                                   : IRC, NEB, NEB-TS, DLPNO-Multilevel, CI-OPT
                                                   MM, QMMM, 2- and 3-layer-ONIOM, Crystal-QMMM,
                                                   LR-CPCM, SF, NACMEs, symmetry and pop. for TD-DFT,
                                                   nearIR, NL-DFT gradient (VV10), updates on ESD,
                                                   ML-optimized integration grids, MBIS, APM,
                                                   GOAT, DOCKER, SOLVATOR, interface openCOSMO-RS
   S Lehtola, MJT Oliveira, MAL Marques          : LibXC Library
   Liviu Ungur et al                             : ANISO software


 Your calculation uses the libint2 library for the computation of 2-el integrals
 For citations please refer to: http://libint.valeyev.net

 Your ORCA version has been built with support for libXC version: 6.2.2
 For citations please refer to: https://libxc.gitlab.io

 This ORCA versions uses:
   CBLAS   interface :  Fast vector & matrix operations
   LAPACKE interface :  Fast linear algebra routines
   SCALAPACK package :  Parallel linear algebra routines
   Shared memory     :  Shared parallel matrices
   BLAS/LAPACK       :  OpenBLAS 0.3.27  USE64BITINT DYNAMIC_ARCH NO_AFFINITY SkylakeX SINGLE_THREADED
        Core in use  :  SkylakeX
   Copyright (c) 2011-2014, The OpenBLAS Project


Your calculation utilizes the geometrical counterpoise correction gCP
Please cite in your paper:
H.Kruse, S. Grimme J.Chem.Phys., 136, (2012), 154101 
   

Your calculation utilizes the atom-pairwise dispersion correction
based on EEQ partial charges (D4)


================================================================================

----- Orbital basis set information -----
Your calculation utilizes the basis: def2-mTZVPP
   Stefan Grimme, Andreas Hansen, Sebastian Ehlert, and Jan-Michael Mewes 
   J. Chem. Phys. 154, 064103 (2021). DOI: 10.1063/5.0040021

----- AuxJ basis set information -----
Your calculation utilizes the auxiliary basis: def2/J
   F. Weigend, Phys. Chem. Chem. Phys. 8, 1057 (2006).

================================================================================
                                        WARNINGS
                       Please study these warnings very carefully!
================================================================================

Using LibXC functional ID 497 : Re-regularized SCAN exchange by Furness et al
[ 1]  J. W. Furness, A. D. Kaplan, J. Ning, J. P. Perdew, and J. Sun.,  J. Phys. Chem. Lett. 11, 8208-8215 (2020)
[ 2]  J. W. Furness, A. D. Kaplan, J. Ning, J. P. Perdew, and J. Sun.,  J. Phys. Chem. Lett. 11, 9248-9248 (2020)
Using LibXC functional ID 498 : Re-regularized SCAN correlation by Furness et al
[ 1]  J. W. Furness, A. D. Kaplan, J. Ning, J. P. Perdew, and J. Sun.,  J. Phys. Chem. Lett. 11, 8208-8215 (2020)
[ 2]  J. W. Furness, A. D. Kaplan, J. Ning, J. P. Perdew, and J. Sun.,  J. Phys. Chem. Lett. 11, 9248-9248 (2020)
Using LibXC functional ID 497 : Re-regularized SCAN exchange by Furness et al
[ 1]  J. W. Furness, A. D. Kaplan, J. Ning, J. P. Perdew, and J. Sun.,  J. Phys. Chem. Lett. 11, 8208-8215 (2020)
[ 2]  J. W. Furness, A. D. Kaplan, J. Ning, J. P. Perdew, and J. Sun.,  J. Phys. Chem. Lett. 11, 9248-9248 (2020)
Using LibXC functional ID 498 : Re-regularized SCAN correlation by Furness et al
[ 1]  J. W. Furness, A. D. Kaplan, J. Ning, J. P. Perdew, and J. Sun.,  J. Phys. Chem. Lett. 11, 8208-8215 (2020)
[ 2]  J. W. Furness, A. D. Kaplan, J. Ning, J. P. Perdew, and J. Sun.,  J. Phys. Chem. Lett. 11, 9248-9248 (2020)

================================================================================
                                       INPUT FILE
================================================================================
NAME = sp_gas.inp
|  1> ! r2scan-3c def2/J RI DEFGRID2 scfconv6 printgap
|  2> %output
|  3>     printlevel normal
|  4> end
|  5> * xyz 0 1
|  6> C -5.0637176541 -0.6837068535 0.0349551065
|  7> C -4.3080163872 -1.3777060028 -0.895827439
|  8> C -2.9296813722 -1.2639340855 -0.8951215494
|  9> C -2.2938196202 -0.4405655642 0.030434055
| 10> C -3.0579639864 0.2498210454 0.9666496951
| 11> C -4.4354674613 0.1243082166 0.9683182704
| 12> C -0.8234966042 -0.3347369377 0.0233479341
| 13> C -0.0548864422 -1.4942642967 0.0653590816
| 14> C 1.3270651488 -1.4345424391 0.0682104373
| 15> C 1.9789383211 -0.2047980153 0.0234337243
| 16> C 1.2222708104 0.9626661754 -0.0349459262
| 17> C -0.1686510215 0.8975209168 -0.035437136
| 18> Cl -1.0607629114 2.3670543411 -0.1670059625
| 19> Cl 2.0199350761 2.4877729661 -0.1135307252
| 20> Cl 3.6994264234 -0.1195608853 0.0326230674
| 21> Cl 2.2539026707 -2.8848178734 0.1310807858
| 22> H -6.1390315445 -0.7742515662 0.0351612784
| 23> H -4.7933585399 -2.0099826845 -1.6232235492
| 24> H -2.3390281696 -1.7952283866 -1.6251676029
| 25> H -2.5701723451 0.8672525902 1.7046670124
| 26> H -5.0196352073 0.6592526653 1.7013156785
| 27> H -0.5447769832 -2.4532426222 0.1108946665
| 28> *
| 29> 
| 30>                          ****END OF INPUT****
================================================================================

                       ****************************
                       * Single Point Calculation *
                       ****************************

---------------------------------
CARTESIAN COORDINATES (ANGSTROEM)
---------------------------------
  C     -5.063718   -0.683707    0.034955
  C     -4.308016   -1.377706   -0.895827
  C     -2.929681   -1.263934   -0.895122
  C     -2.293820   -0.440566    0.030434
  C     -3.057964    0.249821    0.966650
  C     -4.435467    0.124308    0.968318
  C     -0.823497   -0.334737    0.023348
  C     -0.054886   -1.494264    0.065359
  C      1.327065   -1.434542    0.068210
  C      1.978938   -0.204798    0.023434
  C      1.222271    0.962666   -0.034946
  C     -0.168651    0.897521   -0.035437
  Cl    -1.060763    2.367054   -0.167006
  Cl     2.019935    2.487773   -0.113531
  Cl     3.699426   -0.119561    0.032623
  Cl     2.253903   -2.884818    0.131081
  H     -6.139032   -0.774252    0.035161
  H     -4.793359   -2.009983   -1.623224
  H     -2.339028   -1.795228   -1.625168
  H     -2.570172    0.867253    1.704667
  H     -5.019635    0.659253    1.701316
  H     -0.544777   -2.453243    0.110895

----------------------------
CARTESIAN COORDINATES (A.U.)
----------------------------
  NO LB      ZA    FRAG     MASS         X           Y           Z
   0 C     6.0000    0    12.011   -9.569040   -1.292019    0.066056
   1 C     6.0000    0    12.011   -8.140971   -2.603487   -1.692869
   2 C     6.0000    0    12.011   -5.536295   -2.388489   -1.691535
   3 C     6.0000    0    12.011   -4.334691   -0.832548    0.057512
   4 C     6.0000    0    12.011   -5.778714    0.472093    1.826703
   5 C     6.0000    0    12.011   -8.381819    0.234908    1.829856
   6 C     6.0000    0    12.011   -1.556183   -0.632561    0.044121
   7 C     6.0000    0    12.011   -0.103720   -2.823750    0.123511
   8 C     6.0000    0    12.011    2.507790   -2.710892    0.128899
   9 C     6.0000    0    12.011    3.739651   -0.387012    0.044283
  10 C     6.0000    0    12.011    2.309757    1.819175   -0.066038
  11 C     6.0000    0    12.011   -0.318704    1.696069   -0.066966
  12 Cl   17.0000    0    35.453   -2.004551    4.473084   -0.315596
  13 Cl   17.0000    0    35.453    3.817124    4.701210   -0.214542
  14 Cl   17.0000    0    35.453    6.990903   -0.225937    0.061649
  15 Cl   17.0000    0    35.453    4.259259   -5.451516    0.247707
  16 H     1.0000    0     1.008  -11.601088   -1.463123    0.066445
  17 H     1.0000    0     1.008   -9.058135   -3.798317   -3.067448
  18 H     1.0000    0     1.008   -4.420123   -3.392490   -3.071122
  19 H     1.0000    0     1.008   -4.856922    1.638870    3.221354
  20 H     1.0000    0     1.008   -9.485736    1.245807    3.215021
  21 H     1.0000    0     1.008   -1.029479   -4.635957    0.209561

--------------------------------
INTERNAL COORDINATES (ANGSTROEM)
--------------------------------
 C      0   0   0     0.000000000000     0.00000000     0.00000000
 C      1   0   0     1.385306959136     0.00000000     0.00000000
 C      2   1   0     1.383022762293   120.13958333     0.00000000
 C      3   2   1     1.392447150294   120.27063780   359.28658415
 C      4   3   2     1.391779439379   119.32234341     0.97393725
 C      5   4   3     1.383210785708   120.17057375   359.53591484
 C      4   3   2     1.474143711677   119.65141723   179.69120288
 C      7   4   3     1.391772328333   119.39752005   307.72042940
 C      8   7   4     1.383244385628   121.05283710   180.38729947
 C      9   8   7     1.392556977168   120.38021684   359.74274156
 C     10   9   8     1.392453425400   119.16788142   359.49376181
 C     11  10   9     1.392446655517   120.23848251     0.60842097
 Cl    12  11  10     1.724152680403   118.48998294   182.20009571
 Cl    11  10   9     1.722902949805   119.50477404   180.87532595
 Cl    10   9   8     1.722622745268   120.73423955   179.76578139
 Cl     9   8   7     1.722288973447   120.08994666   179.59856729
 H      1   2   3     1.079119247531   120.11133718   180.11410089
 H      2   1   3     1.079090315286   120.07250905   179.92573773
 H      3   2   1     1.078940258010   120.31337381   180.62919050
 H      5   4   3     1.078810436764   119.72425966   178.24792385
 H      6   5   4     1.079213935669   119.66301387   179.67442372
 H      8   7   4     1.077824503540   119.44129596   359.48671588

---------------------------
INTERNAL COORDINATES (A.U.)
---------------------------
 C      0   0   0     0.000000000000     0.00000000     0.00000000
 C      1   0   0     2.617850764182     0.00000000     0.00000000
 C      2   1   0     2.613534257714   120.13958333     0.00000000
 C      3   2   1     2.631343770014   120.27063780   359.28658415
 C      4   3   2     2.630081979249   119.32234341     0.97393725
 C      5   4   3     2.613889570474   120.17057375   359.53591484
 C      4   3   2     2.785727897111   119.65141723   179.69120288
 C      7   4   3     2.630068541319   119.39752005   307.72042940
 C      8   7   4     2.613953065121   121.05283710   180.38729947
 C      9   8   7     2.631551312728   120.38021684   359.74274156
 C     10   9   8     2.631355628247   119.16788142   359.49376181
 C     11  10   9     2.631342835022   120.23848251     0.60842097
 Cl    12  11  10     3.258176379029   118.48998294   182.20009571
 Cl    11  10   9     3.255814730457   119.50477404   180.87532595
 Cl    10   9   8     3.255285220619   120.73423955   179.76578139
 Cl     9   8   7     3.254654483287   120.08994666   179.59856729
 H      1   2   3     2.039239843677   120.11133718   180.11410089
 H      2   1   3     2.039185169656   120.07250905   179.92573773
 H      3   2   1     2.038901602501   120.31337381   180.62919050
 H      5   4   3     2.038656275900   119.72425966   178.24792385
 H      6   5   4     2.039418778326   119.66301387   179.67442372
 H      8   7   4     2.036793132121   119.44129596   359.48671588

---------------------
BASIS SET INFORMATION
---------------------
There are 3 groups of distinct atoms

 Group   1 Type C   : 11s6p1d contracted to 5s3p1d pattern {62111/411/1}
 Group   2 Type Cl  : 14s9p2d contracted to 5s4p2d pattern {73211/6111/11}
 Group   3 Type H   : 4s1p contracted to 2s1p pattern {31/1}

Atom   0C    basis set group =>   1
Atom   1C    basis set group =>   1
Atom   2C    basis set group =>   1
Atom   3C    basis set group =>   1
Atom   4C    basis set group =>   1
Atom   5C    basis set group =>   1
Atom   6C    basis set group =>   1
Atom   7C    basis set group =>   1
Atom   8C    basis set group =>   1
Atom   9C    basis set group =>   1
Atom  10C    basis set group =>   1
Atom  11C    basis set group =>   1
Atom  12Cl   basis set group =>   2
Atom  13Cl   basis set group =>   2
Atom  14Cl   basis set group =>   2
Atom  15Cl   basis set group =>   2
Atom  16H    basis set group =>   3
Atom  17H    basis set group =>   3
Atom  18H    basis set group =>   3
Atom  19H    basis set group =>   3
Atom  20H    basis set group =>   3
Atom  21H    basis set group =>   3
---------------------------------
AUXILIARY/J BASIS SET INFORMATION
---------------------------------
There are 3 groups of distinct atoms

 Group   1 Type C   : 12s5p4d2f1g contracted to 6s4p3d1f1g pattern {711111/2111/211/2/1}
 Group   2 Type Cl  : 14s5p5d2f1g contracted to 8s4p3d1f1g pattern {71111111/2111/311/2/1}
 Group   3 Type H   : 5s2p1d contracted to 3s1p1d pattern {311/2/1}

Atom   0C    basis set group =>   1
Atom   1C    basis set group =>   1
Atom   2C    basis set group =>   1
Atom   3C    basis set group =>   1
Atom   4C    basis set group =>   1
Atom   5C    basis set group =>   1
Atom   6C    basis set group =>   1
Atom   7C    basis set group =>   1
Atom   8C    basis set group =>   1
Atom   9C    basis set group =>   1
Atom  10C    basis set group =>   1
Atom  11C    basis set group =>   1
Atom  12Cl   basis set group =>   2
Atom  13Cl   basis set group =>   2
Atom  14Cl   basis set group =>   2
Atom  15Cl   basis set group =>   2
Atom  16H    basis set group =>   3
Atom  17H    basis set group =>   3
Atom  18H    basis set group =>   3
Atom  19H    basis set group =>   3
Atom  20H    basis set group =>   3
Atom  21H    basis set group =>   3

Checking for AutoStart:
The File: sp_gas.gbw exists
Trying to determine its content:
     ... Fine, the file contains calculation information
     ... Fine, the calculation information was read
     ... Fine, the file contains a basis set
     ... Fine, the basis set was read
     ... Fine, the file contains a geometry
     ... Fine, the geometry was read
     ... Fine, the file contains a set of orbitals
     ... Fine, the orbitals can be read
     => possible old guess file was deleted
     => GBW file was renamed to GES file
     => GES file is set as startup file
     => Guess is set to MORead
     ... now leaving AutoStart

------------------------------------------------------------------------------
                             ORCA STARTUP CALCULATIONS
                           -- RI-GTO INTEGRALS CHOSEN --
------------------------------------------------------------------------------
------------------------------------------------------------------------------
                   ___                                                        
                  /   \      - P O W E R E D   B Y -                         
                 /     \                                                     
                 |  |  |   _    _      __       _____    __    __             
                 |  |  |  | |  | |    /  \     |  _  \  |  |  /  |          
                  \  \/   | |  | |   /    \    | | | |  |  | /  /          
                 / \  \   | |__| |  /  /\  \   | |_| |  |  |/  /          
                |  |  |   |  __  | /  /__\  \  |    /   |      \           
                |  |  |   | |  | | |   __   |  |    \   |  |\   \          
                \     /   | |  | | |  |  |  |  | |\  \  |  | \   \       
                 \___/    |_|  |_| |__|  |__|  |_| \__\ |__|  \__/        
                                                                              
                      - O R C A' S   B I G   F R I E N D -                    
                                      &                                       
                       - I N T E G R A L  F E E D E R -                       
                                                                              
 v1 FN, 2020, v2 2021, v3 2022-2024                                           
------------------------------------------------------------------------------


----------------------
SHARK INTEGRAL PACKAGE
----------------------

Number of atoms                             ...     22
Number of basis functions                   ...    366
Number of shells                            ...    170
Maximum angular momentum                    ...      2
Integral batch strategy                     ... SHARK/LIBINT Hybrid
RI-J (if used) integral strategy            ... SPLIT-RIJ (Revised 2003 algorithm where possible)
Printlevel                                  ...      1
Contraction scheme used                     ... SEGMENTED contraction
Prescreening option                         ... SCHWARTZ
   Thresh                                   ... 1.000e-10
   Tcut                                     ... 1.000e-11
   Tpresel                                  ... 1.000e-11 
Coulomb Range Separation                    ... NOT USED
Exchange Range Separation                   ... NOT USED
Multipole approximations                    ... NOT USED
Finite Nucleus Model                        ... NOT USED
CABS basis                                  ... NOT available
Auxiliary Coulomb fitting basis             ... AVAILABLE
   # of basis functions in Aux-J            ...    858
   # of shells in Aux-J                     ...    278
   Maximum angular momentum in Aux-J        ...      4
Auxiliary J/K fitting basis                 ... NOT available
Auxiliary Correlation fitting basis         ... NOT available
Auxiliary 'external' fitting basis          ... NOT available

Checking pre-screening integrals            ... done (  0.0 sec) Dimension = 170
Check shell pair data                       ... done (  0.0 sec)
Shell pair information
Shell pair cut-off parameter TPreSel        ...   1.0e-11
Total number of shell pairs                 ...     14535
Shell pairs after pre-screening             ...     10938
Total number of primitive shell pairs       ...     60473
Primitive shell pairs kept                  ...     28342
          la=0 lb=0:   2989 shell pairs
          la=1 lb=0:   4133 shell pairs
          la=1 lb=1:   1430 shell pairs
          la=2 lb=0:   1310 shell pairs
          la=2 lb=1:    917 shell pairs
          la=2 lb=2:    159 shell pairs

Calculating one electron integrals          ... done (  0.1 sec)
Calculating RI/J V-Matrix + Cholesky decomp.... done (  0.1 sec)
Calculating Nuclear repulsion               ... done (  0.0 sec) ENN=   1486.557343256849 Eh

Diagonalization of the overlap matrix:
Smallest eigenvalue                        ... 1.093e-05
Time for diagonalization                   ...    0.014 sec
Threshold for overlap eigenvalues          ... 1.000e-07
Number of eigenvalues below threshold      ... 0
Time for construction of square roots      ...    0.021 sec
Total time needed                          ...    0.043 sec

-------------------
DFT GRID GENERATION
-------------------

General Integration Accuracy     IntAcc      ... 4.388
Radial Grid Type                 RadialGrid  ... OptM3 with GC (2021)
Angular Grid (max. ang.)         AngularGrid ... 4 (Lebedev-302)
Angular grid pruning method      GridPruning ... 4 (adaptive)
Weight generation scheme         WeightScheme... mBecke (2022)
Basis function cutoff            BFCut       ... 1.0000e-10
Integration weight cutoff        WCut        ... 1.0000e-14
Partially contracted basis set               ... off
Rotationally invariant grid construction     ... off
Angular grids for H and He will be reduced by one unit

Total number of grid points                  ...   120124
Total number of batches                      ...     1889
Average number of points per batch           ...       63
Average number of grid points per atom       ...     5460
Initializing property integral containers    ... done (  0.0 sec)

SHARK setup successfully completed in   1.8 seconds

Maximum memory used throughout the entire STARTUP-calculation: 60.7 MB
-------------------------------------------------------------------------------
                                 ORCA GUESS
                   Start orbitals & Density for SCF / CASSCF
-------------------------------------------------------------------------------

------------
SCF SETTINGS
------------
Hamiltonian:
 Density Functional     Method          .... DFT(GTOs)
  Functional kind                       .... Exchange
  Functional name                       .... Re-regularized SCAN exchange by Furness et al
  Functional family                     .... MGGA
  Functional refs                              
    [ 0] J. W. Furness, A. D. Kaplan, J. Ning, J. P. Perdew, and J. Sun.,  J. Phys. Chem. Lett. 11, 8208-8215 (2020), doi: 10.1021/acs.jpclett.0c02405
    [ 1] J. W. Furness, A. D. Kaplan, J. Ning, J. P. Perdew, and J. Sun.,  J. Phys. Chem. Lett. 11, 9248-9248 (2020), doi: 10.1021/acs.jpclett.0c03077
  Functional external parameters        .... 6
    Parameter  0 _c1        =  6.670000e-01 : c1 parameter        
    Parameter  1 _c2        =  8.000000e-01 : c2 parameter        
    Parameter  2 _d         =  1.240000e+00 : d parameter         
    Parameter  3 _k1        =  6.500000e-02 : k1 parameter        
    Parameter  4 _eta       =  1.000000e-03 : eta parameter       
    Parameter  5 _dp2       =  3.610000e-01 : dp2 parameter       
  Functional kind                       .... Correlation
  Functional name                       .... Re-regularized SCAN correlation by Furness et al
  Functional family                     .... MGGA
  Functional refs                              
    [ 0] J. W. Furness, A. D. Kaplan, J. Ning, J. P. Perdew, and J. Sun.,  J. Phys. Chem. Lett. 11, 8208-8215 (2020), doi: 10.1021/acs.jpclett.0c02405
    [ 1] J. W. Furness, A. D. Kaplan, J. Ning, J. P. Perdew, and J. Sun.,  J. Phys. Chem. Lett. 11, 9248-9248 (2020), doi: 10.1021/acs.jpclett.0c03077
  Functional external parameters        .... 1
    Parameter  0 _eta       =  1.000000e-03 : Regularization parameter
 Gradients option       PostSCFGGA      .... off
 RI-approximation to the Coulomb term is turned on
   Number of AuxJ basis functions       .... 858


General Settings:
 Integral files         IntName         .... sp_gas
 Hartree-Fock type      HFTyp           .... RHF
 Total Charge           Charge          ....    0
 Multiplicity           Mult            ....    1
 Number of Electrons    NEL             ....  146
 Basis Dimension        Dim             ....  366
 Nuclear Repulsion      ENuc            ....   1486.5573432568 Eh

Convergence Acceleration:
 AO-DIIS                CNVDIIS         .... on
   Start iteration      DIISMaxIt       ....    12
   Startup error        DIISStart       ....  0.200000
   # of expansion vecs  DIISMaxEq       ....     5
   Bias factor          DIISBfac        ....   1.050
   Max. coefficient     DIISMaxC        ....  10.000
 MO-DIIS                CNVKDIIS        .... off
 Trust-Rad. Augm. Hess. CNVTRAH         .... auto
   Auto Start mean grad. ratio tolernc. ....  1.125000
   Auto Start start iteration           ....     1
   Auto Start num. interpolation iter.  ....    10
   Max. Number of Micro iterations      ....    24
   Max. Number of Macro iterations      .... Maxiter - #DIIS iter
   Number of Davidson start vectors     ....     2
   Converg. threshold    (grad. norm)   ....   3.330e-04
   Grad. Scal. Fac. for Micro threshold ....   0.100
   Minimum threshold for Micro iter.    ....   1.000e-02
   NR start threshold (gradient norm)   ....   1.000e-04
   Initial trust radius                 ....   0.400
   Minimum AH scaling param. (alpha)    ....   1.000
   Maximum AH scaling param. (alpha)    .... 1000.000
   Quad. conv. algorithm                .... NR
   White noise on init. David. guess    .... on
   Maximum white noise                  ....   0.010
   Pseudo random numbers                .... off
   Inactive MOs                         .... canonical
   Orbital update algorithm             .... Taylor
   Preconditioner                       .... Diag
   Full preconditioner red. dimension   ....   250
   COSX micro iterations for RIJONX calc.... off
 SOSCF                  CNVSOSCF        .... on
   Start iteration      SOSCFMaxIt      ....   150
   Startup grad/error   SOSCFStart      ....  0.003300
   Hessian update       SOSCFHessUp     .... L-BFGS
 Level Shifting         CNVShift        .... on
   Level shift para.    LevelShift      ....    0.2500
   Turn off err/grad.   ShiftErr        ....    0.0010
 Zerner damping         CNVZerner       .... off
 Static damping         CNVDamp         .... on
   Fraction old density DampFac         ....    0.7000
   Max. Damping (<1)    DampMax         ....    0.9800
   Min. Damping (>=0)   DampMin         ....    0.0000
   Turn off err/grad.   DampErr         ....    0.1000

SCF Procedure:
 Maximum # iterations   MaxIter         ....   125
 SCF integral mode      SCFMode         .... Direct
   Integral package                     .... SHARK and LIBINT hybrid scheme
 Reset frequency        DirectResetFreq ....    20
 Integral Threshold     Thresh          ....  1.000e-10 Eh
 Primitive CutOff       TCut            ....  1.000e-11 Eh

Convergence Tolerance:
 Convergence Check Mode ConvCheckMode   .... Total+1el-Energy
 Convergence forced     ConvForced      .... 0
 Energy Change          TolE            ....  1.000e-06 Eh
 1-El. energy change                    ....  1.000e-03 Eh
 Orbital Gradient       TolG            ....  3.330e-04
 Orbital Rotation angle TolX            ....  3.330e-04
 DIIS Error             TolErr          ....  1.000e-06

---------------------
INITIAL GUESS: MOREAD
---------------------
Guess MOs are being read from file: sp_gas.ges
Input Geometry matches current geometry (good)
Atom 0: N(Shells)= 9 and 6 - projection required
Input basis set needs projection
NBasis(read)= 252
NBasis(calc)= 366
Basis set overlap was calculated
Using GuessMode=FMatrix for the initial guess
C*T matrix was formed
Effective Fockian was calculated
Effective Fockian was diagonalized
Initial density was built
                      ------------------
                      INITIAL GUESS DONE (   0.1 sec)
                      ------------------
             **** ENERGY FILE WAS UPDATED (sp_gas.en.tmp) ****
Finished Guess after   0.4 sec
Maximum memory used throughout the entire GUESS-calculation: 32.3 MB

-------------------------------------------------------------------------------------------
                                      ORCA LEAN-SCF
                              memory conserving SCF solver
-------------------------------------------------------------------------------------------

----------------------------------------D-I-I-S--------------------------------------------
Iteration    Energy (Eh)           Delta-E    RMSDP     MaxDP     DIISErr   Damp  Time(sec)
-------------------------------------------------------------------------------------------
               ***  Starting incremental Fock matrix formation  ***
    1    -2301.1897276810545918     0.00e+00  1.77e-02  1.16e+00  5.36e-01  0.700   5.8
    2    -2301.2762740032853799    -8.65e-02  1.27e-02  7.99e-01  3.75e-01  0.700   5.0
    3    -2301.3373243254973204    -6.11e-02  8.91e-03  5.55e-01  2.63e-01  0.700   5.0
                               ***Turning on AO-DIIS***
    4    -2301.3801468101655701    -4.28e-02  6.26e-03  3.88e-01  1.84e-01  0.700   4.6
    5    -2301.4101607179877647    -3.00e-02  4.39e-03  2.72e-01  1.29e-01  0.700   4.5
    6    -2301.4311983090724425    -2.10e-02  3.07e-03  1.90e-01  9.02e-02  0.700   4.5
    7    -2301.4459387813262765    -1.47e-02  7.17e-03  4.43e-01  6.31e-02  0.000   4.4
                              *** Initializing SOSCF ***
---------------------------------------S-O-S-C-F--------------------------------------
Iteration    Energy (Eh)           Delta-E    RMSDP     MaxDP     MaxGrad    Time(sec)
--------------------------------------------------------------------------------------
    8    -2301.4803730610574348    -3.44e-02  3.33e-05  1.89e-03  2.16e-04     4.7
               *** Restarting incremental Fock matrix formation ***
    9    -2301.4803734487318252    -3.88e-07  5.28e-05  3.44e-03  1.19e-04     5.7
   10    -2301.4803715137932159     1.93e-06  2.41e-05  1.66e-03  2.70e-04     3.9
   11    -2301.4803738563059596    -2.34e-06  1.51e-05  8.14e-04  4.08e-05     3.9
                  *** Gradient check signals convergence ***

               *****************************************************
               *                     SUCCESS                       *
               *           SCF CONVERGED AFTER  11 CYCLES          *
               *****************************************************

             **** ENERGY FILE WAS UPDATED (sp_gas.en.tmp) ****

----------------
TOTAL SCF ENERGY
----------------

Total Energy       :      -2301.48037385630596 Eh          -62626.46484 eV

Components:
Nuclear Repulsion  :       1486.55734325684898 Eh           40451.28181 eV
Electronic Energy  :      -3788.03771711315494 Eh         -103077.74665 eV
One Electron Energy:      -6121.93326243390675 Eh         -166586.27315 eV
Two Electron Energy:       2333.89554532075181 Eh           63508.52650 eV

Virial components:
Potential Energy   :      -4596.99643501856735 Eh         -125090.63248 eV
Kinetic Energy     :       2295.51606116226185 Eh           62464.16764 eV
Virial Ratio       :          2.00259824481081

DFT components:
N(Alpha)           :       73.000006572033 electrons
N(Beta)            :       73.000006572033 electrons
N(Total)           :      146.000013144066 electrons
E(X)               :     -174.909417914109 Eh       
E(C)               :       -5.231066795038 Eh       
E(XC)              :     -180.140484709148 Eh       

---------------
SCF CONVERGENCE
---------------

  Last Energy change         ...    2.3425e-06  Tolerance :   1.0000e-06
  Last MAX-Density change    ...    8.1399e-04  Tolerance :   1.0000e-05
  Last RMS-Density change    ...    1.5141e-05  Tolerance :   1.0000e-06
  Last DIIS Error            ...    2.1584e-04  Tolerance :   1.0000e-06
  Last Orbital Gradient      ...    4.0808e-05  Tolerance :   3.3300e-04
  Last Orbital Rotation      ...    1.7636e-04  Tolerance :   3.3300e-04


----------------
ORBITAL ENERGIES
----------------

  NO   OCC          E(Eh)            E(eV) 
   0   2.0000    -101.239018     -2754.8537 
   1   2.0000    -101.238625     -2754.8431 
   2   2.0000    -101.237947     -2754.8246 
   3   2.0000    -101.235694     -2754.7633 
   4   2.0000     -10.133520      -275.7471 
   5   2.0000     -10.132052      -275.7072 
   6   2.0000     -10.128095      -275.5995 
   7   2.0000     -10.127816      -275.5919 
   8   2.0000     -10.084999      -274.4268 
   9   2.0000     -10.072482      -274.0862 
  10   2.0000     -10.064876      -273.8792 
  11   2.0000     -10.051034      -273.5025 
  12   2.0000     -10.049890      -273.4714 
  13   2.0000     -10.048753      -273.4405 
  14   2.0000     -10.048300      -273.4282 
  15   2.0000     -10.047878      -273.4167 
  16   2.0000      -9.394648      -255.6414 
  17   2.0000      -9.394324      -255.6325 
  18   2.0000      -9.393769      -255.6175 
  19   2.0000      -9.391656      -255.5599 
  20   2.0000      -7.141366      -194.3265 
  21   2.0000      -7.141016      -194.3169 
  22   2.0000      -7.140271      -194.2967 
  23   2.0000      -7.138214      -194.2407 
  24   2.0000      -7.130958      -194.0432 
  25   2.0000      -7.130666      -194.0353 
  26   2.0000      -7.130030      -194.0180 
  27   2.0000      -7.129907      -194.0146 
  28   2.0000      -7.129562      -194.0052 
  29   2.0000      -7.129272      -193.9974 
  30   2.0000      -7.128008      -193.9630 
  31   2.0000      -7.126960      -193.9344 
  32   2.0000      -0.922301       -25.0971 
  33   2.0000      -0.876847       -23.8602 
  34   2.0000      -0.859649       -23.3922 
  35   2.0000      -0.840328       -22.8665 
  36   2.0000      -0.822328       -22.3767 
  37   2.0000      -0.806743       -21.9526 
  38   2.0000      -0.755008       -20.5448 
  39   2.0000      -0.731868       -19.9151 
  40   2.0000      -0.712840       -19.3974 
  41   2.0000      -0.698897       -19.0180 
  42   2.0000      -0.618818       -16.8389 
  43   2.0000      -0.601895       -16.3784 
  44   2.0000      -0.586231       -15.9522 
  45   2.0000      -0.567070       -15.4308 
  46   2.0000      -0.514938       -14.0122 
  47   2.0000      -0.504572       -13.7301 
  48   2.0000      -0.489024       -13.3070 
  49   2.0000      -0.460054       -12.5187 
  50   2.0000      -0.442419       -12.0388 
  51   2.0000      -0.441263       -12.0074 
  52   2.0000      -0.435883       -11.8610 
  53   2.0000      -0.424319       -11.5463 
  54   2.0000      -0.420334       -11.4379 
  55   2.0000      -0.404893       -11.0177 
  56   2.0000      -0.390877       -10.6363 
  57   2.0000      -0.387365       -10.5407 
  58   2.0000      -0.370685       -10.0868 
  59   2.0000      -0.361016        -9.8237 
  60   2.0000      -0.345954        -9.4139 
  61   2.0000      -0.336405        -9.1540 
  62   2.0000      -0.329034        -8.9535 
  63   2.0000      -0.320435        -8.7195 
  64   2.0000      -0.318433        -8.6650 
  65   2.0000      -0.311105        -8.4656 
  66   2.0000      -0.302203        -8.2234 
  67   2.0000      -0.297597        -8.0980 
  68   2.0000      -0.278891        -7.5890 
  69   2.0000      -0.259787        -7.0692 
  70   2.0000      -0.250396        -6.8136 
  71   2.0000      -0.241152        -6.5621 
  72   2.0000      -0.229510        -6.2453 
  73   0.0000      -0.078757        -2.1431 
  74   0.0000      -0.069221        -1.8836 
  75   0.0000      -0.056020        -1.5244 
  76   0.0000      -0.044328        -1.2062 
  77   0.0000      -0.034428        -0.9368 
  78   0.0000       0.001682         0.0458 
  79   0.0000       0.036835         1.0023 
  80   0.0000       0.039493         1.0746 
  81   0.0000       0.064509         1.7554 
  82   0.0000       0.073496         1.9999 
  83   0.0000       0.093027         2.5314 
*Only the first 10 virtual orbitals were printed.

                    ********************************
                    * MULLIKEN POPULATION ANALYSIS *
                    ********************************

-----------------------
MULLIKEN ATOMIC CHARGES
-----------------------
   0 C :   -0.128827
   1 C :   -0.164608
   2 C :   -0.193644
   3 C :    0.122415
   4 C :   -0.172857
   5 C :   -0.165868
   6 C :    0.187547
   7 C :   -0.335852
   8 C :    0.126058
   9 C :    0.077240
  10 C :    0.038129
  11 C :   -0.016825
  12 Cl:   -0.070567
  13 Cl:   -0.069933
  14 Cl:   -0.069551
  15 Cl:   -0.097223
  16 H :    0.149015
  17 H :    0.147936
  18 H :    0.155491
  19 H :    0.159119
  20 H :    0.147931
  21 H :    0.174875
Sum of atomic charges:   -0.0000000

--------------------------------
MULLIKEN REDUCED ORBITAL CHARGES
--------------------------------
  0 C s       :     3.178856  s :     3.178856
      pz      :     0.931559  p :     2.912393
      px      :     1.028380
      py      :     0.952455
      dz2     :     0.008408  d :     0.037577
      dxz     :     0.008012
      dyz     :     0.006747
      dx2y2   :     0.008284
      dxy     :     0.006126

  1 C s       :     3.200372  s :     3.200372
      pz      :     0.992226  p :     2.926650
      px      :     0.939103
      py      :     0.995321
      dz2     :     0.005890  d :     0.037586
      dxz     :     0.010027
      dyz     :     0.005006
      dx2y2   :     0.008096
      dxy     :     0.008566

  2 C s       :     3.198417  s :     3.198417
      pz      :     0.987258  p :     2.957936
      px      :     0.991564
      py      :     0.979115
      dz2     :     0.005666  d :     0.037291
      dxz     :     0.010225
      dyz     :     0.004781
      dx2y2   :     0.007860
      dxy     :     0.008759

  3 C s       :     3.191379  s :     3.191379
      pz      :     0.901178  p :     2.638309
      px      :     0.729477
      py      :     1.007654
      dz2     :     0.009526  d :     0.047896
      dxz     :     0.011683
      dyz     :     0.006940
      dx2y2   :     0.010952
      dxy     :     0.008796

  4 C s       :     3.181669  s :     3.181669
      pz      :     0.982046  p :     2.953769
      px      :     0.985545
      py      :     0.986178
      dz2     :     0.005867  d :     0.037419
      dxz     :     0.010358
      dyz     :     0.004806
      dx2y2   :     0.007701
      dxy     :     0.008688

  5 C s       :     3.201783  s :     3.201783
      pz      :     0.990168  p :     2.926504
      px      :     0.950647
      py      :     0.985689
      dz2     :     0.005919  d :     0.037581
      dxz     :     0.010043
      dyz     :     0.005013
      dx2y2   :     0.008081
      dxy     :     0.008525

  6 C s       :     3.147046  s :     3.147046
      pz      :     1.012484  p :     2.617564
      px      :     0.774904
      py      :     0.830175
      dz2     :     0.003865  d :     0.047843
      dxz     :     0.006571
      dyz     :     0.007295
      dx2y2   :     0.014323
      dxy     :     0.015790

  7 C s       :     3.231300  s :     3.231300
      pz      :     1.000222  p :     3.067944
      px      :     1.005700
      py      :     1.062022
      dz2     :     0.003486  d :     0.036608
      dxz     :     0.006370
      dyz     :     0.003383
      dx2y2   :     0.012580
      dxy     :     0.010788

  8 C s       :     3.186964  s :     3.186964
      pz      :     1.034617  p :     2.632411
      px      :     0.892319
      py      :     0.705476
      dz2     :     0.004062  d :     0.054567
      dxz     :     0.008137
      dyz     :     0.008332
      dx2y2   :     0.016024
      dxy     :     0.018014

  9 C s       :     3.262080  s :     3.262080
      pz      :     1.052298  p :     2.607445
      px      :     0.723939
      py      :     0.831209
      dz2     :     0.004110  d :     0.053235
      dxz     :     0.008776
      dyz     :     0.007564
      dx2y2   :     0.015714
      dxy     :     0.017071

 10 C s       :     3.298132  s :     3.298132
      pz      :     1.054938  p :     2.610268
      px      :     0.825228
      py      :     0.730102
      dz2     :     0.004137  d :     0.053471
      dxz     :     0.008128
      dyz     :     0.008528
      dx2y2   :     0.016322
      dxy     :     0.016356

 11 C s       :     3.283398  s :     3.283398
      pz      :     1.041498  p :     2.679797
      px      :     0.856646
      py      :     0.781653
      dz2     :     0.004081  d :     0.053630
      dxz     :     0.007799
      dyz     :     0.008061
      dx2y2   :     0.017875
      dxy     :     0.015814

 12 Cls       :     5.948865  s :     5.948865
      pz      :     3.902878  p :    11.061829
      px      :     3.744613
      py      :     3.414338
      dz2     :     0.006742  d :     0.059873
      dxz     :     0.006299
      dyz     :     0.015141
      dx2y2   :     0.014117
      dxy     :     0.017575

 13 Cls       :     5.950047  s :     5.950047
      pz      :     3.907822  p :    11.060671
      px      :     3.786446
      py      :     3.366403
      dz2     :     0.006699  d :     0.059214
      dxz     :     0.004942
      dyz     :     0.015205
      dx2y2   :     0.014805
      dxy     :     0.017564

 14 Cls       :     5.949120  s :     5.949120
      pz      :     3.909643  p :    11.060992
      px      :     3.209100
      py      :     3.942249
      dz2     :     0.006596  d :     0.059439
      dxz     :     0.019583
      dyz     :     0.001020
      dx2y2   :     0.020041
      dxy     :     0.012199

 15 Cls       :     5.946082  s :     5.946082
      pz      :     3.916888  p :    11.093964
      px      :     3.746284
      py      :     3.430791
      dz2     :     0.006166  d :     0.057178
      dxz     :     0.006694
      dyz     :     0.013746
      dx2y2   :     0.012499
      dxy     :     0.018073

 16 H s       :     0.831461  s :     0.831461
      pz      :     0.003517  p :     0.019524
      px      :     0.012215
      py      :     0.003792

 17 H s       :     0.832521  s :     0.832521
      pz      :     0.007690  p :     0.019542
      px      :     0.004998
      py      :     0.006855

 18 H s       :     0.824789  s :     0.824789
      pz      :     0.007805  p :     0.019720
      px      :     0.005961
      py      :     0.005955

 19 H s       :     0.821155  s :     0.821155
      pz      :     0.007755  p :     0.019727
      px      :     0.005082
      py      :     0.006890

 20 H s       :     0.832548  s :     0.832548
      pz      :     0.007732  p :     0.019521
      px      :     0.005819
      py      :     0.005969

 21 H s       :     0.805065  s :     0.805065
      pz      :     0.004187  p :     0.020060
      px      :     0.005070
      py      :     0.010803


------------------------
MULLIKEN OVERLAP CHARGES
------------------------
B(  0-C ,  1-C ) :   0.9989 B(  0-C ,  2-C ) :  -0.1664 B(  0-C ,  3-C ) :  -0.0969 
B(  0-C ,  4-C ) :  -0.1501 B(  0-C ,  5-C ) :   0.9727 B(  0-C , 16-H ) :   0.7960 
B(  0-C , 17-H ) :  -0.0625 B(  0-C , 20-H ) :  -0.0667 B(  1-C ,  2-C ) :   0.8352 
B(  1-C ,  3-C ) :  -0.0793 B(  1-C ,  4-C ) :  -0.0642 B(  1-C ,  5-C ) :  -0.1578 
B(  1-C , 16-H ) :  -0.0613 B(  1-C , 17-H ) :   0.8008 B(  2-C ,  3-C ) :   0.8312 
B(  2-C ,  4-C ) :  -0.2647 B(  2-C ,  5-C ) :  -0.0583 B(  2-C ,  6-C ) :  -0.1929 
B(  2-C , 11-C ) :   0.0930 B(  2-C , 17-H ) :  -0.0572 B(  2-C , 18-H ) :   0.8120 
B(  3-C ,  4-C ) :   0.8359 B(  3-C ,  5-C ) :  -0.0593 B(  3-C ,  7-C ) :  -0.1647 
B(  3-C , 10-C ) :   0.0773 B(  3-C , 11-C ) :  -0.3254 B(  3-C , 18-H ) :  -0.0955 
B(  3-C , 19-H ) :  -0.1079 B(  4-C ,  5-C ) :   0.7750 B(  4-C ,  6-C ) :  -0.1954 
B(  4-C ,  7-C ) :   0.0672 B(  4-C , 19-H ) :   0.8131 B(  4-C , 20-H ) :  -0.0563 
B(  5-C , 16-H ) :  -0.0599 B(  5-C , 20-H ) :   0.8020 B(  6-C ,  8-C ) :   0.2807 
B(  6-C ,  9-C ) :  -0.4707 B(  6-C , 10-C ) :   0.4041 B(  6-C , 11-C ) :  -0.4239 
B(  6-C , 12-Cl) :  -0.3588 B(  7-C ,  8-C ) :  -0.0896 B(  7-C ,  9-C ) :   0.3005 
B(  7-C , 10-C ) :  -0.7054 B(  7-C , 11-C ) :   0.2133 B(  7-C , 15-Cl) :  -0.1119 
B(  7-C , 21-H ) :   0.7805 B(  8-C ,  9-C ) :  -0.1989 B(  8-C , 10-C ) :   0.4578 
B(  8-C , 11-C ) :  -0.4544 B(  8-C , 14-Cl) :  -0.2909 B(  8-C , 15-Cl) :   0.6840 
B(  9-C , 10-C ) :  -0.8642 B(  9-C , 11-C ) :   0.3498 B(  9-C , 13-Cl) :  -0.3214 
B(  9-C , 14-Cl) :   0.9438 B(  9-C , 15-Cl) :  -0.2643 B( 10-C , 11-C ) :  -1.3427 
B( 10-C , 12-Cl) :  -0.3290 B( 10-C , 13-Cl) :   0.9781 B( 10-C , 14-Cl) :  -0.3112 
B( 11-C , 12-Cl) :   0.9981 B( 11-C , 13-Cl) :  -0.3218 


                     *******************************
                     * LOEWDIN POPULATION ANALYSIS *
                     *******************************

----------------------
LOEWDIN ATOMIC CHARGES
----------------------
   0 C :   -0.156786
   1 C :   -0.156825
   2 C :   -0.141886
   3 C :   -0.080666
   4 C :   -0.141722
   5 C :   -0.156270
   6 C :   -0.066534
   7 C :   -0.143490
   8 C :   -0.178870
   9 C :   -0.195731
  10 C :   -0.187756
  11 C :   -0.163532
  12 Cl:    0.189718
  13 Cl:    0.181275
  14 Cl:    0.180381
  15 Cl:    0.165916
  16 H :    0.168964
  17 H :    0.169730
  18 H :    0.175727
  19 H :    0.176585
  20 H :    0.169943
  21 H :    0.191829

-------------------------------
LOEWDIN REDUCED ORBITAL CHARGES
-------------------------------
  0 C s       :     2.904716  s :     2.904716
      pz      :     1.046666  p :     3.170243
      px      :     1.102971
      py      :     1.020607
      dz2     :     0.017574  d :     0.081827
      dxz     :     0.018091
      dyz     :     0.014392
      dx2y2   :     0.018567
      dxy     :     0.013203

  1 C s       :     2.903179  s :     2.903179
      pz      :     1.050493  p :     3.171596
      px      :     1.096970
      py      :     1.024133
      dz2     :     0.012193  d :     0.082050
      dxz     :     0.022873
      dyz     :     0.010266
      dx2y2   :     0.018144
      dxy     :     0.018574

  2 C s       :     2.895716  s :     2.895716
      pz      :     1.047997  p :     3.164451
      px      :     1.095260
      py      :     1.021193
      dz2     :     0.011879  d :     0.081719
      dxz     :     0.023280
      dyz     :     0.009940
      dx2y2   :     0.017483
      dxy     :     0.019137

  3 C s       :     2.850659  s :     2.850659
      pz      :     1.062362  p :     3.130104
      px      :     1.027108
      py      :     1.040634
      dz2     :     0.019080  d :     0.099904
      dxz     :     0.024751
      dyz     :     0.014652
      dx2y2   :     0.023433
      dxy     :     0.017987

  4 C s       :     2.897967  s :     2.897967
      pz      :     1.048016  p :     3.161970
      px      :     1.093260
      py      :     1.020694
      dz2     :     0.012343  d :     0.081785
      dxz     :     0.023583
      dyz     :     0.009968
      dx2y2   :     0.017272
      dxy     :     0.018620

  5 C s       :     2.903148  s :     2.903148
      pz      :     1.051624  p :     3.171045
      px      :     1.096932
      py      :     1.022488
      dz2     :     0.012304  d :     0.082077
      dxz     :     0.022976
      dyz     :     0.010251
      dx2y2   :     0.017869
      dxy     :     0.018678

  6 C s       :     2.851071  s :     2.851071
      pz      :     0.973796  p :     3.114981
      px      :     1.056834
      py      :     1.084351
      dz2     :     0.007174  d :     0.100482
      dxz     :     0.011260
      dyz     :     0.013628
      dx2y2   :     0.032548
      dxy     :     0.035871

  7 C s       :     2.893211  s :     2.893211
      pz      :     1.002926  p :     3.168734
      px      :     1.062920
      py      :     1.102888
      dz2     :     0.006169  d :     0.081545
      dxz     :     0.011941
      dyz     :     0.005625
      dx2y2   :     0.030622
      dxy     :     0.027189

  8 C s       :     2.891318  s :     2.891318
      pz      :     1.030050  p :     3.169619
      px      :     1.104497
      py      :     1.035072
      dz2     :     0.008192  d :     0.117933
      dxz     :     0.014668
      dyz     :     0.015461
      dx2y2   :     0.038164
      dxy     :     0.041448

  9 C s       :     2.893066  s :     2.893066
      pz      :     1.054397  p :     3.186448
      px      :     1.022581
      py      :     1.109470
      dz2     :     0.008456  d :     0.116216
      dxz     :     0.016011
      dyz     :     0.013869
      dx2y2   :     0.036557
      dxy     :     0.041324

 10 C s       :     2.893127  s :     2.893127
      pz      :     1.045567  p :     3.177997
      px      :     1.092774
      py      :     1.039656
      dz2     :     0.008454  d :     0.116632
      dxz     :     0.014939
      dyz     :     0.015693
      dx2y2   :     0.039019
      dxy     :     0.038527

 11 C s       :     2.885767  s :     2.885767
      pz      :     1.046992  p :     3.161402
      px      :     1.065510
      py      :     1.048900
      dz2     :     0.008329  d :     0.116363
      dxz     :     0.014387
      dyz     :     0.014701
      dx2y2   :     0.042449
      dxy     :     0.036496

 12 Cls       :     5.636362  s :     5.636362
      pz      :     3.881789  p :    11.050363
      px      :     3.727509
      py      :     3.441066
      dz2     :     0.015833  d :     0.123556
      dxz     :     0.010164
      dyz     :     0.026658
      dx2y2   :     0.028168
      dxy     :     0.042733

 13 Cls       :     5.641692  s :     5.641692
      pz      :     3.882408  p :    11.053911
      px      :     3.771005
      py      :     3.400498
      dz2     :     0.016039  d :     0.123121
      dxz     :     0.008126
      dyz     :     0.026539
      dx2y2   :     0.031008
      dxy     :     0.041411

 14 Cls       :     5.642055  s :     5.642055
      pz      :     3.884384  p :    11.055035
      px      :     3.261690
      py      :     3.908961
      dz2     :     0.015822  d :     0.122529
      dxz     :     0.033996
      dyz     :     0.001201
      dx2y2   :     0.050222
      dxy     :     0.021289

 15 Cls       :     5.641032  s :     5.641032
      pz      :     3.889743  p :    11.074160
      px      :     3.730056
      py      :     3.454362
      dz2     :     0.015363  d :     0.118892
      dxz     :     0.011436
      dyz     :     0.023461
      dx2y2   :     0.025416
      dxy     :     0.043216

 16 H s       :     0.786260  s :     0.786260
      pz      :     0.007761  p :     0.044776
      px      :     0.028705
      py      :     0.008310

 17 H s       :     0.785535  s :     0.785535
      pz      :     0.017671  p :     0.044735
      px      :     0.011430
      py      :     0.015634

 18 H s       :     0.778940  s :     0.778940
      pz      :     0.018081  p :     0.045332
      px      :     0.013658
      py      :     0.013593

 19 H s       :     0.778041  s :     0.778041
      pz      :     0.018121  p :     0.045374
      px      :     0.011602
      py      :     0.015651

 20 H s       :     0.785374  s :     0.785374
      pz      :     0.017799  p :     0.044683
      px      :     0.013362
      py      :     0.013522

 21 H s       :     0.761754  s :     0.761754
      pz      :     0.009450  p :     0.046417
      px      :     0.011419
      py      :     0.025548


---------------------------------
LOEWDIN BOND ORDERS (THRESH 0.050000)
---------------------------------
B(  0-C ,  1-C ) :   1.5058 B(  0-C ,  2-C ) :   0.0885 B(  0-C ,  3-C ) :   0.1231 
B(  0-C ,  4-C ) :   0.0889 B(  0-C ,  5-C ) :   1.5001 B(  0-C , 16-H ) :   0.8748 
B(  0-C , 17-H ) :   0.0537 B(  0-C , 20-H ) :   0.0536 B(  1-C ,  2-C ) :   1.5113 
B(  1-C ,  3-C ) :   0.0901 B(  1-C ,  4-C ) :   0.1287 B(  1-C ,  5-C ) :   0.0873 
B(  1-C , 16-H ) :   0.0539 B(  1-C , 17-H ) :   0.8726 B(  1-C , 18-H ) :   0.0530 
B(  2-C ,  3-C ) :   1.4176 B(  2-C ,  4-C ) :   0.0816 B(  2-C ,  5-C ) :   0.1270 
B(  2-C ,  6-C ) :   0.0892 B(  2-C , 17-H ) :   0.0555 B(  2-C , 18-H ) :   0.8623 
B(  3-C ,  4-C ) :   1.4123 B(  3-C ,  5-C ) :   0.0905 B(  3-C ,  6-C ) :   1.0419 
B(  3-C ,  7-C ) :   0.0892 B(  3-C , 11-C ) :   0.0812 B(  3-C , 18-H ) :   0.0516 
B(  3-C , 19-H ) :   0.0508 B(  4-C ,  5-C ) :   1.5153 B(  4-C ,  6-C ) :   0.0864 
B(  4-C , 19-H ) :   0.8621 B(  4-C , 20-H ) :   0.0555 B(  5-C , 16-H ) :   0.0539 
B(  5-C , 19-H ) :   0.0528 B(  5-C , 20-H ) :   0.8724 B(  6-C ,  7-C ) :   1.4039 
B(  6-C ,  8-C ) :   0.0951 B(  6-C ,  9-C ) :   0.0981 B(  6-C , 10-C ) :   0.0926 
B(  6-C , 11-C ) :   1.3369 B(  6-C , 12-Cl) :   0.1409 B(  6-C , 21-H ) :   0.0504 
B(  7-C ,  8-C ) :   1.4293 B(  7-C ,  9-C ) :   0.0936 B(  7-C , 10-C ) :   0.1034 
B(  7-C , 11-C ) :   0.0891 B(  7-C , 15-Cl) :   0.1585 B(  7-C , 21-H ) :   0.8503 
B(  8-C ,  9-C ) :   1.3416 B(  8-C , 10-C ) :   0.0934 B(  8-C , 11-C ) :   0.0976 
B(  8-C , 14-Cl) :   0.1466 B(  8-C , 15-Cl) :   1.4262 B(  8-C , 21-H ) :   0.0522 
B(  9-C , 10-C ) :   1.3454 B(  9-C , 11-C ) :   0.0929 B(  9-C , 13-Cl) :   0.1491 
B(  9-C , 14-Cl) :   1.4281 B(  9-C , 15-Cl) :   0.1493 B( 10-C , 11-C ) :   1.3504 
B( 10-C , 12-Cl) :   0.1521 B( 10-C , 13-Cl) :   1.4255 B( 10-C , 14-Cl) :   0.1484 
B( 11-C , 12-Cl) :   1.4064 B( 11-C , 13-Cl) :   0.1491 B( 12-Cl, 13-Cl) :   0.0658 
B( 13-Cl, 14-Cl) :   0.0621 B( 14-Cl, 15-Cl) :   0.0578 

------------------------------------------
LOEWDIN REDUCED ORBITAL POPULATIONS PER MO
-------------------------------------------
THRESHOLD FOR PRINTING IS 0.1%%
                      0         1         2         3         4         5   
                 -101.23902 -101.23863 -101.23795 -101.23569 -10.13352 -10.13205
                   2.00000   2.00000   2.00000   2.00000   2.00000   2.00000
                  --------  --------  --------  --------  --------  --------
 8 C  s               0.0       0.0       0.0       0.0       0.0       0.3
 9 C  s               0.0       0.0       0.0       0.0       2.2      97.1
10 C  s               0.0       0.0       0.0       0.0      97.2       2.2
11 C  s               0.0       0.0       0.0       0.0       0.2       0.0
11 C  px              0.0       0.0       0.0       0.0       0.1       0.0
12 Cl s               0.0       0.0       0.0     100.0       0.0       0.0
13 Cl s               0.0     100.0       0.0       0.0       0.0       0.0
14 Cl s             100.0       0.0       0.0       0.0       0.0       0.0
15 Cl s               0.0       0.0     100.0       0.0       0.0       0.0

                      6         7         8         9        10        11   
                 -10.12809 -10.12782 -10.08500 -10.07248 -10.06488 -10.05103
                   2.00000   2.00000   2.00000   2.00000   2.00000   2.00000
                  --------  --------  --------  --------  --------  --------
 1 C  s               0.0       0.0       0.0       0.0       0.0       1.0
 1 C  px              0.0       0.0       0.0       0.0       0.0       0.1
 2 C  s               0.0       0.0       0.0       0.0       0.0      98.6
 3 C  s               0.0       0.0       0.0       0.0      99.5       0.0
 6 C  s               0.0       0.0      99.5       0.1       0.0       0.0
 6 C  px              0.0       0.0       0.0       0.0       0.1       0.0
 6 C  py              0.0       0.1       0.0       0.1       0.0       0.0
 7 C  s               0.0       0.0       0.1      99.5       0.0       0.0
 7 C  px              0.1       0.0       0.0       0.0       0.0       0.0
 8 C  s              99.2       0.0       0.0       0.0       0.0       0.0
 8 C  px              0.0       0.0       0.0       0.1       0.0       0.0
 9 C  s               0.3       0.0       0.0       0.0       0.0       0.0
 9 C  py              0.1       0.0       0.0       0.0       0.0       0.0
10 C  s               0.0       0.2       0.0       0.0       0.0       0.0
10 C  px              0.0       0.1       0.0       0.0       0.0       0.0
11 C  s               0.0      99.4       0.0       0.0       0.0       0.0
11 C  py              0.0       0.0       0.1       0.0       0.0       0.0

                     12        13        14        15        16        17   
                 -10.04989 -10.04875 -10.04830 -10.04788  -9.39465  -9.39432
                   2.00000   2.00000   2.00000   2.00000   2.00000   2.00000
                  --------  --------  --------  --------  --------  --------
 0 C  s               0.0      20.9      41.5      37.2       0.0       0.0
 1 C  s               0.0      75.6      19.5       3.5       0.0       0.0
 2 C  s               0.0       0.8       0.2       0.0       0.0       0.0
 2 C  px              0.0       0.1       0.0       0.0       0.0       0.0
 4 C  s              97.8       0.1       0.9       0.8       0.0       0.0
 5 C  s               1.7       2.2      37.5      58.2       0.0       0.0
 5 C  px              0.1       0.0       0.0       0.0       0.0       0.0
 9 C  px              0.0       0.0       0.0       0.0       0.2       0.0
10 C  py              0.0       0.0       0.0       0.0       0.0       0.1
13 Cl s               0.0       0.0       0.0       0.0       0.0      99.8
14 Cl s               0.0       0.0       0.0       0.0      99.8       0.0

                     18        19        20        21        22        23   
                  -9.39377  -9.39166  -7.14137  -7.14102  -7.14027  -7.13821
                   2.00000   2.00000   2.00000   2.00000   2.00000   2.00000
                  --------  --------  --------  --------  --------  --------
 8 C  py              0.1       0.0       0.0       0.0       0.0       0.0
11 C  py              0.0       0.1       0.0       0.0       0.0       0.0
12 Cl s               0.0      99.8       0.0       0.0       0.0       0.0
12 Cl pz              0.0       0.0       0.0       0.0       0.0       0.7
12 Cl px              0.0       0.0       0.0       0.0       0.0      26.7
12 Cl py              0.0       0.0       0.0       0.0       0.0      72.6
13 Cl pz              0.0       0.0       0.0       0.2       0.0       0.0
13 Cl px              0.0       0.0       0.0      21.4       0.0       0.0
13 Cl py              0.0       0.0       0.0      78.4       0.0       0.0
14 Cl px              0.0       0.0      99.8       0.0       0.0       0.0
14 Cl py              0.0       0.0       0.2       0.0       0.0       0.0
15 Cl s              99.8       0.0       0.0       0.0       0.0       0.0
15 Cl pz              0.0       0.0       0.0       0.0       0.1       0.0
15 Cl px              0.0       0.0       0.0       0.0      27.6       0.0
15 Cl py              0.0       0.0       0.0       0.0      72.3       0.0

                     24        25        26        27        28        29   
                  -7.13096  -7.13067  -7.13003  -7.12991  -7.12956  -7.12927
                   2.00000   2.00000   2.00000   2.00000   2.00000   2.00000
                  --------  --------  --------  --------  --------  --------
13 Cl pz              0.0      99.7       0.0       0.0       0.1       0.0
13 Cl px              0.0       0.0       0.0       0.0      78.6       0.0
13 Cl py              0.0       0.3       0.0       0.0      21.3       0.0
14 Cl pz             99.8       0.0       0.0       0.2       0.0       0.0
14 Cl px              0.0       0.0       0.0       0.2       0.0       0.0
14 Cl py              0.2       0.0       0.0      99.6       0.0       0.0
15 Cl pz              0.0       0.0      99.8       0.0       0.0       0.0
15 Cl px              0.0       0.0       0.0       0.0       0.0      72.4
15 Cl py              0.0       0.0       0.2       0.0       0.0      27.6

                     30        31        32        33        34        35   
                  -7.12801  -7.12696  -0.92230  -0.87685  -0.85965  -0.84033
                   2.00000   2.00000   2.00000   2.00000   2.00000   2.00000
                  --------  --------  --------  --------  --------  --------
 0 C  s               0.0       0.0       0.0       0.1       1.7       7.3
 0 C  px              0.0       0.0       0.0       0.1       0.5       1.7
 1 C  s               0.0       0.0       0.0       0.2       2.0       7.5
 1 C  pz              0.0       0.0       0.0       0.0       0.2       0.8
 1 C  px              0.0       0.0       0.0       0.0       0.3       0.4
 1 C  py              0.0       0.0       0.0       0.0       0.2       0.6
 2 C  s               0.0       0.0       0.2       0.4       3.5       7.8
 2 C  pz              0.0       0.0       0.1       0.1       0.6       0.8
 2 C  px              0.0       0.0       0.1       0.0       0.0       0.5
 2 C  py              0.0       0.0       0.0       0.1       0.3       0.4
 3 C  s               0.0       0.0       0.9       1.3       7.1       7.4
 3 C  px              0.0       0.0       0.6       0.1       0.0       2.2
 3 C  py              0.0       0.0       0.0       0.2       0.0       0.1
 4 C  s               0.0       0.0       0.2       0.6       3.5       7.2
 4 C  pz              0.0       0.0       0.1       0.1       0.6       0.7
 4 C  px              0.0       0.0       0.1       0.1       0.0       0.5
 4 C  py              0.0       0.0       0.0       0.0       0.3       0.8
 5 C  s               0.0       0.0       0.0       0.2       2.0       7.3
 5 C  pz              0.0       0.0       0.0       0.0       0.2       0.8
 5 C  px              0.0       0.0       0.0       0.1       0.3       0.5
 5 C  py              0.0       0.0       0.0       0.0       0.1       0.4
 6 C  s               0.0       0.0       5.2       2.0       6.7       0.0
 6 C  px              0.0       0.0       1.2       0.1       0.3       2.0
 6 C  py              0.0       0.0       0.3       2.2       0.1       0.3
 7 C  s               0.0       0.0       4.7       0.5       5.0       0.3
 7 C  px              0.0       0.0       0.9       2.6       0.0       0.7
 7 C  py              0.0       0.0       0.9       0.6       0.3       0.0
 8 C  s               0.0       0.0      10.4       9.3       3.5       1.3
 8 C  px              0.0       0.0       0.1       2.2       0.5       0.0
 8 C  py              0.0       0.0       0.6       1.1       2.3       1.9
 8 C  dz2             0.0       0.0       0.1       0.1       0.1       0.0
 9 C  s               0.0       0.0      15.6       4.2       1.7       1.2
 9 C  px              0.0       0.0       0.1       1.6       2.0       2.5
 9 C  py              0.0       0.0       0.1       3.4       3.7       0.7
 9 C  dz2             0.0       0.0       0.2       0.1       0.0       0.0
10 C  s               0.0       0.0      16.0       2.0       4.3       0.1
10 C  px              0.0       0.0       0.0       2.5       3.9       2.0
10 C  py              0.0       0.0       0.1       3.1       2.1       0.0
10 C  dz2             0.0       0.0       0.2       0.0       0.1       0.0
11 C  s               0.0       0.0      11.1       9.6       1.0       1.8
11 C  px              0.0       0.0       0.7       0.6       3.4       0.3
11 C  py              0.0       0.0       0.0       2.2       0.7       1.3
11 C  dz2             0.0       0.0       0.1       0.1       0.0       0.0
12 Cl s               0.0       0.0       4.5      15.3       1.6       7.3
12 Cl pz             99.1       0.2       0.0       0.0       0.0       0.0
12 Cl px              0.0      73.3       0.4       0.4       0.0       0.1
12 Cl py              0.9      26.5       0.6       0.9       0.1       0.2
12 Cl dxy             0.0       0.0       0.1       0.2       0.0       0.1
13 Cl s               0.0       0.0       7.1       3.5      14.9       0.7
13 Cl px              0.0       0.0       0.3       0.3       0.1       0.0
13 Cl py              0.0       0.0       1.2       0.1       0.7       0.0
13 Cl dz2             0.0       0.0       0.1       0.0       0.1       0.0
13 Cl dxy             0.0       0.0       0.1       0.1       0.1       0.0
14 Cl s               0.0       0.0       6.8       7.1       6.4       8.1
14 Cl px              0.0       0.0       1.4       0.6       0.3       0.2
14 Cl dz2             0.0       0.0       0.1       0.0       0.0       0.0
14 Cl dx2y2           0.0       0.0       0.2       0.1       0.1       0.1
15 Cl s               0.0       0.0       4.1      15.0       7.1       6.1
15 Cl px              0.0       0.0       0.2       0.3       0.2       0.1
15 Cl py              0.0       0.0       0.7       1.0       0.2       0.1
15 Cl dz2             0.0       0.0       0.1       0.1       0.0       0.0
15 Cl dxy             0.0       0.0       0.1       0.2       0.1       0.0
16 H  s               0.0       0.0       0.0       0.0       0.1       0.7
17 H  s               0.0       0.0       0.0       0.0       0.2       0.7
18 H  s               0.0       0.0       0.0       0.0       0.3       0.7
19 H  s               0.0       0.0       0.0       0.1       0.3       0.6
20 H  s               0.0       0.0       0.0       0.0       0.2       0.7
21 H  s               0.0       0.0       0.4       0.1       0.5       0.0

                     36        37        38        39        40        41   
                  -0.82233  -0.80674  -0.75501  -0.73187  -0.71284  -0.69890
                   2.00000   2.00000   2.00000   2.00000   2.00000   2.00000
                  --------  --------  --------  --------  --------  --------
 0 C  s               0.5       2.4      10.2       0.0       3.2       5.6
 0 C  pz              0.0       0.0       0.0       5.6       0.1       0.0
 0 C  px              0.1       0.3       0.3       0.0       0.0       0.1
 0 C  py              0.0       0.0       0.0       3.6       0.0       0.0
 0 C  dxz             0.0       0.0       0.0       0.2       0.0       0.0
 0 C  dxy             0.0       0.0       0.0       0.1       0.0       0.0
 1 C  s               0.5       1.6       3.7      14.7       0.1       0.7
 1 C  pz              0.0       0.2       0.7       0.3       0.3       0.4
 1 C  px              0.0       0.0       1.7       1.8       1.5       2.5
 1 C  py              0.0       0.1       0.3       0.1       0.1       0.1
 1 C  dx2y2           0.0       0.0       0.0       0.1       0.0       0.0
 2 C  s               0.3       0.2       0.9      13.6       1.8       2.2
 2 C  pz              0.0       0.0       0.5       0.4       0.1       0.2
 2 C  px              0.1       0.9       3.7       2.0       0.2       0.5
 2 C  py              0.0       0.0       0.5       0.4       0.2       0.2
 2 C  dx2y2           0.0       0.0       0.0       0.1       0.0       0.0
 3 C  s               0.1       0.2       9.7       0.1       2.3       2.2
 3 C  pz              0.0       0.0       0.0       6.3       0.0       0.0
 3 C  px              0.3       2.6       1.3       0.0       0.7       3.0
 3 C  py              0.1       0.1       0.0       4.2       0.0       0.0
 3 C  dxz             0.0       0.0       0.0       0.2       0.0       0.0
 4 C  s               0.2       0.6       0.6      15.3       0.5       2.3
 4 C  pz              0.0       0.0       0.5       0.3       0.2       0.2
 4 C  px              0.2       0.6       4.0       1.5       0.9       0.5
 4 C  py              0.1       0.0       0.2       0.1       0.1       0.1
 4 C  dx2y2           0.0       0.0       0.0       0.1       0.0       0.0
 5 C  s               0.4       2.0       4.3      13.0       1.4       0.6
 5 C  pz              0.1       0.2       0.7       0.4       0.1       0.4
 5 C  px              0.0       0.0       1.3       2.2       0.8       2.3
 5 C  py              0.0       0.1       0.6       0.4       0.2       0.4
 5 C  dx2y2           0.0       0.0       0.0       0.1       0.0       0.0
 6 C  s               0.2       7.9       4.2       0.0       0.5       5.8
 6 C  pz              0.0       0.0       0.0       0.2       0.0       0.0
 6 C  px              0.0       1.0       4.2       0.0       1.2       1.7
 6 C  py              0.6       1.3       0.2       0.3       5.4       1.7
 6 C  dxy             0.0       0.0       0.0       0.0       0.2       0.1
 7 C  s               0.2       7.3       0.1       0.1      15.1       0.1
 7 C  px              0.3       0.4       2.4       0.0       0.2       3.0
 7 C  py              0.2       2.0       0.0       0.0       0.2       0.8
 7 C  dx2y2           0.0       0.0       0.0       0.0       0.0       0.2
 8 C  s               0.8       0.2       1.4       0.0       2.1       5.8
 8 C  px              0.0       5.9       0.1       0.0       7.5       0.0
 8 C  py              2.9       4.6       3.1       0.0       0.1       3.9
 8 C  dx2y2           0.0       0.1       0.0       0.0       0.3       0.0
 8 C  dxy             0.1       0.1       0.1       0.0       0.0       0.2
 9 C  s               2.0       0.4       3.0       0.0       1.6       5.0
 9 C  px              6.6       2.7       5.2       0.0       1.4       2.5
 9 C  py              0.1       0.1       0.0       0.0       2.2       1.5
 9 C  dx2y2           0.3       0.0       0.1       0.0       0.0       0.1
 9 C  dxy             0.0       0.0       0.0       0.0       0.2       0.1
10 C  s               2.1       0.5       2.3       0.0       6.8       0.1
10 C  px              1.0       0.1       0.6       0.0       1.2       3.8
10 C  py              6.1       2.2       4.1       0.0       3.5       0.6
10 C  dx2y2           0.1       0.0       0.0       0.0       0.1       0.2
10 C  dxy             0.2       0.0       0.1       0.0       0.1       0.1
11 C  s               1.1       0.1       0.3       0.0       2.8       6.6
11 C  px              2.8       1.0       2.5       0.0       3.4       0.1
11 C  py              0.5      10.8       0.2       0.1       0.4       4.3
11 C  dx2y2           0.0       0.0       0.0       0.0       0.2       0.0
11 C  dxy             0.1       0.2       0.0       0.0       0.0       0.2
12 Cl s               9.4      18.3       0.1       0.3       4.7       7.4
12 Cl px              0.1       0.1       0.0       0.0       0.1       0.3
12 Cl py              0.2       0.1       0.0       0.0       0.4       1.0
12 Cl dxy             0.0       0.0       0.0       0.0       0.1       0.1
13 Cl s              25.8       1.0       6.3       0.0       8.2       0.1
13 Cl px              0.1       0.0       0.1       0.0       0.2       0.0
13 Cl py              0.4       0.0       0.2       0.0       0.9       0.0
13 Cl dxy             0.1       0.0       0.0       0.0       0.1       0.0
14 Cl s              23.8       1.8       5.7       0.0       2.6       5.7
14 Cl px              0.4       0.0       0.3       0.0       0.3       1.0
14 Cl dx2y2           0.1       0.0       0.1       0.0       0.0       0.1
15 Cl s               7.5      15.3       3.0       0.0       4.5       6.7
15 Cl px              0.1       0.1       0.0       0.0       0.3       0.3
15 Cl py              0.1       0.1       0.1       0.0       0.3       0.8
15 Cl dxy             0.0       0.0       0.0       0.0       0.1       0.1
16 H  s               0.1       0.3       1.5       0.0       0.6       1.2
16 H  px              0.0       0.0       0.1       0.0       0.1       0.1
17 H  s               0.1       0.2       0.5       2.6       0.0       0.2
18 H  s               0.0       0.0       0.2       2.4       0.3       0.4
19 H  s               0.0       0.1       0.1       2.7       0.1       0.4
19 H  pz              0.0       0.0       0.0       0.1       0.0       0.0
20 H  s               0.0       0.2       0.6       2.2       0.3       0.1
21 H  s               0.0       0.7       0.1       0.0       3.1       0.0
21 H  py              0.0       0.1       0.0       0.0       0.2       0.0

                     42        43        44        45        46        47   
                  -0.61882  -0.60189  -0.58623  -0.56707  -0.51494  -0.50457
                   2.00000   2.00000   2.00000   2.00000   2.00000   2.00000
                  --------  --------  --------  --------  --------  --------
 0 C  s               4.9       1.0       0.1       3.5       0.2       0.0
 0 C  pz              0.1       2.7       5.8       0.0       0.0       0.5
 0 C  px              1.0       0.4       0.0       0.9       4.1       0.1
 0 C  py              0.1       1.6       3.8       0.0       0.1       0.4
 1 C  s               0.0       3.7       3.9       2.3       0.8       0.1
 1 C  pz              0.7       0.5       0.0       3.0       3.2       0.1
 1 C  px              4.6       0.1       4.8       2.0       1.4       0.6
 1 C  py              0.3       0.3       0.1       1.7       2.5       0.0
 2 C  s               2.8       0.5       5.3       0.7       0.2       0.3
 2 C  pz              0.3       0.2       0.3       3.7       3.1       0.5
 2 C  px              0.4       5.0       2.8       2.5       1.0       0.0
 2 C  py              0.3       0.1       0.0       2.9       2.3       0.0
 3 C  s               1.4       0.4       0.1       5.1       0.1       0.0
 3 C  pz              0.1       2.6       6.8       0.0       0.0       0.3
 3 C  px              5.2       0.9       0.0       0.8       7.3       0.0
 3 C  py              0.6       3.3       2.9       0.0       0.0       1.4
 4 C  s               1.5       3.4       3.7       0.7       0.4       0.2
 4 C  pz              0.4       0.1       0.0       3.7       3.9       0.1
 4 C  px              2.3       0.9       5.0       3.4       0.4       0.2
[...]
 8 C  dxy             4.5       0.0       0.0       0.0       0.0       0.0
 9 C  s               0.2       0.0      19.5       2.9      20.4       1.9
 9 C  py              0.7       0.0       0.0       0.0       0.1       0.1
 9 C  dx2y2           1.8       0.0       0.0       0.0       0.0       0.0
 9 C  dxy             0.5       0.0       0.0       0.0       0.0       0.0
10 C  s               0.1       0.0      20.3       2.7       1.0      35.0
10 C  px              0.5       0.0       0.0       0.0       0.2       0.0
10 C  py              0.2       0.0       0.0       0.0       0.0       0.0
10 C  dx2y2           2.0       0.0       0.0       0.0       0.0       0.0
11 C  s               0.3       0.0      16.1       0.8      25.7       3.6
11 C  px              0.4       0.0       0.0       0.0       0.0       0.1
11 C  py              0.2       0.0       0.0       0.0       0.0       0.0
11 C  dx2y2           2.7       0.0       0.0       0.0       0.0       0.0
11 C  dxy             0.7       0.0       0.0       0.0       0.0       0.0
15 Cl py              0.2       0.0       0.0       0.0       0.0       0.0
15 Cl dxy             0.2       0.0       0.0       0.0       0.0       0.0
16 H  s               0.4       2.8       0.0       0.0       0.0       0.0
16 H  px              0.9       5.1       0.0       0.0       0.0       0.0
17 H  s               0.0       2.5       0.0       0.0       0.0       0.0
17 H  pz              0.0       2.0       0.0       0.0       0.0       0.0
17 H  px              0.1       1.0       0.0       0.0       0.0       0.0
17 H  py              0.0       1.5       0.0       0.0       0.0       0.0
18 H  s               0.1       2.0       0.0       0.0       0.0       0.0
18 H  pz              0.2       1.8       0.0       0.0       0.0       0.0
18 H  px              0.2       1.1       0.0       0.0       0.0       0.0
18 H  py              0.1       0.9       0.0       0.0       0.0       0.0
19 H  s               0.0       2.0       0.0       0.0       0.0       0.0
19 H  pz              0.0       1.9       0.0       0.0       0.0       0.0
19 H  px              0.0       0.7       0.0       0.0       0.0       0.0
19 H  py              0.0       1.2       0.0       0.0       0.0       0.0
20 H  s               0.3       2.5       0.0       0.0       0.0       0.0
20 H  pz              0.4       2.0       0.0       0.0       0.0       0.0
20 H  px              0.4       1.4       0.0       0.0       0.0       0.0
20 H  py              0.2       1.1       0.0       0.0       0.0       0.0
21 H  s               7.9       0.0       0.0       0.0       0.0       0.0
21 H  px              4.7       0.0       0.0       0.0       0.0       0.0
21 H  py             17.4       0.1       0.0       0.0       0.0       0.0

                    354       355       356       357       358       359   
                  21.95137  21.96418  22.09939  22.10731  22.19871  22.22004
                   0.00000   0.00000   0.00000   0.00000   0.00000   0.00000
                  --------  --------  --------  --------  --------  --------
 0 C  s              10.6       8.6      20.1       0.5      19.0       0.8
 1 C  s              23.6       7.8       0.1       5.4      18.5       9.1
 2 C  s               1.5      23.6       7.7       1.3       0.0      31.1
 3 C  s               7.5       5.6       0.1       0.0      30.5       4.5
 4 C  s              24.4       2.0       7.6       0.0       7.5      22.6
 5 C  s               4.9      24.8       0.1       6.6       3.6      20.9
 6 C  s               0.5       0.0      21.2       0.5       3.6       2.3
 6 C  py              0.0       0.0       0.0       0.1       0.0       0.0
 7 C  s               0.7       8.2       0.0      30.9       2.8       1.9
 8 C  s               6.2       1.2      14.6       5.2       5.5       0.5
 9 C  s               8.7      14.1      19.1       3.8       2.8       0.1
10 C  s               2.1       0.0       8.5      19.2       4.5       0.9
11 C  s               8.7       3.4       0.4      26.1       1.3       4.7

                    360       361       362       363       364       365   
                  22.27610  22.34171  25.17418  25.36364  25.54481  25.65158
                   0.00000   0.00000   0.00000   0.00000   0.00000   0.00000
                  --------  --------  --------  --------  --------  --------
 0 C  s               1.5      12.8       0.0       0.0       0.0       0.0
 1 C  s               0.0      14.8       0.0       0.0       0.0       0.0
 2 C  s               0.1      16.6       0.0       0.0       0.0       0.0
 3 C  s              10.2      12.8       0.2       0.0       0.0       0.0
 4 C  s               4.5      15.0       0.0       0.0       0.0       0.0
 5 C  s               1.6      15.2       0.0       0.0       0.0       0.0
 6 C  s              32.7       2.2       0.0       0.0       0.0       0.0
 6 C  px              0.0       0.0       0.2       0.0       0.0       0.0
 7 C  s              25.3       4.8       0.0       0.0       0.0       0.0
 8 C  s               7.7       1.6       0.0       0.0       0.1       0.0
 8 C  py              0.0       0.0       0.0       0.2       0.2       0.0
 9 C  s               5.5       0.7       0.1       0.0       0.1       0.1
 9 C  px              0.0       0.0       0.1       0.0       0.2       0.2
10 C  s               4.0       1.3       0.1       0.0       0.0       0.1
10 C  py              0.0       0.0       0.1       0.1       0.0       0.2
11 C  s               6.6       1.8       0.0       0.0       0.1       0.1
11 C  py              0.0       0.0       0.0       0.1       0.1       0.1
12 Cl s               0.0       0.0       9.8      23.8      35.5      29.7
13 Cl s               0.0       0.0      33.5      22.2       0.9      42.4
14 Cl s               0.0       0.0      40.5       6.2      30.8      21.5
15 Cl s               0.0       0.0      15.2      46.9      31.6       5.2



                      *****************************
                      * MAYER POPULATION ANALYSIS *
                      *****************************

  NA   - Mulliken gross atomic population
  ZA   - Total nuclear charge
  QA   - Mulliken gross atomic charge
  VA   - Mayer's total valence
  BVA  - Mayer's bonded valence
  FA   - Mayer's free valence

  ATOM       NA         ZA         QA         VA         BVA        FA
  0 C      6.1288     6.0000    -0.1288     3.8223     3.8223     0.0000
  1 C      6.1646     6.0000    -0.1646     3.8567     3.8567     0.0000
  2 C      6.1936     6.0000    -0.1936     3.8703     3.8703    -0.0000
  3 C      5.8776     6.0000     0.1224     3.5165     3.5165    -0.0000
  4 C      6.1729     6.0000    -0.1729     3.8907     3.8907    -0.0000
  5 C      6.1659     6.0000    -0.1659     3.8653     3.8653     0.0000
  6 C      5.8125     6.0000     0.1875     3.2730     3.2730    -0.0000
  7 C      6.3359     6.0000    -0.3359     3.7784     3.7784     0.0000
  8 C      5.8739     6.0000     0.1261     3.5814     3.5814     0.0000
  9 C      5.9228     6.0000     0.0772     3.4328     3.4328    -0.0000
 10 C      5.9619     6.0000     0.0381     3.2793     3.2793     0.0000
 11 C      6.0168     6.0000    -0.0168     3.5937     3.5937    -0.0000
 12 Cl    17.0706    17.0000    -0.0706     1.2488     1.2488    -0.0000
 13 Cl    17.0699    17.0000    -0.0699     1.2460     1.2460    -0.0000
 14 Cl    17.0696    17.0000    -0.0696     1.2446     1.2446    -0.0000
 15 Cl    17.0972    17.0000    -0.0972     1.1936     1.1936    -0.0000
 16 H      0.8510     1.0000     0.1490     0.9673     0.9673    -0.0000
 17 H      0.8521     1.0000     0.1479     0.9680     0.9680     0.0000
 18 H      0.8445     1.0000     0.1555     0.9657     0.9657     0.0000
 19 H      0.8409     1.0000     0.1591     0.9632     0.9632    -0.0000
 20 H      0.8521     1.0000     0.1479     0.9679     0.9679     0.0000
 21 H      0.8251     1.0000     0.1749     0.9623     0.9623     0.0000

  Mayer bond orders larger than 0.100000
B(  0-C ,  1-C ) :   1.4195 B(  0-C ,  5-C ) :   1.4113 B(  0-C , 16-H ) :   0.9462 
B(  1-C ,  2-C ) :   1.4333 B(  1-C , 17-H ) :   0.9494 B(  2-C ,  3-C ) :   1.4016 
B(  2-C , 18-H ) :   0.9437 B(  3-C ,  4-C ) :   1.4018 B(  3-C ,  6-C ) :   0.7750 
B(  4-C ,  5-C ) :   1.4442 B(  4-C , 19-H ) :   0.9381 B(  5-C , 20-H ) :   0.9493 
B(  6-C ,  7-C ) :   1.3677 B(  6-C , 11-C ) :   1.2529 B(  7-C ,  8-C ) :   1.3136 
B(  7-C , 21-H ) :   0.9262 B(  8-C ,  9-C ) :   1.2175 B(  8-C , 15-Cl) :   1.0695 
B(  9-C , 10-C ) :   1.0978 B(  9-C , 14-Cl) :   1.2387 B( 10-C , 11-C ) :   1.1005 
B( 10-C , 13-Cl) :   1.2597 B( 11-C , 12-Cl) :   1.2769 

-------
TIMINGS
-------

Total SCF time: 0 days 0 hours 0 min 52 sec 

Total time                  ....      52.624 sec
Sum of individual times     ....      52.047 sec  ( 98.9%)

SCF preparation             ....       0.227 sec  (  0.4%)
Fock matrix formation       ....      50.122 sec  ( 95.2%)
  Startup                   ....       0.068 sec  (  0.1% of F)
  Split-RI-J                ....      14.960 sec  ( 29.8% of F)
  XC integration            ....      34.379 sec  ( 68.6% of F)
    Basis function eval.    ....       5.403 sec  ( 15.7% of XC)
    Density eval.           ....      12.571 sec  ( 36.6% of XC)
    XC-Functional eval.     ....       2.996 sec  (  8.7% of XC)
    XC-Potential eval.      ....      12.342 sec  ( 35.9% of XC)
Diagonalization             ....       0.000 sec  (  0.0%)
Density matrix formation    ....       0.293 sec  (  0.6%)
Total Energy calculation    ....       0.038 sec  (  0.1%)
Population analysis         ....       0.205 sec  (  0.4%)
Orbital Transformation      ....       0.125 sec  (  0.2%)
Orbital Orthonormalization  ....       0.000 sec  (  0.0%)
DIIS solution               ....       0.772 sec  (  1.5%)
  MO trafo                  ....       0.000 sec  (  0.0 % of DIIS)
  Orb grad                  ....       0.000 sec  (  0.0 % of DIIS)
  Energy W gradient         ....       0.000 sec  (  0.0 % of DIIS)
  DIIS error                ....       0.039 sec  (  5.1 % of DIIS)
  DIIS work                 ....       0.653 sec  ( 84.5 % of DIIS)
  Form Q                    ....       0.000 sec  (  0.0 % of DIIS)
  Form QpQm                 ....       0.000 sec  (  0.0 % of DIIS)
  Exp/Cayley                ....       0.000 sec  (  0.0 % of DIIS)
  Orb update                ....       0.000 sec  (  0.0 % of DIIS)
  Wake-sleep                ....       0.019 sec  (  2.5 % of DIIS)
SOSCF solution              ....       0.264 sec  (  0.5%)
  MO trafo                  ....       0.105 sec  ( 39.7 % of SOSCF)
  Orb grad                  ....       0.002 sec  (  0.8 % of SOSCF)
  Rot update                ....       0.046 sec  ( 17.6 % of SOSCF)
  Step                      ....       0.110 sec  ( 41.8 % of SOSCF)
Finished LeanSCF after  52.7 sec

Maximum memory used throughout the entire LEANSCF-calculation: 42.7 MB


-------------------------------------------------------------------------------
                          DFT DISPERSION CORRECTION                            
                                                                               
                                DFTD4 V3.4.0                                   
-------------------------------------------------------------------------------
The R2SCAN3C composite method is recognized
Using three-body term ABC
Active option DFTDOPT                   ...         5   

-------------------------   ----------------
Dispersion correction           -0.012623828
-------------------------   ----------------

------------------   -----------------
gCP correction             0.009562579
------------------   -----------------

-------------------------   --------------------
FINAL SINGLE POINT ENERGY     -2301.483435105342
-------------------------   --------------------


------------------------------------------------------------------------------
                              ORCA PROPERTY CALCULATIONS
------------------------------------------------------------------------------

GBWName                                 ... sp_gas.gbw
Number of atoms                         ...     22
Number of basis functions               ...    366
Max core memory                         ...   1024 MB

Electric properties:
Dipole moment                           ... YES
Quadrupole moment                       ...  NO
Static polarizability (Dipole/Dipole)   ...  NO
Static polarizability (Dipole/Quad.)    ...  NO
Static polarizability (Quad./Quad.)     ...  NO
Static polarizability (Velocity)        ...  NO

Atomic electric properties:
Dipole moment                           ...  NO
Quadrupole moment                       ...  NO
Static polarizability                   ...  NO

Choice of electric origin               ... Center of mass
Position of electric origin             ...    -0.000014    -0.000004     0.000000

General magnetic properties:
Magnetizability                         ...  NO

EPR properties:
g-Tensor (aka g-matrix)                 ...  NO
Zero-Field splitting spin-orbit         ...  NO
Zero-field splitting spin-spin          ...  NO
Hyperfine couplings                     ...  NO (   0 nuclei)
Quadrupole couplings                    ...  NO (   0 nuclei)
Contact density                         ...  NO (   0 nuclei)

NMR properties:
Chemical shifts                         ...  NO (   0 nuclei)
Spin-rotation constants                 ...  NO (   0 nuclei)
Spin-spin couplings                     ...  NO (   0 nuclei,    0 pairs)

Choice of magnetic origin               ... GIAO
Position of magnetic origin             ...     0.000000     0.000000     0.000000

Properties with geometric perturbations:
SCF Hessian                             ...  NO
IR spectrum                             ...  NO
VCD spectrum                            ...  NO
X-ray spectroscopy properties:
SCF XES/XAS/RIXS spectra                ...  NO


-------------
DIPOLE MOMENT
-------------

Method             : SCF
Type of density    : Electron Density
Multiplicity       :   1
Irrep              :   0
Energy             : -2301.4803738563059596 Eh
Relativity type    : 
Basis              : AO
                                X                 Y                 Z
Electronic contribution:     28.378545217       7.292272897      -0.405676529
Nuclear contribution   :    -29.360615746      -7.649472319       0.441688782
                        -----------------------------------------
Total Dipole Moment    :     -0.982070529      -0.357199422       0.036012252
                        -----------------------------------------
Magnitude (a.u.)       :      1.045634177
Magnitude (Debye)      :      2.657790861



--------------------
Rotational spectrum 
--------------------
 
Rotational constants in cm-1:             0.018544             0.007861             0.005728 
Rotational constants in MHz :           555.939366           235.661628           171.712160 

Dipole components along the rotational axes: 
x,y,z [a.u.] :    -0.982071    -0.357198     0.036013 
x,y,z [Debye]:    -2.496226    -0.907926     0.091537 

 

Dipole moment calculation done in   0.0 sec 

Maximum memory used throughout the entire PROP-calculation: 28.6 MB

--------------------------------
SUGGESTED CITATIONS FOR THIS RUN
--------------------------------

Below you find a list of papers that are relevant to this ORCA run
We neither can nor want to force you to cite these papers, but we appreciate if you do
You receive ORCA, which is the product of decades of hard work by many enthusiastic individuals, for free
The only thing we kindly ask in return is that you cite our papers,
We deeply appreciate it, if you show your appreciation for ORCA by not just citing the generic ORCA reference.

Please note that relegating all ORCA citations to the supporting information does *not* help us.
SI sections are not indexed - citations you put there will not count into any citation statistics
But we need these citations in order to attract the funding resources that allow us to do what we are doing

Therefore, if you are a happy ORCA user, please consider citing a few of the papers listed below in the main body of your paper

In addition to the list printed below, the program has created the file sp_gas.bibtex that contains the list in bibtex format
You can import this file easily into all common literature databanks and citation aid programs


List of essential papers. We consider these as the minimum necessary citations

  1. Neese,F.
     Software update: the ORCA program system, version 5.0
     WIRES Comput. Molec. Sci., 2022 12(1)e1606
     doi.org/10.1002/wcms.1606
  2. Grimme,S.; Hansen,A.; Ehlert,S.; Mewes,J.
     r2SCAN-3c: A 'Swiss army knife' composite electronic-structure method
     J. Chem. Phys., 2021 154 064103
     doi.org/10.1063/5.0040021

List of papers to cite with high priority. The work reported in these papers was absolutely
necessary for this run to complete.
Our perspective: the developers of density functionals and basis sets usually get cited in chemistry papers
Good! But without the algorithms to do something with them, the functionals or basis sets would not do anything.
Hence, in our opinion, the algorithm design and method developments papers are equally worthy of getting cited

  1. Neese,F.
     An improvement of the resolution of the identity approximation for the formation of the Coulomb matrix
     J. Comp. Chem., 2003 24(14)1740-1747
     doi.org/10.1002/jcc.10318
  2. Neese,F.
     The SHARK Integral Generation and Digestion System
     J. Comp. Chem., 2022  1-16
     doi.org/10.1002/jcc.26942
  3. Lehtola,S.; Steigemann,C.; Oliveira,M.; Marques,M.
     Recent developments in Libxc - A comprehensive library of functionals for density functional theory
     Software X, 2018 7 
     doi.org/10.1016/j.softx.2017.11.002
  4. Caldeweyher,E.; Bannwarth,C.; Grimme,S.
     Extension of the D3 dispersion coefficient model
     J. Chem. Phys., 2017 147 034112-XXXX
     doi.org/10.1063/1.4993215
  5. Caldeweyher,E.; Ehlert,S.; Hansen,A.; Neugebauer,H.; Spicher,S.; Bannwarth,C.; Grimme,S.
     A generally applicable atomic-charge dependent London dispersion correction
     J. Chem. Phys., 2019 150 154122-XXXX
     doi.org/10.1063/1.5090222
  6. Caldeweyher,E.; Mewes,J.; Ehlert,S.; Grimme,S.
     Extension and evaluation of the D4 London-dispersion model for periodic systems
     Phys. Chem. Chem. Phys., 2020 22(16)8499-8512
     doi.org/10.1039/D0CP00502A

List of suggested additional citations. These are papers that are important in the 'surrounding' of 
of this run, or papers that preceded the highly important papers. If you like your results we are grateful for a citation.

  1. Neese,F.
     The ORCA program system
     WIRES Comput. Molec. Sci., 2012 2(1)73-78
     doi.org/10.1002/wcms.81
  2. Neese,F.
     Software update: the ORCA program system, version 4.0
     WIRES Comput. Molec. Sci., 2018 8(1)1-6
     doi.org/10.1002/wcms.1327
  3. Neese,F.; Wennmohs,F.; Becker,U.; Riplinger,C.
     The ORCA quantum chemistry program package
     J. Chem. Phys., 2020 152 Art. No. L224108
     doi.org/10.1063/5.0004608

List of optional additional citations

  1. Neese,F.
     Approximate second-order SCF convergence for spin unrestricted wavefunctions
     Chem. Phys. Lett., 2000 325(1-3)93-98
     doi.org/10.1016/s0009-2614(00)00662-x

Timings for individual modules:

Sum of individual times          ...       55.074 sec (=   0.918 min)
Startup calculation              ...        1.842 sec (=   0.031 min)   3.3 %
SCF iterations                   ...       53.112 sec (=   0.885 min)  96.4 %
Property calculations            ...        0.119 sec (=   0.002 min)   0.2 %
                             ****ORCA TERMINATED NORMALLY****
TOTAL RUN TIME: 0 days 0 hours 0 minutes 55 seconds 716 msec
