      -----------------------------------------------------------      
     |                   =====================                   |     
     |                           x T B                           |     
     |                   =====================                   |     
     |                         S. Grimme                         |     
     |          Mulliken Center for Theoretical Chemistry        |     
     |                    University of Bonn                     |     
      -----------------------------------------------------------      

   * xtb version 6.7.1 (edcfbbe) compiled by 'albert@albert-system' on 2024-07-22

   xtb is free software: you can redistribute it and/or modify it under
   the terms of the GNU Lesser General Public License as published by
   the Free Software Foundation, either version 3 of the License, or
   (at your option) any later version.
   
   xtb is distributed in the hope that it will be useful,
   but WITHOUT ANY WARRANTY; without even the implied warranty of
   MERCHANTABILITY or FITNESS FOR A PARTICULAR PURPOSE.  See the
   GNU Lesser General Public License for more details.
   
   Cite this work as:
   * C. Bannwarth, E. Caldeweyher, S. Ehlert, A. Hansen, P. Pracht,
     J. Seibert, S. Spicher, S. Grimme, WIREs Comput. Mol. Sci., 2020, 11,
     e01493. DOI: 10.1002/wcms.1493
   
   for GFN2-xTB:
   * C. Bannwarth, S. Ehlert and S. Grimme., J. Chem. Theory Comput., 2019,
     15, 1652-1671. DOI: 10.1021/acs.jctc.8b01176
   for GFN1-xTB:
   * S. Grimme, C. Bannwarth, P. Shushkov, J. Chem. Theory Comput., 2017,
     13, 1989-2009. DOI: 10.1021/acs.jctc.7b00118
   for GFN0-xTB:
   * P. Pracht, E. Caldeweyher, S. Ehlert, S. Grimme, ChemRxiv, 2019, preprint.
     DOI: 10.26434/chemrxiv.8326202.v1
   for GFN-FF:
   * S. Spicher and S. Grimme, Angew. Chem. Int. Ed., 2020, 59, 15665-15673.
     DOI: 10.1002/anie.202004239
   
   for ALPB and GBSA implicit solvation:
   * S. Ehlert, M. Stahn, S. Spicher, S. Grimme, J. Chem. Theory Comput.,
     2021, 17, 4250-4261. DOI: 10.1021/acs.jctc.1c00471
   
   for ddCOSMO and CPCM-X implicit solvation:
   * M. Stahn, S. Ehlert, S. Grimme, J. Phys. Chem. A,
     2023, XX, XXXX-XXXX. DOI: 10.1021/acs.jpca.3c04382
   
   for DFT-D4:
   * E. Caldeweyher, C. Bannwarth and S. Grimme, J. Chem. Phys., 2017,
     147, 034112. DOI: 10.1063/1.4993215
   * E. Caldeweyher, S. Ehlert, A. Hansen, H. Neugebauer, S. Spicher,
     C. Bannwarth and S. Grimme, J. Chem. Phys., 2019, 150, 154122.
     DOI: 10.1063/1.5090222
   * E. Caldeweyher, J.-M. Mewes, S. Ehlert and S. Grimme, Phys. Chem. Chem. Phys.
     2020, 22, 8499-8512. DOI: 10.1039/D0CP00502A
   
   for sTDA-xTB:
   * S. Grimme and C. Bannwarth, J. Chem. Phys., 2016, 145, 054103.
     DOI: 10.1063/1.4959605
   
   in the mass-spec context:
   * V. Asgeirsson, C. Bauer and S. Grimme, Chem. Sci., 2017, 8, 4879.
     DOI: 10.1039/c7sc00601b
   * J. Koopman and S. Grimme, ACS Omega 2019, 4, 12, 15120-15133.
     DOI: 10.1021/acsomega.9b02011
   
   for metadynamics refer to:
   * S. Grimme, J. Chem. Theory Comput., 2019, 155, 2847-2862
     DOI: 10.1021/acs.jctc.9b00143
   
   for SPH calculations refer to:
   * S. Spicher and S. Grimme, J. Chem. Theory Comput., 2021, 17, 1701-1714
     DOI: 10.1021/acs.jctc.0c01306
   
   for ONIOM refer to:
   * C. Plett, A. Katbashev, S. Ehlert, S. Grimme, M. Bursch,
     Phys. Chem. Chem. Phys., 2023, 25, 17860-17868. DOI: 10.1039/D3CP02178E
   
   for DIPRO refer to:
   * J. Kohn, N. Gildemeister, S. Grimme, D. Fazzi, A. Hansen,
     J. Chem. Phys., 2023, just accepted.
   
   for PTB refer to:
   * S. Grimme, M. Mueller, A. Hansen, J. Chem. Phys., 2023, 158, 124111.
     DOI: 10.1063/5.0137838
   
   with help from (in alphabetical order)
   P. Atkinson, C. Bannwarth, F. Bohle, G. Brandenburg, E. Caldeweyher
   M. Checinski, S. Dohm, S. Ehlert, S. Ehrlich, I. Gerasimov, C. Hölzer
   A. Katbashev, J. Kohn, J. Koopman, C. Lavigne, S. Lehtola, F. März, M. Müller,
   F. Musil, H. Neugebauer, J. Pisarek, C. Plett, P. Pracht, F. Pultar,
   J. Seibert, P. Shushkov, S. Spicher, M. Stahn, M. Steiner, T. Strunk,
   J. Stückrath, T. Rose, and J. Unsleber
   
 * started run on 2025/04/03 at 21:48:23.261     
   ID    Z sym.   atoms
    1    6 C      1, 3, 5
    2    8 O      2, 4
    3    9 F      6-8
    4    1 H      9-11

           -------------------------------------------------
          |                Calculation Setup                |
           -------------------------------------------------

          program call               : /srv/scratch/z5358697/.xtb/bin/xtb gas.coord --gfn2 --sp --chrg 0 --norestart --parallel 1
          hostname                   : k149
          coordinate file            : gas.coord
          omp threads                :                     1


           -------------------------------------------------
          |                 G F N 2 - x T B                 |
           -------------------------------------------------

        Reference                      10.1021/acs.jctc.8b01176
      * Hamiltonian:
        H0-scaling (s, p, d)           1.850000    2.230000    2.230000
        zeta-weighting                 0.500000
      * Dispersion:
        s8                             2.700000
        a1                             0.520000
        a2                             5.000000
        s9                             5.000000
      * Repulsion:
        kExp                           1.500000    1.000000
        rExp                           1.000000
      * Coulomb:
        alpha                          2.000000
        third order                    shell-resolved
        anisotropic                    true
        a3                             3.000000
        a5                             4.000000
        cn-shift                       1.200000
        cn-exp                         4.000000
        max-rad                        5.000000


          ...................................................
          :                      SETUP                      :
          :.................................................:
          :  # basis functions                  35          :
          :  # atomic orbitals                  35          :
          :  # shells                           19          :
          :  # electrons                        48          :
          :  max. iterations                   250          :
          :  Hamiltonian                  GFN2-xTB          :
          :  restarted?                      false          :
          :  GBSA solvation                  false          :
          :  PC potential                    false          :
          :  electronic temp.          300.0000000     K    :
          :  accuracy                    1.0000000          :
          :  -> integral cutoff          0.2500000E+02      :
          :  -> integral neglect         0.1000000E-07      :
          :  -> SCF convergence          0.1000000E-05 Eh   :
          :  -> wf. convergence          0.1000000E-03 e    :
          :  Broyden damping             0.4000000          :
          :  net charge                          0          :
          :  unpaired electrons                  0          :
          ...................................................

 iter      E             dE          RMSdq      gap      omega  full diag
   1    -30.3727388 -0.303727E+02  0.552E+00    5.18       0.0  T
   2    -30.4300951 -0.573563E-01  0.293E+00    4.63       1.0  T
   3    -30.4320369 -0.194180E-02  0.148E+00    4.96       1.0  T
   4    -30.4343099 -0.227293E-02  0.161E-01    4.80       1.0  T
   5    -30.4344666 -0.156758E-03  0.706E-02    4.85       1.0  T
   6    -30.4344693 -0.262965E-05  0.320E-02    4.84       1.0  T
   7    -30.4344700 -0.701252E-06  0.719E-03    4.84       4.2  T
   8    -30.4344700 -0.347142E-07  0.147E-03    4.84      20.5  T
   9    -30.4344700 -0.641167E-08  0.580E-04    4.84      52.0  T
  10    -30.4344700 -0.463803E-09  0.135E-04    4.84     223.4  T

   *** convergence criteria satisfied after 10 iterations ***

         #    Occupation            Energy/Eh            Energy/eV
      -------------------------------------------------------------
         1        2.0000           -0.8998163             -24.4852
       ...           ...                  ...                  ...
        18        2.0000           -0.5518073             -15.0154
        19        2.0000           -0.5511150             -14.9966
        20        2.0000           -0.5506089             -14.9828
        21        2.0000           -0.5406780             -14.7126
        22        2.0000           -0.5191671             -14.1273
        23        2.0000           -0.4966166             -13.5136
        24        2.0000           -0.4705588             -12.8046 (HOMO)
        25                         -0.2925793              -7.9615 (LUMO)
        26                         -0.0772059              -2.1009
        27                          0.0174547               0.4750
        28                          0.0585912               1.5943
        29                          0.0702712               1.9122
       ...                                ...                  ...
        35                          0.6246710              16.9982
      -------------------------------------------------------------
                  HL-Gap            0.1779796 Eh            4.8431 eV
             Fermi-level           -0.3815691 Eh          -10.3830 eV

 SCC (total)                   0 d,  0 h,  0 min,  0.018 sec
 SCC setup                      ...        0 min,  0.000 sec (  0.760%)
 Dispersion                     ...        0 min,  0.000 sec (  0.235%)
 classical contributions        ...        0 min,  0.000 sec (  0.073%)
 integral evaluation            ...        0 min,  0.001 sec (  4.694%)
 iterations                     ...        0 min,  0.015 sec ( 81.864%)
 molecular gradient             ...        0 min,  0.002 sec ( 11.720%)
 printout                       ...        0 min,  0.000 sec (  0.587%)

         :::::::::::::::::::::::::::::::::::::::::::::::::::::
         ::                     SUMMARY                     ::
         :::::::::::::::::::::::::::::::::::::::::::::::::::::
         :: total energy             -30.276712458485 Eh    ::
         :: gradient norm              0.029233108441 Eh/a0 ::
         :: HOMO-LUMO gap              4.843071108238 eV    ::
         ::.................................................::
         :: SCC energy               -30.434464831785 Eh    ::
         :: -> isotropic ES            0.076920855211 Eh    ::
         :: -> anisotropic ES          0.003176119982 Eh    ::
         :: -> anisotropic XC         -0.020710127034 Eh    ::
         :: -> dispersion             -0.005853181145 Eh    ::
         :: repulsion energy           0.157752373300 Eh    ::
         :: add. restraining           0.000000000000 Eh    ::
         :: total charge              -0.000000000000 e     ::
         :::::::::::::::::::::::::::::::::::::::::::::::::::::

           -------------------------------------------------
          |                Property Printout                |
           -------------------------------------------------

    * Orbital Energies and Occupations

         #    Occupation            Energy/Eh            Energy/eV
      -------------------------------------------------------------
         1        2.0000           -0.8998163             -24.4852
       ...           ...                  ...                  ...
        12        2.0000           -0.6320935             -17.2001
        13        2.0000           -0.6066020             -16.5065
        14        2.0000           -0.5865109             -15.9598
        15        2.0000           -0.5676971             -15.4478
        16        2.0000           -0.5642506             -15.3540
        17        2.0000           -0.5597331             -15.2311
        18        2.0000           -0.5518073             -15.0154
        19        2.0000           -0.5511150             -14.9966
        20        2.0000           -0.5506089             -14.9828
        21        2.0000           -0.5406780             -14.7126
        22        2.0000           -0.5191671             -14.1273
        23        2.0000           -0.4966166             -13.5136
        24        2.0000           -0.4705588             -12.8046 (HOMO)
        25                         -0.2925793              -7.9615 (LUMO)
        26                         -0.0772059              -2.1009
        27                          0.0174547               0.4750
        28                          0.0585912               1.5943
        29                          0.0702712               1.9122
        30                          0.0963257               2.6212
        31                          0.1147059               3.1213
        32                          0.1520534               4.1376
        33                          0.1650539               4.4913
        34                          0.2739737               7.4552
        35                          0.6246710              16.9982
      -------------------------------------------------------------
                  HL-Gap            0.1779796 Eh            4.8431 eV
             Fermi-level           -0.3815691 Eh          -10.3830 eV

     #   Z          covCN         q      C6AA      α(0)
     1   6 C        3.648     0.010    20.731     6.542
     2   8 O        1.703    -0.206    17.431     5.637
     3   6 C        2.711     0.346    21.121     7.523
     4   8 O        0.856    -0.350    20.714     6.102
     5   6 C        3.325     0.462    17.760     6.698
     6   9 F        0.790    -0.181    11.037     3.924
     7   9 F        0.790    -0.181    11.038     3.925
     8   9 F        0.790    -0.183    11.061     3.929
     9   1 H        0.925     0.093     1.846     2.125
    10   1 H        0.925     0.095     1.836     2.119
    11   1 H        0.925     0.094     1.838     2.120

 Mol. C6AA /au·bohr⁶  :       1288.854707
 Mol. C8AA /au·bohr⁸  :      27376.858414
 Mol. α(0) /au        :         50.642447


Wiberg/Mayer (AO) data.
largest (>0.10) Wiberg bond orders for each atom

 ---------------------------------------------------------------------------
     #   Z sym  total        # sym  WBO       # sym  WBO       # sym  WBO
 ---------------------------------------------------------------------------
     1   6 C    3.887 --    11 H    0.976    10 H    0.973     9 H    0.973
                             2 O    0.919
     2   8 O    2.391 --     3 C    1.226     1 C    0.919     4 O    0.215
     3   6 C    3.948 --     4 O    1.766     2 O    1.226     5 C    0.858
     4   8 O    2.088 --     3 C    1.766     2 O    0.215
     5   6 C    3.844 --     8 F    0.966     6 F    0.962     7 F    0.962
                             3 C    0.858
     6   9 F    1.094 --     5 C    0.962
     7   9 F    1.094 --     5 C    0.962
     8   9 F    1.094 --     5 C    0.966
     9   1 H    0.991 --     1 C    0.973
    10   1 H    0.991 --     1 C    0.973
    11   1 H    0.991 --     1 C    0.976
 ---------------------------------------------------------------------------

Topologies differ in total number of bonds
Writing topology from bond orders to xtbtopo.mol

molecular dipole:
                 x           y           z       tot (Debye)
 q only:       -1.628      -0.439      -0.425
   full:       -1.646      -0.501      -0.466       4.531
molecular quadrupole (traceless):
                xx          xy          yy          xz          yz          zz
 q only:        8.395       2.390      -5.263       2.450      -1.968      -3.132
  q+dip:        7.802       2.276      -5.442       2.174      -3.156      -2.360
   full:        7.846       2.440      -5.665       2.256      -3.605      -2.181


           -------------------------------------------------
          | TOTAL ENERGY              -30.276712458485 Eh   |
          | GRADIENT NORM               0.029233108441 Eh/α |
          | HOMO-LUMO GAP               4.843071108238 eV   |
           -------------------------------------------------

------------------------------------------------------------------------
 * finished run on 2025/04/03 at 21:48:23.393     
------------------------------------------------------------------------
 total:
 * wall-time:     0 d,  0 h,  0 min,  0.131 sec
 *  cpu-time:     0 d,  0 h,  0 min,  0.012 sec
 * ratio c/w:     0.093 speedup
 SCF:
 * wall-time:     0 d,  0 h,  0 min,  0.018 sec
 *  cpu-time:     0 d,  0 h,  0 min,  0.007 sec
 * ratio c/w:     0.371 speedup

