
                                 *****************
                                 * O   R   C   A *
                                 *****************

                                            #,                                       
                                            ###                                      
                                            ####                                     
                                            #####                                    
                                            ######                                   
                                           ########,                                 
                                     ,,################,,,,,                         
                               ,,#################################,,                 
                          ,,##########################################,,             
                       ,#########################################, ''#####,          
                    ,#############################################,,   '####,        
                  ,##################################################,,,,####,       
                ,###########''''           ''''###############################       
              ,#####''   ,,,,##########,,,,          '''####'''          '####       
            ,##' ,,,,###########################,,,                        '##       
           ' ,,###''''                  '''############,,,                           
         ,,##''                                '''############,,,,        ,,,,,,###''
      ,#''                                            '''#######################'''  
     '                                                          ''''####''''         
             ,#######,   #######,   ,#######,      ##                                
            ,#'     '#,  ##    ##  ,#'     '#,    #''#        ,####,   ,####,        
            ##       ##  ##   ,#'  ##            #'  '#       #'       #'  '#        
            ##       ##  #######   ##           ,######,      #####,   #    #        
            '#,     ,#'  ##    ##  '#,     ,#' ,#      #,     #,   #   #,  ,#        
             '#######'   ##     ##  '#######'  #'      '#     '####' # '####'        



                #########################################################
                #                        -***-                          #
                #          Department of theory and spectroscopy        #
                #                                                       #
                #                      Frank Neese                      #
                #                                                       #
                #     Directorship, Architecture, Infrastructure        #
                #                    SHARK, DRIVERS                     #
                #        Core code/Algorithms in most modules           #
                #                                                       #
                #        Max Planck Institute fuer Kohlenforschung      #
                #                Kaiser Wilhelm Platz 1                 #
                #                 D-45470 Muelheim/Ruhr                 #
                #                      Germany                          #
                #                                                       #
                #                  All rights reserved                  #
                #                        -***-                          #
                #########################################################


                         Program Version 6.0.0  -   RELEASE  -


 With contributions from (in alphabetic order):
   Daniel Aravena         : Magnetic Suceptibility
   Michael Atanasov       : Ab Initio Ligand Field Theory (pilot matlab implementation)
   Alexander A. Auer      : GIAO ZORA, VPT2 properties, NMR spectrum
   Ute Becker             : All parallelization in ORCA, NUMFREQ, NUMCALC
   Giovanni Bistoni       : ED, misc. LED, open-shell LED, HFLD
   Martin Brehm           : Molecular dynamics
   Dmytro Bykov           : pre 5.0 version of the SCF Hessian
   Marcos Casanova-Páez   : Triplet and SCS-CIS(D). UHF-(DLPNO)-IP/EA/STEOM-CCSD. UHF-CVS-IP/STEOM-CCSD
   Vijay G. Chilkuri      : MRCI spin determinant printing, contributions to CSF-ICE
   Pauline Colinet        : FMM embedding
   Dipayan Datta          : RHF DLPNO-CCSD density
   Achintya Kumar Dutta   : EOM-CC, STEOM-CC
   Nicolas Foglia         : Exact transition moments, OPA infrastructure, MCD improvements
   Dmitry Ganyushin       : Spin-Orbit,Spin-Spin,Magnetic field MRCI
   Miquel Garcia          : C-PCM and meta-GGA Hessian, CCSD/C-PCM, Gaussian charge scheme
   Tiago L. C. Gouveia    : GS-ROHF, GS-ROCIS
   Yang Guo               : DLPNO-NEVPT2, F12-NEVPT2, CIM, IAO-localization
   Andreas Hansen         : Spin unrestricted coupled pair/coupled cluster methods
   Ingolf Harden          : AUTO-CI MPn and infrastructure 
   Benjamin Helmich-Paris : MC-RPA, TRAH-(SCF,CASSCF), AVAS, COSX integrals, SCF dyn. polar.
   Lee Huntington         : MR-EOM, pCC
   Robert Izsak           : Overlap fitted RIJCOSX, COSX-SCS-MP3, EOM
   Riya Kayal             : Wick's Theorem for AUTO-CI, AUTO-CI UHF-CCSDT
   Emily Kempfer          : AUTO-CI, RHF CISDT and CCSDT
   Christian Kollmar      : KDIIS, OOCD, Brueckner-CCSD(T), CCSD density, CASPT2, CASPT2-K, improved NEVPT2
   Axel Koslowski         : Symmetry handling
   Simone Kossmann        : Meta GGA functionals, TD-DFT gradient, OOMP2, (MP2 Hessian; deprecated post 5.0)
   Lucas Lang             : DCDCAS
   Marvin Lechner         : AUTO-CI (C++ implementation), FIC-MRCC
   Spencer Leger          : CASSCF response
   Dagmar Lenk            : GEPOL surface, SMD, ORCA-2-JSON
   Dimitrios Liakos       : Extrapolation schemes; Compound Job, initial MDCI parallelization
   Dimitrios Manganas     : Further ROCIS development; embedding schemes. LFT, Crystal Embedding
   Dimitrios Pantazis     : SARC Basis sets
   Anastasios Papadopoulos: AUTO-CI, single reference methods and gradients
   Taras Petrenko         : pre 6.0 DFT Hessian and TD-DFT gradient, (ASA, deprecated), ECA, 1-Electron XAS/XES, NRVS
   Peter Pinski           : DLPNO-MP2, DLPNO-MP2 Gradient
   Christoph Reimann      : Effective Core Potentials
   Marius Retegan         : Local ZFS, SOC
   Christoph Riplinger    : Optimizer, TS searches, QM/MM, DLPNO-CCSD(T), (RO)-DLPNO pert. Triples
   Michael Roemelt        : Original ROCIS implementation
   Masaaki Saitow         : Open-shell DLPNO-CCSD energy and density
   Barbara Sandhoefer     : DKH picture change effects
   Kantharuban Sivalingam : CASSCF convergence/infrastructure, NEVPT2 and variants, FIC-MRCI
   Bernardo de Souza      : ESD, SOC TD-DFT
   Georgi Stoychev        : AutoAux, RI-MP2 NMR, DLPNO-MP2 response, X2C
   Van Anh Tran           : RI-MP2 g-tensors
   Willem Van den Heuvel  : Paramagnetic NMR
   Zikuan Wang            : NOTCH, Electric field optimization 
   Frank Wennmohs         : Technical directorship and infrastructure
   Hang Xu                : AUTO-CI-Response properties 


 We gratefully acknowledge several colleagues who have allowed us to
 interface, adapt or use parts of their codes:
   Stefan Grimme, W. Hujo, H. Kruse, P. Pracht,  : VdW corrections, initial TS optimization,
                  C. Bannwarth, S. Ehlert,         DFT functionals, gCP, sTDA/sTD-DF
                  L. Wittmann, M. Mueller
   Ed Valeev, F. Pavosevic, A. Kumar             : LibInt (2-el integral package), F12 methods
   Garnet Chan, S. Sharma, J. Yang, R. Olivares  : DMRG
   Ulf Ekstrom                                   : XCFun DFT Library
   Mihaly Kallay                                 : mrcc  (arbitrary order and MRCC methods)
   Frank Weinhold                                : gennbo (NPA and NBO analysis)
   Simon Mueller                                 : openCOSMO-RS
   Christopher J. Cramer and Donald G. Truhlar   : smd solvation model
   Lars Goerigk                                  : TD-DFT with DH, B97 family of functionals
   V. Asgeirsson, H. Jonsson                     : NEB implementation
   FAccTs GmbH                                   : IRC, NEB, NEB-TS, DLPNO-Multilevel, CI-OPT
                                                   MM, QMMM, 2- and 3-layer-ONIOM, Crystal-QMMM,
                                                   LR-CPCM, SF, NACMEs, symmetry and pop. for TD-DFT,
                                                   nearIR, NL-DFT gradient (VV10), updates on ESD,
                                                   ML-optimized integration grids, MBIS, APM,
                                                   GOAT, DOCKER, SOLVATOR, interface openCOSMO-RS
   S Lehtola, MJT Oliveira, MAL Marques          : LibXC Library
   Liviu Ungur et al                             : ANISO software


 Your calculation uses the libint2 library for the computation of 2-el integrals
 For citations please refer to: http://libint.valeyev.net

 Your ORCA version has been built with support for libXC version: 6.2.2
 For citations please refer to: https://libxc.gitlab.io

 This ORCA versions uses:
   CBLAS   interface :  Fast vector & matrix operations
   LAPACKE interface :  Fast linear algebra routines
   SCALAPACK package :  Parallel linear algebra routines
   Shared memory     :  Shared parallel matrices
   BLAS/LAPACK       :  OpenBLAS 0.3.27  USE64BITINT DYNAMIC_ARCH NO_AFFINITY SkylakeX SINGLE_THREADED
        Core in use  :  SkylakeX
   Copyright (c) 2011-2014, The OpenBLAS Project


Your calculation utilizes the geometrical counterpoise correction gCP
Please cite in your paper:
H.Kruse, S. Grimme J.Chem.Phys., 136, (2012), 154101 
   

Your calculation utilizes the atom-pairwise dispersion correction
based on EEQ partial charges (D4)


================================================================================

----- Orbital basis set information -----
Your calculation utilizes the basis: def2-mTZVPP
   Stefan Grimme, Andreas Hansen, Sebastian Ehlert, and Jan-Michael Mewes 
   J. Chem. Phys. 154, 064103 (2021). DOI: 10.1063/5.0040021

----- AuxJ basis set information -----
Your calculation utilizes the auxiliary basis: def2/J
   F. Weigend, Phys. Chem. Chem. Phys. 8, 1057 (2006).

================================================================================
                                        WARNINGS
                       Please study these warnings very carefully!
================================================================================

Using LibXC functional ID 497 : Re-regularized SCAN exchange by Furness et al
[ 1]  J. W. Furness, A. D. Kaplan, J. Ning, J. P. Perdew, and J. Sun.,  J. Phys. Chem. Lett. 11, 8208-8215 (2020)
[ 2]  J. W. Furness, A. D. Kaplan, J. Ning, J. P. Perdew, and J. Sun.,  J. Phys. Chem. Lett. 11, 9248-9248 (2020)
Using LibXC functional ID 498 : Re-regularized SCAN correlation by Furness et al
[ 1]  J. W. Furness, A. D. Kaplan, J. Ning, J. P. Perdew, and J. Sun.,  J. Phys. Chem. Lett. 11, 8208-8215 (2020)
[ 2]  J. W. Furness, A. D. Kaplan, J. Ning, J. P. Perdew, and J. Sun.,  J. Phys. Chem. Lett. 11, 9248-9248 (2020)
Using LibXC functional ID 497 : Re-regularized SCAN exchange by Furness et al
[ 1]  J. W. Furness, A. D. Kaplan, J. Ning, J. P. Perdew, and J. Sun.,  J. Phys. Chem. Lett. 11, 8208-8215 (2020)
[ 2]  J. W. Furness, A. D. Kaplan, J. Ning, J. P. Perdew, and J. Sun.,  J. Phys. Chem. Lett. 11, 9248-9248 (2020)
Using LibXC functional ID 498 : Re-regularized SCAN correlation by Furness et al
[ 1]  J. W. Furness, A. D. Kaplan, J. Ning, J. P. Perdew, and J. Sun.,  J. Phys. Chem. Lett. 11, 8208-8215 (2020)
[ 2]  J. W. Furness, A. D. Kaplan, J. Ning, J. P. Perdew, and J. Sun.,  J. Phys. Chem. Lett. 11, 9248-9248 (2020)

================================================================================
                                       INPUT FILE
================================================================================
NAME = sp_gas.inp
|  1> ! r2scan-3c def2/J RI DEFGRID2 scfconv6 printgap
|  2> %output
|  3>     printlevel normal
|  4> end
|  5> * xyz 0 1
|  6> C 2.4731079687 1.2063804233 -0.0269518402
|  7> C 1.696866865 -0.0767448689 0.002017091
|  8> O 2.2499877582 -1.1643301466 0.0258651458
|  9> C 0.2165928999 0.0231865423 0.0005863478
| 10> C -0.4836088628 1.2304688775 -0.0058272603
| 11> C -1.8671668868 1.1966776971 -0.0068376415
| 12> C -2.5029644563 -0.036859411 -0.0007894537
| 13> N -1.8528023774 -1.1926017157 0.0055031072
| 14> C -0.5344941496 -1.1567940786 0.0060845849
| 15> H 2.2136758083 1.7768800672 -0.9151740979
| 16> H 3.5363316892 0.9826044617 -0.0352504017
| 17> H 2.2343458118 1.8011898585 0.8512750542
| 18> H 0.0336237204 2.1763419644 -0.0093863998
| 19> H -2.4436916587 2.1072047212 -0.011591228
| 20> H -3.5812589684 -0.1136550518 -0.0002008648
| 21> H -0.0247152169 -2.1115198792 0.0112453893
| 22> *
| 23> 
| 24>                          ****END OF INPUT****
================================================================================

                       ****************************
                       * Single Point Calculation *
                       ****************************

---------------------------------
CARTESIAN COORDINATES (ANGSTROEM)
---------------------------------
  C      2.473108    1.206380   -0.026952
  C      1.696867   -0.076745    0.002017
  O      2.249988   -1.164330    0.025865
  C      0.216593    0.023187    0.000586
  C     -0.483609    1.230469   -0.005827
  C     -1.867167    1.196678   -0.006838
  C     -2.502964   -0.036859   -0.000789
  N     -1.852802   -1.192602    0.005503
  C     -0.534494   -1.156794    0.006085
  H      2.213676    1.776880   -0.915174
  H      3.536332    0.982604   -0.035250
  H      2.234346    1.801190    0.851275
  H      0.033624    2.176342   -0.009386
  H     -2.443692    2.107205   -0.011591
  H     -3.581259   -0.113655   -0.000201
  H     -0.024715   -2.111520    0.011245

----------------------------
CARTESIAN COORDINATES (A.U.)
----------------------------
  NO LB      ZA    FRAG     MASS         X           Y           Z
   0 C     6.0000    0    12.011    4.673497    2.279729   -0.050932
   1 C     6.0000    0    12.011    3.206614   -0.145027    0.003812
   2 O     8.0000    0    15.999    4.251861   -2.200265    0.048878
   3 C     6.0000    0    12.011    0.409301    0.043816    0.001108
   4 C     6.0000    0    12.011   -0.913888    2.325249   -0.011012
   5 C     6.0000    0    12.011   -3.528434    2.261393   -0.012921
   6 C     6.0000    0    12.011   -4.729917   -0.069654   -0.001492
   7 N     7.0000    0    14.007   -3.501289   -2.253691    0.010399
   8 C     6.0000    0    12.011   -1.010048   -2.186024    0.011498
   9 H     1.0000    0     1.008    4.183241    3.357817   -1.729428
  10 H     1.0000    0     1.008    6.682698    1.856853   -0.066614
  11 H     1.0000    0     1.008    4.222302    3.403756    1.608677
  12 H     1.0000    0     1.008    0.063540    4.112690   -0.017738
  13 H     1.0000    0     1.008   -4.617908    3.982040   -0.021904
  14 H     1.0000    0     1.008   -6.767599   -0.214777   -0.000380
  15 H     1.0000    0     1.008   -0.046705   -3.990194    0.021251

--------------------------------
INTERNAL COORDINATES (ANGSTROEM)
--------------------------------
 C      0   0   0     0.000000000000     0.00000000     0.00000000
 C      1   0   0     1.499933320362     0.00000000     0.00000000
 O      2   1   0     1.220390588493   121.88286144     0.00000000
 C      2   1   3     1.483643941693   117.30347554   180.00317340
 C      4   2   1     1.395655501814   123.97493789   359.00631752
 C      5   4   2     1.383970978929   118.71375241   179.98573733
 C      6   5   4     1.387764002638   118.66633838     0.03015932
 N      7   6   5     1.326080917605   123.37296142   359.97688849
 C      8   7   6     1.318794566442   117.80381921     0.00000000
 H      1   2   3     1.087066542864   109.95133003   121.04304484
 H      1   2   3     1.086549228957   109.29141297     0.70668479
 H      1   2   3     1.087238754744   109.80103814   240.58559771
 H      5   4   2     1.078062200951   121.21630923   359.95081760
 H      6   5   4     1.077711868180   120.94184287   179.99227654
 H      7   6   5     1.081025888547   121.34129633   179.93135174
 H      9   8   7     1.082313516712   116.54406416   180.00127010

---------------------------
INTERNAL COORDINATES (A.U.)
---------------------------
 C      0   0   0     0.000000000000     0.00000000     0.00000000
 C      1   0   0     2.834463194627     0.00000000     0.00000000
 O      2   1   0     2.306203988666   121.88286144     0.00000000
 C      2   1   3     2.803680730052   117.30347554   180.00317340
 C      4   2   1     2.637406675728   123.97493789   359.00631752
 C      5   4   2     2.615326127471   118.71375241   179.98573733
 C      6   5   4     2.622493903500   118.66633838     0.03015932
 N      7   6   5     2.505929765692   123.37296142   359.97688849
 C      8   7   6     2.492160557478   117.80381921     0.00000000
 H      1   2   3     2.054258055361   109.95133003   121.04304484
 H      1   2   3     2.053280473752   109.29141297     0.70668479
 H      1   2   3     2.054583488652   109.80103814   240.58559771
 H      5   4   2     2.037242315130   121.21630923   359.95081760
 H      6   5   4     2.036580282136   120.94184287   179.99227654
 H      7   6   5     2.042842873032   121.34129633   179.93135174
 H      9   8   7     2.045276137627   116.54406416   180.00127010

---------------------
BASIS SET INFORMATION
---------------------
There are 4 groups of distinct atoms

 Group   1 Type C   : 11s6p1d contracted to 5s3p1d pattern {62111/411/1}
 Group   2 Type O   : 11s6p2d contracted to 5s3p2d pattern {62111/411/11}
 Group   3 Type N   : 11s6p2d contracted to 5s3p2d pattern {62111/411/11}
 Group   4 Type H   : 4s1p contracted to 2s1p pattern {31/1}

Atom   0C    basis set group =>   1
Atom   1C    basis set group =>   1
Atom   2O    basis set group =>   2
Atom   3C    basis set group =>   1
Atom   4C    basis set group =>   1
Atom   5C    basis set group =>   1
Atom   6C    basis set group =>   1
Atom   7N    basis set group =>   3
Atom   8C    basis set group =>   1
Atom   9H    basis set group =>   4
Atom  10H    basis set group =>   4
Atom  11H    basis set group =>   4
Atom  12H    basis set group =>   4
Atom  13H    basis set group =>   4
Atom  14H    basis set group =>   4
Atom  15H    basis set group =>   4
---------------------------------
AUXILIARY/J BASIS SET INFORMATION
---------------------------------
There are 4 groups of distinct atoms

 Group   1 Type C   : 12s5p4d2f1g contracted to 6s4p3d1f1g pattern {711111/2111/211/2/1}
 Group   2 Type O   : 12s5p4d2f1g contracted to 6s4p3d1f1g pattern {711111/2111/211/2/1}
 Group   3 Type N   : 12s5p4d2f1g contracted to 6s4p3d1f1g pattern {711111/2111/211/2/1}
 Group   4 Type H   : 5s2p1d contracted to 3s1p1d pattern {311/2/1}

Atom   0C    basis set group =>   1
Atom   1C    basis set group =>   1
Atom   2O    basis set group =>   2
Atom   3C    basis set group =>   1
Atom   4C    basis set group =>   1
Atom   5C    basis set group =>   1
Atom   6C    basis set group =>   1
Atom   7N    basis set group =>   3
Atom   8C    basis set group =>   1
Atom   9H    basis set group =>   4
Atom  10H    basis set group =>   4
Atom  11H    basis set group =>   4
Atom  12H    basis set group =>   4
Atom  13H    basis set group =>   4
Atom  14H    basis set group =>   4
Atom  15H    basis set group =>   4

Checking for AutoStart:
The File: sp_gas.gbw exists
Trying to determine its content:
     ... Fine, the file contains calculation information
     ... Fine, the calculation information was read
     ... Fine, the file contains a basis set
     ... Fine, the basis set was read
     ... Fine, the file contains a geometry
     ... Fine, the geometry was read
     ... Fine, the file contains a set of orbitals
     ... Fine, the orbitals can be read
     => possible old guess file was deleted
     => GBW file was renamed to GES file
     => GES file is set as startup file
     => Guess is set to MORead
     ... now leaving AutoStart

------------------------------------------------------------------------------
                             ORCA STARTUP CALCULATIONS
                           -- RI-GTO INTEGRALS CHOSEN --
------------------------------------------------------------------------------
------------------------------------------------------------------------------
                   ___                                                        
                  /   \      - P O W E R E D   B Y -                         
                 /     \                                                     
                 |  |  |   _    _      __       _____    __    __             
                 |  |  |  | |  | |    /  \     |  _  \  |  |  /  |          
                  \  \/   | |  | |   /    \    | | | |  |  | /  /          
                 / \  \   | |__| |  /  /\  \   | |_| |  |  |/  /          
                |  |  |   |  __  | /  /__\  \  |    /   |      \           
                |  |  |   | |  | | |   __   |  |    \   |  |\   \          
                \     /   | |  | | |  |  |  |  | |\  \  |  | \   \       
                 \___/    |_|  |_| |__|  |__|  |_| \__\ |__|  \__/        
                                                                              
                      - O R C A' S   B I G   F R I E N D -                    
                                      &                                       
                       - I N T E G R A L  F E E D E R -                       
                                                                              
 v1 FN, 2020, v2 2021, v3 2022-2024                                           
------------------------------------------------------------------------------


----------------------
SHARK INTEGRAL PACKAGE
----------------------

Number of atoms                             ...     16
Number of basis functions                   ...    216
Number of shells                            ...    104
Maximum angular momentum                    ...      2
Integral batch strategy                     ... SHARK/LIBINT Hybrid
RI-J (if used) integral strategy            ... SPLIT-RIJ (Revised 2003 algorithm where possible)
Printlevel                                  ...      1
Contraction scheme used                     ... SEGMENTED contraction
Prescreening option                         ... SCHWARTZ
   Thresh                                   ... 1.000e-10
   Tcut                                     ... 1.000e-11
   Tpresel                                  ... 1.000e-11 
Coulomb Range Separation                    ... NOT USED
Exchange Range Separation                   ... NOT USED
Multipole approximations                    ... NOT USED
Finite Nucleus Model                        ... NOT USED
CABS basis                                  ... NOT available
Auxiliary Coulomb fitting basis             ... AVAILABLE
   # of basis functions in Aux-J            ...    518
   # of shells in Aux-J                     ...    170
   Maximum angular momentum in Aux-J        ...      4
Auxiliary J/K fitting basis                 ... NOT available
Auxiliary Correlation fitting basis         ... NOT available
Auxiliary 'external' fitting basis          ... NOT available

Checking pre-screening integrals            ... done (  0.0 sec) Dimension = 104
Check shell pair data                       ... done (  0.0 sec)
Shell pair information
Shell pair cut-off parameter TPreSel        ...   1.0e-11
Total number of shell pairs                 ...      5460
Shell pairs after pre-screening             ...      4866
Total number of primitive shell pairs       ...     20119
Primitive shell pairs kept                  ...     12700
          la=0 lb=0:   1515 shell pairs
          la=1 lb=0:   1803 shell pairs
          la=1 lb=1:    557 shell pairs
          la=2 lb=0:    581 shell pairs
          la=2 lb=1:    349 shell pairs
          la=2 lb=2:     61 shell pairs

Calculating one electron integrals          ... done (  0.0 sec)
Calculating RI/J V-Matrix + Cholesky decomp.... done (  0.1 sec)
Calculating Nuclear repulsion               ... done (  0.0 sec) ENN=    406.945726082005 Eh

Diagonalization of the overlap matrix:
Smallest eigenvalue                        ... 6.801e-05
Time for diagonalization                   ...    0.005 sec
Threshold for overlap eigenvalues          ... 1.000e-07
Number of eigenvalues below threshold      ... 0
Time for construction of square roots      ...    0.015 sec
Total time needed                          ...    0.026 sec

-------------------
DFT GRID GENERATION
-------------------

General Integration Accuracy     IntAcc      ... 4.388
Radial Grid Type                 RadialGrid  ... OptM3 with GC (2021)
Angular Grid (max. ang.)         AngularGrid ... 4 (Lebedev-302)
Angular grid pruning method      GridPruning ... 4 (adaptive)
Weight generation scheme         WeightScheme... mBecke (2022)
Basis function cutoff            BFCut       ... 1.0000e-10
Integration weight cutoff        WCut        ... 1.0000e-14
Partially contracted basis set               ... off
Rotationally invariant grid construction     ... off
Angular grids for H and He will be reduced by one unit
Diffuse basis detected: some atoms will have their outermost
                        angular grid increased by 1.

Total number of grid points                  ...    76993
Total number of batches                      ...     1212
Average number of points per batch           ...       63
Average number of grid points per atom       ...     4812
Initializing property integral containers    ... done (  0.0 sec)

SHARK setup successfully completed in   1.0 seconds

Maximum memory used throughout the entire STARTUP-calculation: 35.7 MB
-------------------------------------------------------------------------------
                                 ORCA GUESS
                   Start orbitals & Density for SCF / CASSCF
-------------------------------------------------------------------------------

------------
SCF SETTINGS
------------
Hamiltonian:
 Density Functional     Method          .... DFT(GTOs)
  Functional kind                       .... Exchange
  Functional name                       .... Re-regularized SCAN exchange by Furness et al
  Functional family                     .... MGGA
  Functional refs                              
    [ 0] J. W. Furness, A. D. Kaplan, J. Ning, J. P. Perdew, and J. Sun.,  J. Phys. Chem. Lett. 11, 8208-8215 (2020), doi: 10.1021/acs.jpclett.0c02405
    [ 1] J. W. Furness, A. D. Kaplan, J. Ning, J. P. Perdew, and J. Sun.,  J. Phys. Chem. Lett. 11, 9248-9248 (2020), doi: 10.1021/acs.jpclett.0c03077
  Functional external parameters        .... 6
    Parameter  0 _c1        =  6.670000e-01 : c1 parameter        
    Parameter  1 _c2        =  8.000000e-01 : c2 parameter        
    Parameter  2 _d         =  1.240000e+00 : d parameter         
    Parameter  3 _k1        =  6.500000e-02 : k1 parameter        
    Parameter  4 _eta       =  1.000000e-03 : eta parameter       
    Parameter  5 _dp2       =  3.610000e-01 : dp2 parameter       
  Functional kind                       .... Correlation
  Functional name                       .... Re-regularized SCAN correlation by Furness et al
  Functional family                     .... MGGA
  Functional refs                              
    [ 0] J. W. Furness, A. D. Kaplan, J. Ning, J. P. Perdew, and J. Sun.,  J. Phys. Chem. Lett. 11, 8208-8215 (2020), doi: 10.1021/acs.jpclett.0c02405
    [ 1] J. W. Furness, A. D. Kaplan, J. Ning, J. P. Perdew, and J. Sun.,  J. Phys. Chem. Lett. 11, 9248-9248 (2020), doi: 10.1021/acs.jpclett.0c03077
  Functional external parameters        .... 1
    Parameter  0 _eta       =  1.000000e-03 : Regularization parameter
 Gradients option       PostSCFGGA      .... off
 RI-approximation to the Coulomb term is turned on
   Number of AuxJ basis functions       .... 518


General Settings:
 Integral files         IntName         .... sp_gas
 Hartree-Fock type      HFTyp           .... RHF
 Total Charge           Charge          ....    0
 Multiplicity           Mult            ....    1
 Number of Electrons    NEL             ....   64
 Basis Dimension        Dim             ....  216
 Nuclear Repulsion      ENuc            ....    406.9457260820 Eh

Convergence Acceleration:
 AO-DIIS                CNVDIIS         .... on
   Start iteration      DIISMaxIt       ....    12
   Startup error        DIISStart       ....  0.200000
   # of expansion vecs  DIISMaxEq       ....     5
   Bias factor          DIISBfac        ....   1.050
   Max. coefficient     DIISMaxC        ....  10.000
 MO-DIIS                CNVKDIIS        .... off
 Trust-Rad. Augm. Hess. CNVTRAH         .... auto
   Auto Start mean grad. ratio tolernc. ....  1.125000
   Auto Start start iteration           ....     1
   Auto Start num. interpolation iter.  ....    10
   Max. Number of Micro iterations      ....    24
   Max. Number of Macro iterations      .... Maxiter - #DIIS iter
   Number of Davidson start vectors     ....     2
   Converg. threshold    (grad. norm)   ....   3.330e-04
   Grad. Scal. Fac. for Micro threshold ....   0.100
   Minimum threshold for Micro iter.    ....   1.000e-02
   NR start threshold (gradient norm)   ....   1.000e-04
   Initial trust radius                 ....   0.400
   Minimum AH scaling param. (alpha)    ....   1.000
   Maximum AH scaling param. (alpha)    .... 1000.000
   Quad. conv. algorithm                .... NR
   White noise on init. David. guess    .... on
   Maximum white noise                  ....   0.010
   Pseudo random numbers                .... off
   Inactive MOs                         .... canonical
   Orbital update algorithm             .... Taylor
   Preconditioner                       .... Diag
   Full preconditioner red. dimension   ....   250
   COSX micro iterations for RIJONX calc.... off
 SOSCF                  CNVSOSCF        .... on
   Start iteration      SOSCFMaxIt      ....   150
   Startup grad/error   SOSCFStart      ....  0.003300
   Hessian update       SOSCFHessUp     .... L-BFGS
 Level Shifting         CNVShift        .... on
   Level shift para.    LevelShift      ....    0.2500
   Turn off err/grad.   ShiftErr        ....    0.0010
 Zerner damping         CNVZerner       .... off
 Static damping         CNVDamp         .... on
   Fraction old density DampFac         ....    0.7000
   Max. Damping (<1)    DampMax         ....    0.9800
   Min. Damping (>=0)   DampMin         ....    0.0000
   Turn off err/grad.   DampErr         ....    0.1000

SCF Procedure:
 Maximum # iterations   MaxIter         ....   125
 SCF integral mode      SCFMode         .... Direct
   Integral package                     .... SHARK and LIBINT hybrid scheme
 Reset frequency        DirectResetFreq ....    20
 Integral Threshold     Thresh          ....  1.000e-10 Eh
 Primitive CutOff       TCut            ....  1.000e-11 Eh

Convergence Tolerance:
 Convergence Check Mode ConvCheckMode   .... Total+1el-Energy
 Convergence forced     ConvForced      .... 0
 Energy Change          TolE            ....  1.000e-06 Eh
 1-El. energy change                    ....  1.000e-03 Eh
 Orbital Gradient       TolG            ....  3.330e-04
 Orbital Rotation angle TolX            ....  3.330e-04
 DIIS Error             TolErr          ....  1.000e-06

---------------------
INITIAL GUESS: MOREAD
---------------------
Guess MOs are being read from file: sp_gas.ges
Input Geometry matches current geometry (good)
Atom 0: N(Shells)= 9 and 6 - projection required
Input basis set needs projection
NBasis(read)= 140
NBasis(calc)= 216
Basis set overlap was calculated
Using GuessMode=FMatrix for the initial guess
C*T matrix was formed
Effective Fockian was calculated
Effective Fockian was diagonalized
Initial density was built
                      ------------------
                      INITIAL GUESS DONE (   0.0 sec)
                      ------------------
             **** ENERGY FILE WAS UPDATED (sp_gas.en.tmp) ****
Finished Guess after   0.2 sec
Maximum memory used throughout the entire GUESS-calculation: 15.0 MB

-------------------------------------------------------------------------------------------
                                      ORCA LEAN-SCF
                              memory conserving SCF solver
-------------------------------------------------------------------------------------------

----------------------------------------D-I-I-S--------------------------------------------
Iteration    Energy (Eh)           Delta-E    RMSDP     MaxDP     DIISErr   Damp  Time(sec)
-------------------------------------------------------------------------------------------
               ***  Starting incremental Fock matrix formation  ***
    1    -400.6502679711234691     0.00e+00  6.25e-03  2.07e-01  6.25e-01  0.700   2.3
    2    -400.7049238506194229    -5.47e-02  5.00e-03  1.74e-01  4.39e-01  0.700   2.1
    3    -400.7435131609066161    -3.86e-02  3.67e-03  1.29e-01  3.08e-01  0.700   2.1
    4    -400.7705985513060227    -2.71e-02  2.64e-03  9.30e-02  2.16e-01  0.700   2.1
                               ***Turning on AO-DIIS***
    5    -400.7895925434450533    -1.90e-02  1.90e-03  6.77e-02  1.51e-01  0.700   2.0
    6    -400.8029042584892636    -1.33e-02  1.35e-03  4.82e-02  1.05e-01  0.700   2.0
    7    -400.8122342872152899    -9.33e-03  9.51e-04  3.41e-02  7.39e-02  0.700   1.9
    8    -400.8187703082220992    -6.54e-03  2.23e-03  8.02e-02  5.18e-02  0.000   1.9
                              *** Initializing SOSCF ***
---------------------------------------S-O-S-C-F--------------------------------------
Iteration    Energy (Eh)           Delta-E    RMSDP     MaxDP     MaxGrad    Time(sec)
--------------------------------------------------------------------------------------
    9    -400.8340383781531386    -1.53e-02  1.19e-05  3.49e-04  2.36e-04     2.0
               *** Restarting incremental Fock matrix formation ***
   10    -400.8340383048540048     7.33e-08  3.27e-05  1.84e-03  1.23e-04     2.3
   11    -400.8340370749345425     1.23e-06  1.99e-05  1.02e-03  3.70e-04     1.7
   12    -400.8340385038948739    -1.43e-06  2.46e-06  7.03e-05  1.10e-05     1.7
                  *** Gradient check signals convergence ***

               *****************************************************
               *                     SUCCESS                       *
               *           SCF CONVERGED AFTER  12 CYCLES          *
               *****************************************************

             **** ENERGY FILE WAS UPDATED (sp_gas.en.tmp) ****

----------------
TOTAL SCF ENERGY
----------------

Total Energy       :       -400.83403850389487 Eh          -10907.24870 eV

Components:
Nuclear Repulsion  :        406.94572608200502 Eh           11073.55618 eV
Electronic Energy  :       -807.77976458589990 Eh          -21980.80488 eV
One Electron Energy:      -1348.66715209529320 Eh          -36699.09895 eV
Two Electron Energy:        540.88738750939331 Eh           14718.29408 eV

Virial components:
Potential Energy   :       -800.14309023080773 Eh          -21773.00040 eV
Kinetic Energy     :        399.30905172691286 Eh           10865.75170 eV
Virial Ratio       :          2.00381906388144

DFT components:
N(Alpha)           :       32.000003221565 electrons
N(Beta)            :       32.000003221565 electrons
N(Total)           :       64.000006443131 electrons
E(X)               :      -53.873668796348 Eh       
E(C)               :       -2.078610982053 Eh       
E(XC)              :      -55.952279778401 Eh       

---------------
SCF CONVERGENCE
---------------

  Last Energy change         ...    1.4290e-06  Tolerance :   1.0000e-06
  Last MAX-Density change    ...    7.0264e-05  Tolerance :   1.0000e-05
  Last RMS-Density change    ...    2.4568e-06  Tolerance :   1.0000e-06
  Last DIIS Error            ...    2.3566e-04  Tolerance :   1.0000e-06
  Last Orbital Gradient      ...    1.1043e-05  Tolerance :   3.3300e-04
  Last Orbital Rotation      ...    6.4599e-05  Tolerance :   3.3300e-04


----------------
ORBITAL ENERGIES
----------------

  NO   OCC          E(Eh)            E(eV) 
   0   2.0000     -18.944830      -515.5150 
   1   2.0000     -14.167953      -385.5296 
   2   2.0000     -10.131661      -275.6965 
   3   2.0000     -10.084554      -274.4147 
   4   2.0000     -10.080141      -274.2946 
   5   2.0000     -10.074358      -274.1372 
   6   2.0000     -10.063359      -273.8379 
   7   2.0000     -10.060836      -273.7693 
   8   2.0000     -10.043620      -273.3008 
   9   2.0000      -1.011653       -27.5285 
  10   2.0000      -0.929975       -25.3059 
  11   2.0000      -0.800488       -21.7824 
  12   2.0000      -0.756119       -20.5751 
  13   2.0000      -0.721332       -19.6284 
  14   2.0000      -0.632148       -17.2016 
  15   2.0000      -0.613376       -16.6908 
  16   2.0000      -0.540431       -14.7059 
  17   2.0000      -0.502503       -13.6738 
  18   2.0000      -0.473309       -12.8794 
  19   2.0000      -0.445342       -12.1184 
  20   2.0000      -0.432156       -11.7596 
  21   2.0000      -0.424080       -11.5398 
  22   2.0000      -0.400757       -10.9051 
  23   2.0000      -0.390895       -10.6368 
  24   2.0000      -0.388425       -10.5696 
  25   2.0000      -0.373868       -10.1735 
  26   2.0000      -0.348823        -9.4920 
  27   2.0000      -0.344414        -9.3720 
  28   2.0000      -0.289002        -7.8641 
  29   2.0000      -0.261067        -7.1040 
  30   2.0000      -0.243448        -6.6245 
  31   2.0000      -0.220964        -6.0127 
  32   0.0000      -0.101052        -2.7498 
  33   0.0000      -0.065138        -1.7725 
  34   0.0000      -0.006680        -0.1818 
  35   0.0000       0.065052         1.7701 
  36   0.0000       0.098332         2.6758 
  37   0.0000       0.106403         2.8954 
  38   0.0000       0.109612         2.9827 
  39   0.0000       0.122344         3.3292 
  40   0.0000       0.127411         3.4670 
  41   0.0000       0.132057         3.5935 
  42   0.0000       0.144575         3.9341 
*Only the first 10 virtual orbitals were printed.

                    ********************************
                    * MULLIKEN POPULATION ANALYSIS *
                    ********************************

-----------------------
MULLIKEN ATOMIC CHARGES
-----------------------
   0 C :   -0.558915
   1 C :    0.246410
   2 O :   -0.342732
   3 C :    0.204997
   4 C :   -0.163519
   5 C :   -0.122382
   6 C :   -0.063621
   7 N :   -0.173774
   8 C :   -0.164396
   9 H :    0.170427
  10 H :    0.185746
  11 H :    0.169949
  12 H :    0.152185
  13 H :    0.151447
  14 H :    0.137371
  15 H :    0.170806
Sum of atomic charges:   -0.0000000

--------------------------------
MULLIKEN REDUCED ORBITAL CHARGES
--------------------------------
  0 C s       :     3.372384  s :     3.372384
      pz      :     1.054198  p :     3.161845
      px      :     1.108221
      py      :     0.999425
      dz2     :     0.004881  d :     0.024686
      dxz     :     0.001856
      dyz     :     0.005892
      dx2y2   :     0.005890
      dxy     :     0.006167

  1 C s       :     3.193837  s :     3.193837
      pz      :     0.751464  p :     2.467044
      px      :     0.932384
      py      :     0.783196
      dz2     :     0.004405  d :     0.092709
      dxz     :     0.007655
      dyz     :     0.014760
      dx2y2   :     0.037041
      dxy     :     0.028848

  2 O s       :     3.847455  s :     3.847455
      pz      :     1.348302  p :     4.471739
      px      :     1.727645
      py      :     1.395792
      dz2     :     0.003094  d :     0.023538
      dxz     :     0.004664
      dyz     :     0.009042
      dx2y2   :     0.002084
      dxy     :     0.004654

  3 C s       :     3.069296  s :     3.069296
      pz      :     1.012325  p :     2.682101
      px      :     0.764620
      py      :     0.905156
      dz2     :     0.003825  d :     0.043606
      dxz     :     0.003921
      dyz     :     0.005720
      dx2y2   :     0.015261
      dxy     :     0.014878

  4 C s       :     3.189056  s :     3.189056
      pz      :     0.940358  p :     2.936665
      px      :     0.966396
      py      :     1.029912
      dz2     :     0.003247  d :     0.037798
      dxz     :     0.005956
      dyz     :     0.003357
      dx2y2   :     0.011910
      dxy     :     0.013327

  5 C s       :     3.158387  s :     3.158387
      pz      :     0.997077  p :     2.927768
      px      :     0.933490
      py      :     0.997201
      dz2     :     0.003330  d :     0.036228
      dxz     :     0.004801
      dyz     :     0.003193
      dx2y2   :     0.011994
      dxy     :     0.012909

  6 C s       :     3.234061  s :     3.234061
      pz      :     0.886115  p :     2.774659
      px      :     0.996626
      py      :     0.891918
      dz2     :     0.003832  d :     0.054901
      dxz     :     0.002871
      dyz     :     0.008936
      dx2y2   :     0.022682
      dxy     :     0.016581

  7 N s       :     3.457773  s :     3.457773
      pz      :     1.146877  p :     3.648099
      px      :     1.096903
      py      :     1.404319
      dz2     :     0.004911  d :     0.067901
      dxz     :     0.008643
      dyz     :     0.015026
      dx2y2   :     0.021101
      dxy     :     0.018221

  8 C s       :     3.323303  s :     3.323303
      pz      :     0.847690  p :     2.786386
      px      :     0.943952
      py      :     0.994743
      dz2     :     0.003840  d :     0.054707
      dxz     :     0.008521
      dyz     :     0.003232
      dx2y2   :     0.016122
      dxy     :     0.022992

  9 H s       :     0.810981  s :     0.810981
      pz      :     0.008607  p :     0.018592
      px      :     0.003965
      py      :     0.006021

 10 H s       :     0.796301  s :     0.796301
      pz      :     0.003403  p :     0.017952
      px      :     0.010997
      py      :     0.003553

 11 H s       :     0.811450  s :     0.811450
      pz      :     0.008478  p :     0.018601
      px      :     0.003921
      py      :     0.006202

 12 H s       :     0.827944  s :     0.827944
      pz      :     0.003826  p :     0.019871
      px      :     0.005576
      py      :     0.010469

 13 H s       :     0.828878  s :     0.828878
      pz      :     0.004108  p :     0.019674
      px      :     0.005749
      py      :     0.009817

 14 H s       :     0.843550  s :     0.843550
      pz      :     0.003535  p :     0.019080
      px      :     0.012900
      py      :     0.002645

 15 H s       :     0.809752  s :     0.809752
      pz      :     0.003216  p :     0.019442
      px      :     0.005504
      py      :     0.010722


------------------------
MULLIKEN OVERLAP CHARGES
------------------------
B(  0-C ,  1-C ) :   0.4407 B(  0-C ,  2-O ) :  -0.1397 B(  0-C ,  3-C ) :  -0.2753 
B(  0-C ,  9-H ) :   0.8181 B(  0-C , 10-H ) :   0.8231 B(  0-C , 11-H ) :   0.8087 
B(  1-C ,  2-O ) :   1.1863 B(  1-C ,  3-C ) :  -0.4305 B(  1-C ,  9-H ) :  -0.0931 
B(  1-C , 10-H ) :  -0.0725 B(  1-C , 11-H ) :  -0.0791 B(  2-O ,  3-C ) :  -0.4489 
B(  2-O ,  8-C ) :   0.0990 B(  3-C ,  4-C ) :   0.5600 B(  3-C ,  5-C ) :   0.0570 
B(  3-C ,  6-C ) :  -0.1383 B(  3-C ,  7-N ) :  -0.1159 B(  3-C ,  8-C ) :   0.4421 
B(  3-C , 12-H ) :  -0.0526 B(  3-C , 15-H ) :  -0.1782 B(  4-C ,  5-C ) :   0.6903 
B(  4-C ,  6-C ) :  -0.0629 B(  4-C ,  8-C ) :  -0.1193 B(  4-C , 12-H ) :   0.7809 
B(  4-C , 13-H ) :  -0.0609 B(  5-C ,  6-C ) :   0.7299 B(  5-C ,  7-N ) :  -0.1387 
B(  5-C ,  8-C ) :  -0.1449 B(  5-C , 12-H ) :  -0.0531 B(  5-C , 13-H ) :   0.7776 
B(  5-C , 14-H ) :  -0.1746 B(  6-C ,  7-N ) :   0.9421 B(  6-C ,  8-C ) :  -0.1820 
B(  6-C , 14-H ) :   0.9166 B(  7-N ,  8-C ) :   0.8873 B(  7-N , 14-H ) :  -0.1092 
B(  7-N , 15-H ) :  -0.1159 B(  8-C , 15-H ) :   0.9526 B(  9-H , 11-H ) :  -0.0555 



                     *******************************
                     * LOEWDIN POPULATION ANALYSIS *
                     *******************************

----------------------
LOEWDIN ATOMIC CHARGES
----------------------
   0 C :   -0.381252
   1 C :    0.238652
   2 O :   -0.464108
   3 C :   -0.060872
   4 C :   -0.100725
   5 C :   -0.143523
   6 C :    0.099632
   7 N :   -0.600650
   8 C :    0.142341
   9 H :    0.174018
  10 H :    0.178765
  11 H :    0.174474
  12 H :    0.175413
  13 H :    0.172141
  14 H :    0.187397
  15 H :    0.208297

-------------------------------
LOEWDIN REDUCED ORBITAL CHARGES
-------------------------------
  0 C s       :     2.963847  s :     2.963847
      pz      :     1.137786  p :     3.359630
      px      :     1.141994
      py      :     1.079850
      dz2     :     0.011734  d :     0.057774
      dxz     :     0.003693
      dyz     :     0.014996
      dx2y2   :     0.013869
      dxy     :     0.013481

  1 C s       :     2.810057  s :     2.810057
      pz      :     0.721275  p :     2.752014
      px      :     1.005024
      py      :     1.025715
      dz2     :     0.011947  d :     0.199278
      dxz     :     0.013100
      dyz     :     0.024570
      dx2y2   :     0.083044
      dxy     :     0.066617

  2 O s       :     3.562122  s :     3.562122
      pz      :     1.345708  p :     4.660483
      px      :     1.742557
      py      :     1.572217
      dz2     :     0.030557  d :     0.241503
      dxz     :     0.015788
      dyz     :     0.031093
      dx2y2   :     0.083041
      dxy     :     0.081023

  3 C s       :     2.861875  s :     2.861875
      pz      :     0.983992  p :     3.107152
      px      :     1.029241
      py      :     1.093918
      dz2     :     0.007583  d :     0.091845
      dxz     :     0.006112
      dyz     :     0.010288
      dx2y2   :     0.034605
      dxy     :     0.033257

  4 C s       :     2.899096  s :     2.899096
      pz      :     0.925033  p :     3.119896
      px      :     1.100101
      py      :     1.094762
      dz2     :     0.005477  d :     0.081733
      dxz     :     0.010638
      dyz     :     0.005584
      dx2y2   :     0.028484
      dxy     :     0.031552

  5 C s       :     2.904384  s :     2.904384
      pz      :     0.978938  p :     3.159868
      px      :     1.097614
      py      :     1.083315
      dz2     :     0.005784  d :     0.079270
      dxz     :     0.008590
      dyz     :     0.005054
      dx2y2   :     0.028456
      dxy     :     0.031386

  6 C s       :     2.834285  s :     2.834285
      pz      :     0.845730  p :     2.942585
      px      :     1.054780
      py      :     1.042075
      dz2     :     0.007983  d :     0.123499
      dxz     :     0.003995
      dyz     :     0.017502
      dx2y2   :     0.056445
      dxy     :     0.037573

  7 N s       :     3.235205  s :     3.235205
      pz      :     1.116796  p :     3.895846
      px      :     1.299053
      py      :     1.479996
      dz2     :     0.051233  d :     0.469599
      dxz     :     0.073314
      dyz     :     0.045547
      dx2y2   :     0.142550
      dxy     :     0.156954

  8 C s       :     2.826409  s :     2.826409
      pz      :     0.820531  p :     2.908341
      px      :     1.030572
      py      :     1.057238
      dz2     :     0.007987  d :     0.122909
      dxz     :     0.015446
      dyz     :     0.005717
      dx2y2   :     0.037149
      dxy     :     0.056610

  9 H s       :     0.780887  s :     0.780887
      pz      :     0.021544  p :     0.045095
      px      :     0.009222
      py      :     0.014328

 10 H s       :     0.777841  s :     0.777841
      pz      :     0.007373  p :     0.043394
      px      :     0.028109
      py      :     0.007912

 11 H s       :     0.780429  s :     0.780429
      pz      :     0.021223  p :     0.045097
      px      :     0.009085
      py      :     0.014789

 12 H s       :     0.778968  s :     0.778968
      pz      :     0.008220  p :     0.045619
      px      :     0.012722
      py      :     0.024677

 13 H s       :     0.782059  s :     0.782059
      pz      :     0.009070  p :     0.045800
      px      :     0.013431
      py      :     0.023299

 14 H s       :     0.771650  s :     0.771650
      pz      :     0.007372  p :     0.040953
      px      :     0.027678
      py      :     0.005903

 15 H s       :     0.749255  s :     0.749255
      pz      :     0.006749  p :     0.042448
      px      :     0.010660
      py      :     0.025039


---------------------------------
LOEWDIN BOND ORDERS (THRESH 0.050000)
---------------------------------
B(  0-C ,  1-C ) :   1.0369 B(  0-C ,  2-O ) :   0.2120 B(  0-C ,  3-C ) :   0.0847 
B(  0-C ,  9-H ) :   0.9001 B(  0-C , 10-H ) :   0.9075 B(  0-C , 11-H ) :   0.8994 
B(  1-C ,  2-O ) :   2.3186 B(  1-C ,  3-C ) :   0.9831 B(  1-C ,  4-C ) :   0.0851 
B(  1-C ,  8-C ) :   0.0914 B(  2-O ,  3-C ) :   0.2094 B(  2-O ,  4-C ) :   0.0517 
B(  2-O ,  8-C ) :   0.0779 B(  3-C ,  4-C ) :   1.4094 B(  3-C ,  5-C ) :   0.0919 
B(  3-C ,  6-C ) :   0.1196 B(  3-C ,  7-N ) :   0.2059 B(  3-C ,  8-C ) :   1.2799 
B(  3-C , 12-H ) :   0.0512 B(  4-C ,  5-C ) :   1.5072 B(  4-C ,  6-C ) :   0.0927 
B(  4-C ,  7-N ) :   0.1303 B(  4-C ,  8-C ) :   0.0812 B(  4-C , 12-H ) :   0.8609 
B(  4-C , 13-H ) :   0.0549 B(  5-C ,  6-C ) :   1.3931 B(  5-C ,  7-N ) :   0.2135 
B(  5-C ,  8-C ) :   0.1247 B(  5-C , 12-H ) :   0.0533 B(  5-C , 13-H ) :   0.8689 
B(  5-C , 14-H ) :   0.0524 B(  6-C ,  7-N ) :   1.7921 B(  6-C ,  8-C ) :   0.1092 
B(  6-C , 13-H ) :   0.0574 B(  6-C , 14-H ) :   0.8070 B(  7-N ,  8-C ) :   1.8424 
B(  7-N , 14-H ) :   0.1151 B(  7-N , 15-H ) :   0.1146 B(  8-C , 15-H ) :   0.7819 


------------------------------------------
LOEWDIN REDUCED ORBITAL POPULATIONS PER MO
-------------------------------------------
THRESHOLD FOR PRINTING IS 0.1%%
                      0         1         2         3         4         5   
                 -18.94483 -14.16795 -10.13166 -10.08455 -10.08014 -10.07436
                   2.00000   2.00000   2.00000   2.00000   2.00000   2.00000
                  --------  --------  --------  --------  --------  --------
 1 C  s               0.0       0.0      99.2       0.0       0.0       0.0
 2 O  s              99.9       0.0       0.0       0.0       0.0       0.0
 2 O  py              0.0       0.0       0.2       0.0       0.0       0.0
 2 O  dxy             0.0       0.0       0.2       0.0       0.0       0.0
 3 C  py              0.0       0.0       0.0       0.0       0.1       0.1
 4 C  s               0.0       0.0       0.0       0.0       0.0      99.5
 5 C  px              0.0       0.0       0.0       0.0       0.0       0.1
 6 C  s               0.0       0.0       0.0      99.3       0.0       0.0
 7 N  s               0.0      99.8       0.0       0.0       0.0       0.0
 7 N  px              0.0       0.0       0.0       0.0       0.2       0.0
 7 N  py              0.0       0.0       0.0       0.1       0.0       0.0
 7 N  dx2y2           0.0       0.0       0.0       0.1       0.2       0.0
 7 N  dxy             0.0       0.0       0.0       0.2       0.0       0.0
 8 C  s               0.0       0.0       0.0       0.0      99.2       0.0

                      6         7         8         9        10        11   
                 -10.06336 -10.06084 -10.04362  -1.01165  -0.92998  -0.80049
                   2.00000   2.00000   2.00000   2.00000   2.00000   2.00000
                  --------  --------  --------  --------  --------  --------
 0 C  s               0.0       0.0      99.7       1.2       0.0       1.9
 0 C  px              0.0       0.0       0.0       0.2       0.0       0.6
 0 C  py              0.0       0.0       0.0       1.7       0.0       0.1
 1 C  s               0.0       0.0       0.0      17.8       0.1       2.2
 1 C  px              0.1       0.0       0.0       2.4       0.6       3.2
 1 C  py              0.0       0.0       0.1      10.0       0.1       2.5
 1 C  dz2             0.0       0.0       0.0       0.5       0.0       0.0
 1 C  dx2y2           0.0       0.0       0.0       0.4       0.0       0.1
 1 C  dxy             0.0       0.0       0.0       0.7       0.0       0.0
 2 O  s               0.0       0.0       0.0      52.7       0.3       1.5
 2 O  px              0.0       0.0       0.0       1.4       0.0       0.1
 2 O  py              0.0       0.0       0.0       5.0       0.0       0.2
 2 O  dz2             0.0       0.0       0.0       0.2       0.0       0.1
 2 O  dx2y2           0.0       0.0       0.0       0.2       0.0       0.0
 2 O  dxy             0.0       0.0       0.0       0.3       0.0       0.2
 3 C  s              99.5       0.0       0.0       1.5       3.5      16.1
 3 C  px              0.0       0.0       0.0       1.9       2.3       0.2
 3 C  py              0.0       0.0       0.0       0.2       0.3       3.6
 3 C  dz2             0.0       0.0       0.0       0.0       0.0       0.2
 4 C  s               0.1       0.1       0.0       0.1       2.5      22.6
 4 C  px              0.0       0.1       0.0       0.1       0.4       0.1
 4 C  py              0.1       0.0       0.0       0.1       1.1       1.3
 4 C  dz2             0.0       0.0       0.0       0.0       0.0       0.2
 5 C  s               0.0      99.5       0.0       0.0       3.9       8.7
 5 C  px              0.0       0.0       0.0       0.0       0.0       4.2
 5 C  py              0.0       0.0       0.0       0.0       2.4       0.1
 5 C  dx2y2           0.0       0.0       0.0       0.0       0.0       0.1
 6 C  s               0.0       0.0       0.0       0.0      13.2       0.2
 6 C  px              0.0       0.0       0.0       0.0       3.8       0.3
 6 C  py              0.0       0.1       0.0       0.0       2.6       5.9
 6 C  dz2             0.0       0.0       0.0       0.0       0.2       0.0
 6 C  dxy             0.0       0.0       0.0       0.0       0.2       0.3
 7 N  s               0.0       0.0       0.0       0.1      34.1       8.0
 7 N  px              0.0       0.0       0.0       0.0       1.1       0.1
 7 N  py              0.0       0.0       0.0       0.0       3.4       0.3
 7 N  dz2             0.0       0.0       0.0       0.0       0.7       0.1
 7 N  dxy             0.0       0.0       0.0       0.0       0.1       0.3
 8 C  s               0.0       0.0       0.0       0.3      12.8       0.1
 8 C  px              0.0       0.0       0.0       0.4       6.2       5.1
 8 C  py              0.1       0.0       0.0       0.1       0.7       3.0
 8 C  dz2             0.0       0.0       0.0       0.0       0.2       0.0
 8 C  dx2y2           0.0       0.0       0.0       0.0       0.3       0.3
 9 H  s               0.0       0.0       0.0       0.1       0.0       0.3
10 H  s               0.0       0.0       0.0       0.1       0.0       0.2
11 H  s               0.0       0.0       0.0       0.1       0.0       0.3
12 H  s               0.0       0.0       0.0       0.0       0.2       3.0
12 H  py              0.0       0.0       0.0       0.0       0.0       0.2
13 H  s               0.0       0.0       0.0       0.0       0.3       1.1
14 H  s               0.0       0.0       0.0       0.0       0.9       0.0
15 H  s               0.0       0.0       0.0       0.0       0.8       0.0

                     12        13        14        15        16        17   
                  -0.75612  -0.72133  -0.63215  -0.61338  -0.54043  -0.50250
                   2.00000   2.00000   2.00000   2.00000   2.00000   2.00000
                  --------  --------  --------  --------  --------  --------
 0 C  s               3.4      32.1       3.2       1.2       2.6       0.7
 0 C  px              0.3       0.2       0.7       0.4       4.3       0.6
 0 C  py              0.1       0.1       0.5       0.0       2.7       6.1
 0 C  dxy             0.0       0.0       0.0       0.0       0.1       0.1
 1 C  s               2.4       4.0       2.1       0.0       6.6       3.6
 1 C  px              2.0       3.0       8.4       0.0       3.9       0.3
 1 C  py              2.5      11.7       0.1       0.1       0.8       1.2
 1 C  dx2y2           0.1       0.0       0.2       0.0       0.0       0.0
 1 C  dxy             0.1       0.3       0.0       0.1       0.0       0.0
 2 O  s               2.1       1.5       1.2       0.3       2.7       1.8
 2 O  px              0.2       0.1       1.2       0.1       2.1       0.0
 2 O  py              0.3       1.0       0.2       0.0       2.1       5.1
 2 O  dz2             0.2       0.1       0.1       0.1       0.1       0.0
 2 O  dx2y2           0.0       1.0       0.1       0.0       0.0       0.6
 2 O  dxy             0.2       0.0       0.7       0.0       0.8       0.2
 3 C  s               7.4       2.0       6.5       0.1       0.7       0.1
 3 C  px              0.7       3.2       4.4       0.0      17.6       0.1
 3 C  py              2.2       0.9       0.7      15.1       0.2       0.5
 3 C  dx2y2           0.0       0.1       0.0       0.0       0.2       0.4
 3 C  dxy             0.1       0.0       0.0       0.2       0.0       0.0
 4 C  s               1.7       1.0       4.4       8.5       0.2       2.0
 4 C  px              7.9       0.0       2.7       6.2       0.0       3.7
 4 C  py              1.3       0.4       3.3       0.4      10.1       7.6
 4 C  dx2y2           0.2       0.0       0.0       0.1       0.2       0.1
 5 C  s              18.3       0.1       1.2       7.4       2.2       0.9
 5 C  px              0.3       1.2       5.9       7.3       0.6       0.4
 5 C  py              0.6       0.3       3.8       0.1       7.8       2.2
 5 C  dz2             0.1       0.0       0.0       0.0       0.0       0.0
 5 C  dx2y2           0.0       0.0       0.2       0.1       0.0       0.0
 6 C  s              10.2       3.1       9.1       0.4       0.4       2.2
 6 C  px              0.1       0.2       2.3       0.1       0.3      13.4
 6 C  py              3.9       0.2       0.2      14.5       0.0       1.2
 6 C  dxy             0.1       0.0       0.0       0.3       0.0       0.0
 7 N  s               0.5       0.5       0.8       3.3       2.5       0.3
 7 N  px              6.3       3.1      10.1       5.6       0.5       2.7
 7 N  py              2.3       0.8       3.7       1.0       3.6       0.7
 7 N  dz2             0.0       0.0       0.1       0.4       0.1       0.2
 7 N  dx2y2           2.0       0.4       0.2       0.2       0.1       1.4
 7 N  dxy             0.5       0.3       0.4       0.1       0.6       1.8
 8 C  s               9.5       3.5       1.3       8.6       0.0       2.4
 8 C  px              0.5       0.7       5.9       2.8       1.7       5.5
 8 C  py              0.2       0.2       2.9       0.5       7.7       3.4
 8 C  dx2y2           0.0       0.0       0.1       0.0       0.3       0.1
 9 H  s               0.6       6.4       0.9       0.3       1.2       1.3
 9 H  pz              0.0       0.4       0.0       0.0       0.1       0.1
 9 H  py              0.0       0.2       0.0       0.0       0.0       0.0
10 H  s               0.5       5.8       1.3       0.5       2.8       0.4
10 H  px              0.0       0.5       0.1       0.0       0.1       0.0
11 H  s               0.6       6.5       0.9       0.3       1.2       1.3
11 H  pz              0.0       0.4       0.0       0.0       0.1       0.1
11 H  py              0.0       0.2       0.0       0.0       0.0       0.0
12 H  s               0.2       0.0       1.9       4.5       2.0       7.7
12 H  py              0.0       0.0       0.1       0.3       0.1       0.2
13 H  s               2.9       0.0       0.5       3.6       4.7       0.1
13 H  px              0.1       0.0       0.1       0.0       0.1       0.0
13 H  py              0.2       0.0       0.0       0.3       0.2       0.0
14 H  s               1.8       0.7       4.2       0.1       0.0       8.3
14 H  px              0.2       0.1       0.4       0.0       0.0       0.4
15 H  s               1.6       0.7       0.4       4.0       0.6       5.5
15 H  py              0.1       0.1       0.0       0.3       0.0       0.3

                     18        19        20        21        22        23   
                  -0.47331  -0.44534  -0.43216  -0.42408  -0.40076  -0.39089
                   2.00000   2.00000   2.00000   2.00000   2.00000   2.00000
                  --------  --------  --------  --------  --------  --------
 0 C  s               0.2       0.3       0.0       0.0       0.1       0.0
 0 C  pz              0.0       0.0      34.1       0.0       0.0       9.4
 0 C  px              1.1       1.6       0.0       2.2       5.6       0.0
 0 C  py              0.3      18.2       0.0       1.6       5.0       0.0
 0 C  dz2             0.0       0.2       0.0       0.0       0.0       0.0
 0 C  dxz             0.0       0.0       0.2       0.0       0.0       0.0
 0 C  dxy             0.0       0.1       0.0       0.0       0.2       0.0
 1 C  s               0.1       1.1       0.0       0.2       0.4       0.0
 1 C  pz              0.0       0.0      20.0       0.0       0.0       0.0
 1 C  px              0.6      13.2       0.0       1.3       0.3       0.0
 1 C  py              1.2       0.6       0.0       0.1      14.1       0.0
 1 C  dxy             0.1       0.0       0.0       0.0       0.0       0.0
 2 O  s               1.1       4.5       0.0       0.1       6.4       0.0
 2 O  pz              0.0       0.0      10.1       0.0       0.0       0.0
 2 O  px              2.4       0.6       0.0       2.6      13.0       0.0
 2 O  py              0.5      17.0       0.0       0.2      18.4       0.0
 2 O  dz2             0.0       0.1       0.0       0.0       0.1       0.0
 2 O  dxz             0.0       0.0       0.2       0.0       0.0       0.0
 2 O  dyz             0.0       0.0       1.0       0.0       0.0       0.0
 2 O  dx2y2           0.2       0.7       0.0       0.1       0.2       0.0
 2 O  dxy             0.1       0.3       0.0       0.0       0.2       0.0
 3 C  s               0.0       0.5       0.0       2.5       0.1       0.0
 3 C  pz              0.0       0.0       7.1       0.0       0.0       8.6
 3 C  px              0.3       3.8       0.0       3.2       0.1       0.0
 3 C  py             14.0       0.3       0.0       0.0       0.8       0.0
 3 C  dx2y2           0.0       0.1       0.0       0.0       0.0       0.0
 4 C  s               0.1       1.2       0.0       0.4       0.1       0.0
 4 C  pz              0.0       0.0       2.5       0.0       0.0       7.9
 4 C  px             13.2       0.5       0.0       2.2       3.8       0.0
 4 C  py              3.1       0.1       0.0       0.9       4.2       0.1
 4 C  dx2y2           0.1       0.0       0.0       0.2       0.1       0.0
 4 C  dxy             0.0       0.0       0.0       0.5       0.2       0.0
 5 C  s               0.4       0.7       0.0       0.4       0.3       0.0
 5 C  pz              0.0       0.0       0.8       0.0       0.0      10.2
 5 C  px              8.9       2.8       0.0       7.7       2.3       0.0
 5 C  py              6.3       0.7       0.0      23.2       1.0       0.0
 5 C  dx2y2           0.0       0.1       0.0       0.0       0.0       0.0
 5 C  dxy             0.1       0.0       0.0       0.4       0.1       0.0
 6 C  s               0.8       0.6       0.0       0.8       0.1       0.0
 6 C  pz              0.0       0.0       0.7       0.0       0.0      15.8
 6 C  px              2.9       4.6       0.0       5.0       0.1       0.0
 6 C  py             12.6       0.4       0.0       1.8       2.3       0.0
 6 C  dxz             0.0       0.0       0.0       0.0       0.0       0.1
 6 C  dx2y2           0.1       0.2       0.0       0.0       0.0       0.0
 6 C  dxy             0.1       0.0       0.0       0.2       0.0       0.0
 7 N  s               0.2       0.7       0.0       0.6       0.1       0.0
 7 N  pz              0.0       0.0       1.3       0.0       0.0      23.7
 7 N  px              9.9       0.4       0.0       0.1       3.2       0.0
 7 N  py              4.1       0.1       0.0       0.1       0.4       0.0
 7 N  dz2             0.0       0.3       0.0       0.1       0.0       0.0
 7 N  dxz             0.0       0.0       0.1       0.0       0.0       0.3
 7 N  dyz             0.0       0.0       0.1       0.0       0.0       1.0
 7 N  dx2y2           0.2       0.5       0.0       0.6       0.1       0.0
 7 N  dxy             0.5       0.4       0.0       0.7       0.2       0.0
 8 C  s               0.0       1.4       0.0       0.1       0.2       0.0
 8 C  pz              0.0       0.0       2.2       0.0       0.0      14.9
 8 C  px              7.4       2.0       0.0       1.3       1.8       0.0
 8 C  py              2.5       0.9       0.0      10.8       3.0       0.0
 8 C  dxz             0.0       0.0       0.0       0.0       0.0       0.1
 8 C  dx2y2           0.0       0.2       0.0       0.0       0.1       0.0
 8 C  dxy             0.0       0.0       0.0       0.2       0.0       0.0
 9 H  s               0.1       3.7       9.2       0.4       0.4       3.0
 9 H  pz              0.0       0.2       0.0       0.0       0.0       0.0
 9 H  py              0.0       0.0       0.2       0.0       0.0       0.1
10 H  s               0.5       0.8       0.0       1.2       1.6       0.0
10 H  pz              0.0       0.0       0.2       0.0       0.0       0.1
11 H  s               0.1       3.6       9.4       0.5       0.3       3.2
11 H  pz              0.0       0.2       0.0       0.0       0.0       0.0
11 H  py              0.0       0.0       0.2       0.0       0.0       0.1
12 H  s               0.1       0.2       0.0       0.4       5.3       0.1
13 H  s               0.5       2.3       0.0      17.0       0.2       0.0
13 H  px              0.1       0.0       0.0       0.1       0.0       0.0
13 H  py              0.0       0.1       0.0       0.3       0.0       0.0
14 H  s               2.2       3.9       0.0       0.9       0.0       0.0
14 H  px              0.1       0.1       0.0       0.0       0.0       0.0
14 H  py              0.1       0.0       0.0       0.0       0.0       0.0
15 H  s               0.0       2.4       0.0       6.2       3.0       0.0
15 H  py              0.0       0.1       0.0       0.1       0.1       0.0

                     24        25        26        27        28        29   
                  -0.38843  -0.37387  -0.34882  -0.34441  -0.28900  -0.26107
                   2.00000   2.00000   2.00000   2.00000   2.00000   2.00000
                  --------  --------  --------  --------  --------  --------
 0 C  pz              0.0       0.0       0.0      13.1       0.1       0.0
 0 C  px             10.3      25.0       2.6       0.0       0.0       0.0
 0 C  py              1.7       6.4       1.8       0.0       0.0       0.0
 0 C  dz2             0.0       0.2       0.0       0.0       0.0       0.0
 0 C  dyz             0.0       0.0       0.0       0.6       0.0       0.0
 0 C  dx2y2           0.1       0.4       0.1       0.0       0.0       0.0
 1 C  s               0.0       0.2       0.3       0.0       0.0       0.0
 1 C  pz              0.0       0.0       0.0      15.7       0.1       0.1
 1 C  px              3.1       1.4       4.4       0.0       0.0       0.0
 1 C  py              3.6       0.5       1.3       0.0       0.0       0.0
 1 C  dxz             0.0       0.0       0.0       0.0       0.1       0.4
 1 C  dyz             0.0       0.0       0.0       0.9       0.1       0.2
 1 C  dx2y2           0.0       0.4       0.1       0.0       0.0       0.0
 1 C  dxy             0.0       0.0       0.2       0.0       0.0       0.0
 2 O  s               0.5       0.4       1.1       0.0       0.0       0.0
 2 O  pz              0.0       0.0       0.0      42.7       3.9      10.5
 2 O  px              5.8       0.7       0.2       0.0       0.0       0.0
 2 O  py              0.4       3.9       9.1       0.0       0.0       0.0
 2 O  dz2             0.0       0.1       0.0       0.0       0.0       0.0
 2 O  dxz             0.0       0.0       0.0       0.3       0.0       0.2
 2 O  dyz             0.0       0.0       0.0       0.5       0.0       0.0
 2 O  dx2y2           0.1       0.0       0.0       0.0       0.0       0.0
 2 O  dxy             0.1       0.1       0.3       0.0       0.0       0.0
 3 C  s               0.5       0.2       0.0       0.0       0.0       0.0
 3 C  pz              0.0       0.0       0.0       2.3       8.9      22.2
 3 C  px              0.8       3.0       3.0       0.0       0.0       0.0
 3 C  py              6.4       0.5       4.5       0.0       0.0       0.0
 3 C  dxz             0.0       0.0       0.0       0.1       0.0       0.0
 3 C  dyz             0.0       0.0       0.0       0.0       0.4       0.1
 3 C  dx2y2           0.1       0.1       0.5       0.0       0.0       0.0
 3 C  dxy             0.9       0.0       0.2       0.0       0.0       0.0
 4 C  s               0.4       0.0       0.0       0.0       0.0       0.0
 4 C  pz              0.0       0.0       0.0       0.1      35.6       0.0
 4 C  px              3.4       4.5       5.8       0.0       0.0       0.0
 4 C  py             14.5       0.9       4.9       0.0       0.0       0.0
 4 C  dxz             0.0       0.0       0.0       0.0       0.0       0.4
 4 C  dyz             0.0       0.0       0.0       0.0       0.0       0.1
 4 C  dx2y2           0.2       0.0       0.1       0.0       0.0       0.0
 4 C  dxy             0.4       0.0       0.1       0.0       0.0       0.0
 5 C  s               0.3       0.0       0.2       0.0       0.0       0.0
 5 C  pz              0.1       0.0       0.0       1.6      14.8      21.6
 5 C  px              2.9       3.1       5.9       0.0       0.0       0.0
 5 C  py              0.4       0.7       0.8       0.0       0.0       0.0
 5 C  dxz             0.0       0.0       0.0       0.0       0.3       0.1
 5 C  dyz             0.0       0.0       0.0       0.0       0.0       0.1
 5 C  dx2y2           0.2       0.2       0.3       0.0       0.0       0.0
 5 C  dxy             0.1       0.0       0.4       0.0       0.0       0.0
 6 C  s               0.4       0.2       0.2       0.0       0.0       0.0
 6 C  pz              0.1       0.0       0.0       3.9       2.2      19.5
 6 C  px              3.9       8.5       6.9       0.0       0.0       0.0
 6 C  py              0.5       0.3       0.9       0.0       0.0       0.0
 6 C  dyz             0.0       0.0       0.0       0.0       0.6       0.2
 6 C  dx2y2           0.0       0.3       0.7       0.0       0.0       0.0
 7 N  s               1.4       0.0       0.1       0.0       0.0       0.0
 7 N  pz              0.1       0.0       0.0       4.2      26.5       0.0
 7 N  px              0.8       0.7       7.0       0.0       0.0       0.0
 7 N  py              9.1       0.8       0.7       0.0       0.0       0.0
 7 N  dxz             0.0       0.0       0.0       0.0       0.0       3.3
 7 N  dyz             0.0       0.0       0.0       0.2       0.0       1.0
 7 N  dx2y2           0.0       0.5       0.1       0.0       0.0       0.0
 7 N  dxy             0.4       0.0       0.1       0.0       0.0       0.0
 8 C  s               1.0       0.1       0.2       0.0       0.0       0.0
 8 C  pz              0.1       0.0       0.0       0.1       4.9      18.9
 8 C  px              1.0       1.0       4.8       0.0       0.0       0.0
 8 C  py              6.2       2.0       6.4       0.0       0.0       0.0
 8 C  dxz             0.0       0.0       0.0       0.1       0.5       0.1
 8 C  dyz             0.0       0.0       0.0       0.0       0.1       0.1
 8 C  dx2y2           0.0       0.0       0.4       0.0       0.0       0.0
 8 C  dxy             0.0       0.1       0.3       0.0       0.0       0.0
 9 H  s               0.0       3.5       0.7       6.3       0.0       0.0
 9 H  pz              0.0       0.1       0.0       0.0       0.0       0.0
10 H  s               4.3      16.5       2.3       0.0       0.0       0.0
10 H  pz              0.0       0.0       0.0       0.1       0.0       0.0
10 H  px              0.1       0.3       0.0       0.0       0.0       0.0
11 H  s               0.0       3.1       0.6       6.6       0.0       0.0
11 H  pz              0.0       0.1       0.0       0.0       0.0       0.0
11 H  px              0.1       0.1       0.0       0.0       0.0       0.0
12 H  s              10.5       1.4       0.4       0.0       0.0       0.0
12 H  pz              0.0       0.0       0.0       0.0       0.4       0.0
12 H  px              0.0       0.0       0.2       0.0       0.0       0.0
13 H  s               0.0       0.1       4.6       0.0       0.0       0.0
13 H  pz              0.0       0.0       0.0       0.0       0.1       0.2
14 H  s               1.5       5.5       6.4       0.0       0.0       0.0
14 H  pz              0.0       0.0       0.0       0.0       0.0       0.2
15 H  s               0.4       1.3       7.6       0.0       0.0       0.0
15 H  pz              0.0       0.0       0.0       0.0       0.1       0.2
15 H  py              0.0       0.0       0.1       0.0       0.0       0.0

                     30        31        32        33        34        35   
                  -0.24345  -0.22096  -0.10105  -0.06514  -0.00668   0.06505
                   2.00000   2.00000   0.00000   0.00000   0.00000   0.00000
                  --------  --------  --------  --------  --------  --------
 0 C  s               0.3       1.0       0.0       0.0       0.0      14.1
 0 C  pz              0.0       0.0       0.1       0.2       0.2       0.0
 0 C  px              0.1       1.2       0.0       0.0       0.0       0.2
 0 C  py              1.6       5.9       0.0       0.0       0.0       2.0
 0 C  dyz             0.0       0.0       0.5       0.0       1.2       0.0
 1 C  s               0.1       0.0       0.0       0.0       0.0       6.3
 1 C  pz              0.0       0.0      18.8       0.9      22.7       0.0
 1 C  px              0.1       1.8       0.0       0.0       0.0       0.2
 1 C  py              0.2       0.4       0.0       0.0       0.0       0.5
 1 C  dz2             0.0       0.0       0.0       0.0       0.0       0.7
 1 C  dxz             0.0       0.0       0.6       0.0       0.0       0.0
 1 C  dyz             0.0       0.0       0.6       0.0       0.5       0.0
 1 C  dx2y2           1.0       1.7       0.0       0.0       0.0       0.0
 1 C  dxy             0.2       1.4       0.0       0.0       0.0       0.0
 2 O  s               0.0       0.0       0.0       0.0       0.0       0.8
 2 O  pz              0.0       0.0      17.7       0.3      10.3       0.0
 2 O  px             21.7      34.6       0.0       0.0       0.0       0.2
 2 O  py              4.9      10.1       0.0       0.0       0.0       0.1
 2 O  dz2             0.0       0.0       0.0       0.0       0.0       0.8
 2 O  dxz             0.0       0.0       0.8       0.2       0.2       0.0
 2 O  dyz             0.0       0.0       2.2       0.1       3.7       0.0
 2 O  dx2y2           0.3       0.5       0.0       0.0       0.0       0.1
 2 O  dxy             0.2       0.2       0.0       0.0       0.0       0.0
 3 C  s               1.6       0.3       0.0       0.0       0.0       5.2
 3 C  pz              0.0       0.0      10.7       0.0      11.2       0.0
 3 C  px              0.5       6.2       0.0       0.0       0.0       0.9
 3 C  py              3.4       0.9       0.0       0.0       0.0       0.2
 3 C  dz2             0.1       0.0       0.0       0.0       0.0       0.2
 3 C  dxz             0.0       0.0       0.8       0.0       0.4       0.0
 3 C  dyz             0.0       0.0       0.0       1.4       0.0       0.0
 3 C  dx2y2           0.0       0.1       0.0       0.0       0.0       0.9
 4 C  s               0.1       0.1       0.0       0.0       0.0      10.2
 4 C  pz              0.0       0.0      12.9      21.6       0.0       0.0
 4 C  px              0.1       0.3       0.0       0.0       0.0       2.0
 4 C  py              0.6       0.0       0.0       0.0       0.0       8.8
 4 C  dxz             0.0       0.0       0.1       0.5       0.6       0.0
 4 C  dyz             0.0       0.0       0.2       0.0       0.3       0.0
 4 C  dx2y2           0.0       0.2       0.0       0.0       0.0       0.3
 4 C  dxy             0.1       0.1       0.0       0.0       0.0       0.5
 5 C  s               0.6       0.0       0.0       0.0       0.0       5.1
 5 C  pz              0.0       0.0       0.8      20.1      12.9       0.0
 5 C  px              0.2       1.1       0.0       0.0       0.0       0.3
 5 C  py              2.7       0.9       0.0       0.0       0.0       3.2
 5 C  dxz             0.0       0.0       0.6       0.5       0.1       0.0
 5 C  dyz             0.0       0.0       0.3       0.0       0.5       0.0
 5 C  dx2y2           0.0       0.0       0.0       0.0       0.0       0.2
 5 C  dxy             0.1       0.0       0.0       0.0       0.0       0.7
 6 C  s               0.2       0.2       0.0       0.0       0.0       3.0
 6 C  pz              0.0       0.0      16.5       0.2      17.7       0.0
 6 C  px              0.2       0.1       0.0       0.0       0.0       0.5
 6 C  py              3.3       1.4       0.0       0.0       0.0       0.9
 6 C  dxz             0.0       0.0       0.1       0.0       0.3       0.0
 6 C  dyz             0.0       0.0       0.0       1.3       0.0       0.0
 6 C  dx2y2           0.8       0.5       0.0       0.0       0.0       0.4
 6 C  dxy             0.3       0.1       0.0       0.0       0.0       0.2
 7 N  s               6.0       2.9       0.0       0.0       0.0       1.0
 7 N  pz              0.0       0.0       2.5      20.2       7.1       0.0
 7 N  px              8.2       4.9       0.0       0.0       0.0       0.0
 7 N  py             29.1      13.6       0.0       0.0       0.0       0.1
 7 N  dz2             0.1       0.1       0.0       0.0       0.0       0.1
 7 N  dxz             0.0       0.0       2.6       4.0       1.2       0.0
 7 N  dyz             0.0       0.0       1.5       0.1       2.7       0.0
 7 N  dx2y2           0.3       0.1       0.0       0.0       0.0       0.6
 7 N  dxy             0.5       1.0       0.0       0.0       0.0       0.4
 8 C  s               0.2       0.2       0.0       0.0       0.0       3.4
 8 C  pz              0.0       0.0       5.7      25.2       0.1       0.0
 8 C  px              2.5       0.7       0.0       0.0       0.0       0.9
 8 C  py              0.5       1.6       0.0       0.0       0.0       0.7
 8 C  dxz             0.0       0.0       0.2       0.8       0.5       0.0
 8 C  dyz             0.0       0.0       0.1       0.0       0.2       0.0
 8 C  dx2y2           0.0       0.0       0.0       0.0       0.0       0.3
 8 C  dxy             1.5       0.4       0.0       0.0       0.0       0.0
 9 H  s               0.2       0.2       0.9       0.1       1.9       2.5
 9 H  pz              0.0       0.0       0.0       0.0       0.0       0.9
 9 H  px              0.0       0.0       0.0       0.0       0.0       0.1
 9 H  py              0.0       0.1       0.0       0.0       0.1       0.3
[...]
14 H  s               0.0       3.7       0.0       0.1       1.0       0.5
14 H  px              0.0      11.4       0.1       0.3       3.1       1.6
14 H  py              0.0       0.6       0.0       0.1       0.0       0.2
15 H  s               0.0       0.1       0.1       5.2       1.7       0.1
15 H  px              0.0       0.0       0.3       1.7       2.9       0.2
15 H  py              0.0       0.2       0.0      14.8       3.1       0.1

                    204       205       206       207       208       209   
                   4.03100   4.07675   4.39856  21.57906  21.85524  21.95901
                   0.00000   0.00000   0.00000   0.00000   0.00000   0.00000
                  --------  --------  --------  --------  --------  --------
 0 C  s               0.0       0.0       0.0       1.0      21.6      76.2
 0 C  px              0.1       0.0       0.1       0.0       0.0       0.0
 0 C  dz2             0.0       0.0       0.1       0.0       0.0       0.0
 0 C  dxy             0.1       0.0       0.1       0.0       0.0       0.0
 1 C  s               0.2       0.0       6.3       1.8      17.0       4.9
 1 C  px              0.3       0.1       1.6       0.0       0.0       0.0
 1 C  py              0.0       0.0       6.7       0.0       0.1       0.0
 1 C  dz2             0.0       0.0       1.6       0.0       0.0       0.0
 1 C  dx2y2           1.3       0.2       1.7       0.0       0.0       0.0
 1 C  dxy             0.2       0.3       3.3       0.0       0.0       0.0
 2 O  s               0.0       0.3      19.1       0.0       0.1       0.0
 2 O  px              0.0       0.4       4.7       0.0       0.0       0.0
 2 O  py              0.1       0.0      18.0       0.0       0.0       0.0
 2 O  dz2             0.0       0.0       8.3       0.0       0.0       0.0
 2 O  dx2y2           0.5       0.3       8.7       0.0       0.0       0.0
 2 O  dxy             0.2       0.1      17.7       0.0       0.0       0.0
 3 C  s               0.3       0.0       0.0      32.7      20.7       8.7
 3 C  px              0.4       0.1       0.0       0.0       0.0       0.0
 3 C  py              0.0       0.4       0.4       0.0       0.0       0.0
 3 C  dx2y2           5.5       0.2       0.0       0.0       0.0       0.0
 3 C  dxy             0.1       1.0       0.2       0.0       0.0       0.0
 4 C  s               0.2       0.0       0.0      30.1       1.5       0.0
 4 C  px              0.4       0.5       0.0       0.0       0.0       0.0
 4 C  py              0.9       0.2       0.1       0.0       0.0       0.0
 4 C  dz2             0.2       0.0       0.0       0.0       0.0       0.0
 4 C  dx2y2           2.7       0.5       0.0       0.0       0.0       0.0
 4 C  dxy             6.8       0.1       0.0       0.0       0.0       0.0
 5 C  s               0.1       0.0       0.0      18.1      25.5       3.2
 5 C  px              0.3       0.6       0.0       0.0       0.0       0.0
 5 C  py              1.1       0.0       0.0       0.0       0.0       0.0
 5 C  dz2             0.1       0.0       0.0       0.0       0.0       0.0
 5 C  dx2y2           1.8       1.1       0.0       0.0       0.0       0.0
 5 C  dxy             8.4       0.0       0.0       0.0       0.0       0.0
 6 C  s               0.3       2.0       0.0       6.6      12.9       5.2
 6 C  px              2.0       1.3       0.0       0.0       0.0       0.0
 6 C  py              0.0       3.7       0.0       0.0       0.0       0.0
 6 C  dz2             0.0       0.5       0.0       0.0       0.0       0.0
 6 C  dx2y2          11.9       1.4       0.0       0.0       0.0       0.0
 6 C  dxy             0.3       5.2       0.0       0.0       0.0       0.0
 7 N  s               2.7       0.2       0.0       0.2       0.0       0.0
 7 N  px              0.0      19.0       0.0       0.0       0.0       0.0
 7 N  py              0.2       4.6       0.0       0.0       0.0       0.0
 7 N  dz2             2.2       0.1       0.0       0.0       0.0       0.0
 7 N  dx2y2           3.6      27.1       0.0       0.0       0.0       0.0
 7 N  dxy             8.7       9.4       0.0       0.0       0.0       0.0
 8 C  s               0.3       2.8       0.2       9.0       0.2       1.4
 8 C  px              0.7       6.6       0.0       0.0       0.0       0.0
 8 C  py              1.1       0.0       0.2       0.0       0.0       0.0
 8 C  dz2             0.1       0.7       0.0       0.0       0.0       0.0
 8 C  dx2y2           3.4       7.7       0.0       0.0       0.0       0.0
 8 C  dxy             6.7       0.1       0.2       0.0       0.0       0.0
12 H  s               2.2       0.0       0.0       0.0       0.0       0.0
12 H  px              0.8       0.0       0.0       0.0       0.0       0.0
12 H  py              3.5       0.0       0.0       0.0       0.0       0.0
13 H  s               2.2       0.1       0.0       0.0       0.0       0.0
13 H  px              1.2       0.1       0.0       0.0       0.0       0.0
13 H  py              2.7       0.0       0.0       0.0       0.0       0.0
14 H  s               2.2       0.2       0.0       0.0       0.0       0.0
14 H  px              3.7       0.2       0.0       0.0       0.0       0.0
14 H  py              0.1       0.0       0.0       0.0       0.0       0.0
15 H  s               1.6       0.2       0.0       0.0       0.0       0.0
15 H  px              0.4       0.0       0.0       0.0       0.0       0.0
15 H  py              2.4       0.1       0.0       0.0       0.0       0.0

                    210       211       212       213       214       215   
                  22.08089  22.12606  22.20038  22.24785  31.92520  43.63915
                   0.00000   0.00000   0.00000   0.00000   0.00000   0.00000
                  --------  --------  --------  --------  --------  --------
 0 C  s               0.1       0.0       0.4       0.4       0.0       0.0
 1 C  s              27.2      41.4       2.4       4.4       0.0       0.0
 2 O  s               0.1       0.1       0.0       0.0       0.0      99.9
 3 C  s               0.4       5.7       6.6      24.9       0.0       0.0
 4 C  s              26.2       3.5      35.0       3.1       0.0       0.0
 5 C  s               0.2      15.5      36.8       0.2       0.0       0.0
 6 C  s              40.4       6.1      16.7      11.4       0.0       0.0
 7 N  s               0.1       0.1       0.0       0.0      99.8       0.0
 7 N  px              0.0       0.0       0.0       0.1       0.0       0.0
 8 C  s               4.9      27.1       1.7      55.0       0.1       0.0



                      *****************************
                      * MAYER POPULATION ANALYSIS *
                      *****************************

  NA   - Mulliken gross atomic population
  ZA   - Total nuclear charge
  QA   - Mulliken gross atomic charge
  VA   - Mayer's total valence
  BVA  - Mayer's bonded valence
  FA   - Mayer's free valence

  ATOM       NA         ZA         QA         VA         BVA        FA
  0 C      6.5589     6.0000    -0.5589     3.7667     3.7667     0.0000
  1 C      5.7536     6.0000     0.2464     3.6613     3.6613    -0.0000
  2 O      8.3427     8.0000    -0.3427     2.0093     2.0093    -0.0000
  3 C      5.7950     6.0000     0.2050     3.3325     3.3325    -0.0000
  4 C      6.1635     6.0000    -0.1635     3.8853     3.8853    -0.0000
  5 C      6.1224     6.0000    -0.1224     3.6927     3.6927     0.0000
  6 C      6.0636     6.0000    -0.0636     3.9507     3.9507     0.0000
  7 N      7.1738     7.0000    -0.1738     2.9775     2.9775     0.0000
  8 C      6.1644     6.0000    -0.1644     4.0197     4.0197    -0.0000
  9 H      0.8296     1.0000     0.1704     0.9567     0.9567    -0.0000
 10 H      0.8143     1.0000     0.1857     0.9573     0.9573     0.0000
 11 H      0.8301     1.0000     0.1699     0.9568     0.9568     0.0000
 12 H      0.8478     1.0000     0.1522     0.9654     0.9654    -0.0000
 13 H      0.8486     1.0000     0.1514     0.9682     0.9682     0.0000
 14 H      0.8626     1.0000     0.1374     0.9669     0.9669     0.0000
 15 H      0.8292     1.0000     0.1708     0.9550     0.9550    -0.0000

  Mayer bond orders larger than 0.100000
B(  0-C ,  1-C ) :   0.8696 B(  0-C ,  9-H ) :   0.9603 B(  0-C , 10-H ) :   0.9767 
B(  0-C , 11-H ) :   0.9569 B(  1-C ,  2-O ) :   1.9238 B(  1-C ,  3-C ) :   0.9073 
B(  2-O ,  3-C ) :  -0.1059 B(  3-C ,  4-C ) :   1.3460 B(  3-C ,  8-C ) :   1.2512 
B(  4-C ,  5-C ) :   1.4112 B(  4-C , 12-H ) :   0.9211 B(  5-C ,  6-C ) :   1.3519 
B(  5-C , 13-H ) :   0.9419 B(  6-C ,  7-N ) :   1.4399 B(  6-C , 14-H ) :   0.9841 
B(  7-N ,  8-C ) :   1.4778 B(  8-C , 15-H ) :   1.0011 

-------
TIMINGS
-------

Total SCF time: 0 days 0 hours 0 min 24 sec 

Total time                  ....      24.567 sec
Sum of individual times     ....      23.984 sec  ( 97.6%)

SCF preparation             ....       0.177 sec  (  0.7%)
Fock matrix formation       ....      22.842 sec  ( 93.0%)
  Startup                   ....       0.065 sec  (  0.3% of F)
  Split-RI-J                ....       4.747 sec  ( 20.8% of F)
  XC integration            ....      17.406 sec  ( 76.2% of F)
    Basis function eval.    ....       2.914 sec  ( 16.7% of XC)
    Density eval.           ....       5.562 sec  ( 32.0% of XC)
    XC-Functional eval.     ....       1.968 sec  ( 11.3% of XC)
    XC-Potential eval.      ....       5.880 sec  ( 33.8% of XC)
Diagonalization             ....       0.000 sec  (  0.0%)
Density matrix formation    ....       0.260 sec  (  1.1%)
Total Energy calculation    ....       0.042 sec  (  0.2%)
Population analysis         ....       0.107 sec  (  0.4%)
Orbital Transformation      ....       0.058 sec  (  0.2%)
Orbital Orthonormalization  ....       0.000 sec  (  0.0%)
DIIS solution               ....       0.371 sec  (  1.5%)
  MO trafo                  ....       0.000 sec  (  0.0 % of DIIS)
  Orb grad                  ....       0.000 sec  (  0.0 % of DIIS)
  Energy W gradient         ....       0.000 sec  (  0.0 % of DIIS)
  DIIS error                ....       0.011 sec  (  3.0 % of DIIS)
  DIIS work                 ....       0.311 sec  ( 83.8 % of DIIS)
  Form Q                    ....       0.000 sec  (  0.0 % of DIIS)
  Form QpQm                 ....       0.000 sec  (  0.0 % of DIIS)
  Exp/Cayley                ....       0.000 sec  (  0.0 % of DIIS)
  Orb update                ....       0.000 sec  (  0.0 % of DIIS)
  Wake-sleep                ....       0.021 sec  (  5.6 % of DIIS)
SOSCF solution              ....       0.127 sec  (  0.5%)
  MO trafo                  ....       0.055 sec  ( 42.9 % of SOSCF)
  Orb grad                  ....       0.002 sec  (  1.3 % of SOSCF)
  Rot update                ....       0.036 sec  ( 28.5 % of SOSCF)
  Step                      ....       0.035 sec  ( 27.2 % of SOSCF)
Finished LeanSCF after  24.6 sec

Maximum memory used throughout the entire LEANSCF-calculation: 23.0 MB


-------------------------------------------------------------------------------
                          DFT DISPERSION CORRECTION                            
                                                                               
                                DFTD4 V3.4.0                                   
-------------------------------------------------------------------------------
The R2SCAN3C composite method is recognized
Using three-body term ABC
Active option DFTDOPT                   ...         5   

-------------------------   ----------------
Dispersion correction           -0.005277454
-------------------------   ----------------

------------------   -----------------
gCP correction             0.007428650
------------------   -----------------

-------------------------   --------------------
FINAL SINGLE POINT ENERGY      -400.831887308039
-------------------------   --------------------


------------------------------------------------------------------------------
                              ORCA PROPERTY CALCULATIONS
------------------------------------------------------------------------------

GBWName                                 ... sp_gas.gbw
Number of atoms                         ...     16
Number of basis functions               ...    216
Max core memory                         ...   1024 MB

Electric properties:
Dipole moment                           ... YES
Quadrupole moment                       ...  NO
Static polarizability (Dipole/Dipole)   ...  NO
Static polarizability (Dipole/Quad.)    ...  NO
Static polarizability (Quad./Quad.)     ...  NO
Static polarizability (Velocity)        ...  NO

Atomic electric properties:
Dipole moment                           ...  NO
Quadrupole moment                       ...  NO
Static polarizability                   ...  NO

Choice of electric origin               ... Center of mass
Position of electric origin             ...    -0.000025     0.000018    -0.000000

General magnetic properties:
Magnetizability                         ...  NO

EPR properties:
g-Tensor (aka g-matrix)                 ...  NO
Zero-Field splitting spin-orbit         ...  NO
Zero-field splitting spin-spin          ...  NO
Hyperfine couplings                     ...  NO (   0 nuclei)
Quadrupole couplings                    ...  NO (   0 nuclei)
Contact density                         ...  NO (   0 nuclei)

NMR properties:
Chemical shifts                         ...  NO (   0 nuclei)
Spin-rotation constants                 ...  NO (   0 nuclei)
Spin-spin couplings                     ...  NO (   0 nuclei,    0 pairs)

Choice of magnetic origin               ... GIAO
Position of magnetic origin             ...     0.000000     0.000000     0.000000

Properties with geometric perturbations:
SCF Hessian                             ...  NO
IR spectrum                             ...  NO
VCD spectrum                            ...  NO
X-ray spectroscopy properties:
SCF XES/XAS/RIXS spectra                ...  NO


-------------
DIPOLE MOMENT
-------------

Method             : SCF
Type of density    : Electron Density
Multiplicity       :   1
Irrep              :   0
Energy             :  -400.8340385038948739 Eh
Relativity type    : 
Basis              : AO
                                X                 Y                 Z
Electronic contribution:     -2.185411845      -4.502244390       0.077575404
Nuclear contribution   :      1.869783624       6.185984131      -0.101924556
                        -----------------------------------------
Total Dipole Moment    :     -0.315628221       1.683739741      -0.024349152
                        -----------------------------------------
Magnitude (a.u.)       :      1.713240663
Magnitude (Debye)      :      4.354711692



--------------------
Rotational spectrum 
--------------------
 
Rotational constants in cm-1:             0.126426             0.041702             0.031544 
Rotational constants in MHz :          3790.160135          1250.187673           945.661538 

Dipole components along the rotational axes: 
x,y,z [a.u.] :    -0.285808     1.689223    -0.005803 
x,y,z [Debye]:    -0.726467     4.293663    -0.014750 

 

Dipole moment calculation done in   0.0 sec 

Maximum memory used throughout the entire PROP-calculation: 13.7 MB

--------------------------------
SUGGESTED CITATIONS FOR THIS RUN
--------------------------------

Below you find a list of papers that are relevant to this ORCA run
We neither can nor want to force you to cite these papers, but we appreciate if you do
You receive ORCA, which is the product of decades of hard work by many enthusiastic individuals, for free
The only thing we kindly ask in return is that you cite our papers,
We deeply appreciate it, if you show your appreciation for ORCA by not just citing the generic ORCA reference.

Please note that relegating all ORCA citations to the supporting information does *not* help us.
SI sections are not indexed - citations you put there will not count into any citation statistics
But we need these citations in order to attract the funding resources that allow us to do what we are doing

Therefore, if you are a happy ORCA user, please consider citing a few of the papers listed below in the main body of your paper

In addition to the list printed below, the program has created the file sp_gas.bibtex that contains the list in bibtex format
You can import this file easily into all common literature databanks and citation aid programs


List of essential papers. We consider these as the minimum necessary citations

  1. Neese,F.
     Software update: the ORCA program system, version 5.0
     WIRES Comput. Molec. Sci., 2022 12(1)e1606
     doi.org/10.1002/wcms.1606
  2. Grimme,S.; Hansen,A.; Ehlert,S.; Mewes,J.
     r2SCAN-3c: A 'Swiss army knife' composite electronic-structure method
     J. Chem. Phys., 2021 154 064103
     doi.org/10.1063/5.0040021

List of papers to cite with high priority. The work reported in these papers was absolutely
necessary for this run to complete.
Our perspective: the developers of density functionals and basis sets usually get cited in chemistry papers
Good! But without the algorithms to do something with them, the functionals or basis sets would not do anything.
Hence, in our opinion, the algorithm design and method developments papers are equally worthy of getting cited

  1. Neese,F.
     An improvement of the resolution of the identity approximation for the formation of the Coulomb matrix
     J. Comp. Chem., 2003 24(14)1740-1747
     doi.org/10.1002/jcc.10318
  2. Neese,F.
     The SHARK Integral Generation and Digestion System
     J. Comp. Chem., 2022  1-16
     doi.org/10.1002/jcc.26942
  3. Lehtola,S.; Steigemann,C.; Oliveira,M.; Marques,M.
     Recent developments in Libxc - A comprehensive library of functionals for density functional theory
     Software X, 2018 7 
     doi.org/10.1016/j.softx.2017.11.002
  4. Caldeweyher,E.; Bannwarth,C.; Grimme,S.
     Extension of the D3 dispersion coefficient model
     J. Chem. Phys., 2017 147 034112-XXXX
     doi.org/10.1063/1.4993215
  5. Caldeweyher,E.; Ehlert,S.; Hansen,A.; Neugebauer,H.; Spicher,S.; Bannwarth,C.; Grimme,S.
     A generally applicable atomic-charge dependent London dispersion correction
     J. Chem. Phys., 2019 150 154122-XXXX
     doi.org/10.1063/1.5090222
  6. Caldeweyher,E.; Mewes,J.; Ehlert,S.; Grimme,S.
     Extension and evaluation of the D4 London-dispersion model for periodic systems
     Phys. Chem. Chem. Phys., 2020 22(16)8499-8512
     doi.org/10.1039/D0CP00502A

List of suggested additional citations. These are papers that are important in the 'surrounding' of 
of this run, or papers that preceded the highly important papers. If you like your results we are grateful for a citation.

  1. Neese,F.
     The ORCA program system
     WIRES Comput. Molec. Sci., 2012 2(1)73-78
     doi.org/10.1002/wcms.81
  2. Neese,F.
     Software update: the ORCA program system, version 4.0
     WIRES Comput. Molec. Sci., 2018 8(1)1-6
     doi.org/10.1002/wcms.1327
  3. Neese,F.; Wennmohs,F.; Becker,U.; Riplinger,C.
     The ORCA quantum chemistry program package
     J. Chem. Phys., 2020 152 Art. No. L224108
     doi.org/10.1063/5.0004608

List of optional additional citations

  1. Neese,F.
     Approximate second-order SCF convergence for spin unrestricted wavefunctions
     Chem. Phys. Lett., 2000 325(1-3)93-98
     doi.org/10.1016/s0009-2614(00)00662-x

Timings for individual modules:

Sum of individual times          ...       26.065 sec (=   0.434 min)
Startup calculation              ...        1.046 sec (=   0.017 min)   4.0 %
SCF iterations                   ...       24.912 sec (=   0.415 min)  95.6 %
Property calculations            ...        0.107 sec (=   0.002 min)   0.4 %
                             ****ORCA TERMINATED NORMALLY****
TOTAL RUN TIME: 0 days 0 hours 0 minutes 27 seconds 468 msec
