      -----------------------------------------------------------      
     |                   =====================                   |     
     |                           x T B                           |     
     |                   =====================                   |     
     |                         S. Grimme                         |     
     |          Mulliken Center for Theoretical Chemistry        |     
     |                    University of Bonn                     |     
      -----------------------------------------------------------      

   * xtb version 6.7.1 (edcfbbe) compiled by 'albert@albert-system' on 2024-07-22

   xtb is free software: you can redistribute it and/or modify it under
   the terms of the GNU Lesser General Public License as published by
   the Free Software Foundation, either version 3 of the License, or
   (at your option) any later version.
   
   xtb is distributed in the hope that it will be useful,
   but WITHOUT ANY WARRANTY; without even the implied warranty of
   MERCHANTABILITY or FITNESS FOR A PARTICULAR PURPOSE.  See the
   GNU Lesser General Public License for more details.
   
   Cite this work as:
   * C. Bannwarth, E. Caldeweyher, S. Ehlert, A. Hansen, P. Pracht,
     J. Seibert, S. Spicher, S. Grimme, WIREs Comput. Mol. Sci., 2020, 11,
     e01493. DOI: 10.1002/wcms.1493
   
   for GFN2-xTB:
   * C. Bannwarth, S. Ehlert and S. Grimme., J. Chem. Theory Comput., 2019,
     15, 1652-1671. DOI: 10.1021/acs.jctc.8b01176
   for GFN1-xTB:
   * S. Grimme, C. Bannwarth, P. Shushkov, J. Chem. Theory Comput., 2017,
     13, 1989-2009. DOI: 10.1021/acs.jctc.7b00118
   for GFN0-xTB:
   * P. Pracht, E. Caldeweyher, S. Ehlert, S. Grimme, ChemRxiv, 2019, preprint.
     DOI: 10.26434/chemrxiv.8326202.v1
   for GFN-FF:
   * S. Spicher and S. Grimme, Angew. Chem. Int. Ed., 2020, 59, 15665-15673.
     DOI: 10.1002/anie.202004239
   
   for ALPB and GBSA implicit solvation:
   * S. Ehlert, M. Stahn, S. Spicher, S. Grimme, J. Chem. Theory Comput.,
     2021, 17, 4250-4261. DOI: 10.1021/acs.jctc.1c00471
   
   for ddCOSMO and CPCM-X implicit solvation:
   * M. Stahn, S. Ehlert, S. Grimme, J. Phys. Chem. A,
     2023, XX, XXXX-XXXX. DOI: 10.1021/acs.jpca.3c04382
   
   for DFT-D4:
   * E. Caldeweyher, C. Bannwarth and S. Grimme, J. Chem. Phys., 2017,
     147, 034112. DOI: 10.1063/1.4993215
   * E. Caldeweyher, S. Ehlert, A. Hansen, H. Neugebauer, S. Spicher,
     C. Bannwarth and S. Grimme, J. Chem. Phys., 2019, 150, 154122.
     DOI: 10.1063/1.5090222
   * E. Caldeweyher, J.-M. Mewes, S. Ehlert and S. Grimme, Phys. Chem. Chem. Phys.
     2020, 22, 8499-8512. DOI: 10.1039/D0CP00502A
   
   for sTDA-xTB:
   * S. Grimme and C. Bannwarth, J. Chem. Phys., 2016, 145, 054103.
     DOI: 10.1063/1.4959605
   
   in the mass-spec context:
   * V. Asgeirsson, C. Bauer and S. Grimme, Chem. Sci., 2017, 8, 4879.
     DOI: 10.1039/c7sc00601b
   * J. Koopman and S. Grimme, ACS Omega 2019, 4, 12, 15120-15133.
     DOI: 10.1021/acsomega.9b02011
   
   for metadynamics refer to:
   * S. Grimme, J. Chem. Theory Comput., 2019, 155, 2847-2862
     DOI: 10.1021/acs.jctc.9b00143
   
   for SPH calculations refer to:
   * S. Spicher and S. Grimme, J. Chem. Theory Comput., 2021, 17, 1701-1714
     DOI: 10.1021/acs.jctc.0c01306
   
   for ONIOM refer to:
   * C. Plett, A. Katbashev, S. Ehlert, S. Grimme, M. Bursch,
     Phys. Chem. Chem. Phys., 2023, 25, 17860-17868. DOI: 10.1039/D3CP02178E
   
   for DIPRO refer to:
   * J. Kohn, N. Gildemeister, S. Grimme, D. Fazzi, A. Hansen,
     J. Chem. Phys., 2023, just accepted.
   
   for PTB refer to:
   * S. Grimme, M. Mueller, A. Hansen, J. Chem. Phys., 2023, 158, 124111.
     DOI: 10.1063/5.0137838
   
   with help from (in alphabetical order)
   P. Atkinson, C. Bannwarth, F. Bohle, G. Brandenburg, E. Caldeweyher
   M. Checinski, S. Dohm, S. Ehlert, S. Ehrlich, I. Gerasimov, C. Hölzer
   A. Katbashev, J. Kohn, J. Koopman, C. Lavigne, S. Lehtola, F. März, M. Müller,
   F. Musil, H. Neugebauer, J. Pisarek, C. Plett, P. Pracht, F. Pultar,
   J. Seibert, P. Shushkov, S. Spicher, M. Stahn, M. Steiner, T. Strunk,
   J. Stückrath, T. Rose, and J. Unsleber
   
 * started run on 2025/04/06 at 05:21:11.677     
   ID    Z sym.   atoms
    1    6 C      1, 2, 4-6, 8, 10-13
    2    1 H      3, 7, 14-29
    3    8 O      9

           -------------------------------------------------
          |                Calculation Setup                |
           -------------------------------------------------

          program call               : /srv/scratch/z5358697/.xtb/bin/xtb xtb_rrho.coord --gfn2 --ohess vtight --chrg 0 --enso --norestart -I rrho-xcontrol-inp --parallel 1 --alpb water
          hostname                   : k139
          coordinate file            : xtb_rrho.coord
          omp threads                :                     1


           -------------------------------------------------
          |                 G F N 2 - x T B                 |
           -------------------------------------------------

        Reference                      10.1021/acs.jctc.8b01176
      * Hamiltonian:
        H0-scaling (s, p, d)           1.850000    2.230000    2.230000
        zeta-weighting                 0.500000
      * Dispersion:
        s8                             2.700000
        a1                             0.520000
        a2                             5.000000
        s9                             5.000000
      * Repulsion:
        kExp                           1.500000    1.000000
        rExp                           1.000000
      * Coulomb:
        alpha                          2.000000
        third order                    shell-resolved
        anisotropic                    true
        a3                             3.000000
        a5                             4.000000
        cn-shift                       1.200000
        cn-exp                         4.000000
        max-rad                        5.000000

      * Solvation model:               ALPB
        Solvent                        water
        Parameter file                 internal GFN2-xTB/ALPB
        Dielectric constant                8.0200E+01
        Reference state                gsolv [1 M gas/solution]
        Free energy shift                  1.0808E-03 Eh       6.7819E-01 kcal/mol
        Temperature                        2.9815E+02 K
        Density                            1.0000E+00 kg/L
        Solvent mass                       1.8000E+01 g/mol
        Interaction kernel             P16
        Born radius scaling (c1)           1.4744E+00
        Born radii integrator          GBOBC
        Born offset                        0.0000E+00 a0       0.0000E+00 AA
        H-bond correction              true
        Ion screening                  false
        Surface tension                    1.0000E-05 Eh       1.5569E+01 dyn/cm
        Grid points                               974 per atom

          ...................................................
          :                      SETUP                      :
          :.................................................:
          :  # basis functions                  62          :
          :  # atomic orbitals                  62          :
          :  # shells                           40          :
          :  # electrons                        64          :
          :  max. iterations                   250          :
          :  Hamiltonian                  GFN2-xTB          :
          :  restarted?                      false          :
          :  GBSA solvation                   true          :
          :  PC potential                    false          :
          :  electronic temp.          300.0000000     K    :
          :  accuracy                    1.0000000          :
          :  -> integral cutoff          0.2500000E+02      :
          :  -> integral neglect         0.1000000E-07      :
          :  -> SCF convergence          0.1000000E-05 Eh   :
          :  -> wf. convergence          0.1000000E-03 e    :
          :  Broyden damping             0.4000000          :
          :  net charge                          0          :
          :  unpaired electrons                  0          :
          ...................................................

 iter      E             dE          RMSdq      gap      omega  full diag
   1    -35.0527835 -0.350528E+02  0.310E+00    4.17       0.0  T
   2    -35.1319361 -0.791526E-01  0.154E+00    3.35       1.0  T
   3    -35.1363786 -0.444250E-02  0.920E-01    3.74       1.0  T
   4    -35.1386700 -0.229146E-02  0.186E-01    3.49       1.0  T
   5    -35.1391594 -0.489440E-03  0.669E-02    3.56       1.0  T
   6    -35.1391673 -0.787499E-05  0.304E-02    3.56       1.0  T
   7    -35.1391695 -0.215371E-05  0.523E-03    3.56       3.5  T
   8    -35.1391696 -0.162721E-06  0.216E-03    3.56       8.6  T
   9    -35.1391696 -0.694736E-08  0.720E-04    3.56      25.8  T
  10    -35.1391696 -0.271566E-08  0.217E-04    3.56      85.7  T

   *** convergence criteria satisfied after 10 iterations ***

         #    Occupation            Energy/Eh            Energy/eV
      -------------------------------------------------------------
         1        2.0000           -0.7098618             -19.3163
       ...           ...                  ...                  ...
        26        2.0000           -0.4439878             -12.0815
        27        2.0000           -0.4402044             -11.9786
        28        2.0000           -0.4341659             -11.8143
        29        2.0000           -0.4311337             -11.7317
        30        2.0000           -0.4255762             -11.5805
        31        2.0000           -0.4142777             -11.2731
        32        2.0000           -0.3889348             -10.5835 (HOMO)
        33                         -0.2581321              -7.0241 (LUMO)
        34                          0.0443780               1.2076
        35                          0.0623452               1.6965
        36                          0.0692347               1.8840
        37                          0.0818325               2.2268
       ...                                ...                  ...
        62                          0.5524590              15.0332
      -------------------------------------------------------------
                  HL-Gap            0.1308027 Eh            3.5593 eV
             Fermi-level           -0.3235334 Eh           -8.8038 eV

 SCC (total)                   0 d,  0 h,  0 min,  0.034 sec
 SCC setup                      ...        0 min,  0.002 sec (  4.694%)
 Dispersion                     ...        0 min,  0.000 sec (  0.522%)
 classical contributions        ...        0 min,  0.000 sec (  0.092%)
 integral evaluation            ...        0 min,  0.002 sec (  7.299%)
 iterations                     ...        0 min,  0.022 sec ( 65.810%)
 molecular gradient             ...        0 min,  0.007 sec ( 21.210%)
 printout                       ...        0 min,  0.000 sec (  0.340%)

         :::::::::::::::::::::::::::::::::::::::::::::::::::::
         ::                     SUMMARY                     ::
         :::::::::::::::::::::::::::::::::::::::::::::::::::::
         :: total energy             -34.684042024405 Eh    ::
         :: total w/o Gsasa/hb       -34.684451173090 Eh    ::
         :: gradient norm              0.031787795717 Eh/a0 ::
         :: HOMO-LUMO gap              3.559323163323 eV    ::
         ::.................................................::
         :: SCC energy               -35.138933463564 Eh    ::
         :: -> isotropic ES            0.043534226716 Eh    ::
         :: -> anisotropic ES          0.005564455990 Eh    ::
         :: -> anisotropic XC          0.017175457485 Eh    ::
         :: -> dispersion             -0.024253164594 Eh    ::
         :: -> Gsolv                  -0.008272818542 Eh    ::
         ::    -> Gelec               -0.008681967227 Eh    ::
         ::    -> Gsasa                0.000913348554 Eh    ::
         ::    -> Ghb                 -0.001584959567 Eh    ::
         ::    -> Gshift               0.001080759698 Eh    ::
         :: repulsion energy           0.454891439159 Eh    ::
         :: add. restraining           0.000000000000 Eh    ::
         :: total charge               0.000000000000 e     ::
         :::::::::::::::::::::::::::::::::::::::::::::::::::::

      ----------------------------------------------------------- 
     |                   =====================                   |
     |                        A N C O P T                        |
     |                   =====================                   |
     |               Approximate Normal Coordinate               |
     |                Rational Function Optimizer                |
      ----------------------------------------------------------- 
      ----------------------------------------------------------- 
     |                   =====================                   |
     |                        A N C O P T                        |
     |                   =====================                   |
     |               Approximate Normal Coordinate               |
     |                Rational Function Optimizer                |
      ----------------------------------------------------------- 

          ...................................................
          :                      SETUP                      :
          :.................................................:
          :   optimization level         verytight          :
          :   max. optcycles                   580          :
          :   ANC micro-cycles                  20          :
          :   degrees of freedom                81          :
          :.................................................:
          :   RF solver                   davidson          :
          :   write xtbopt.log                true          :
          :   linear?                        false          :
          :   energy convergence         0.1000000E-06 Eh   :
          :   grad. convergence          0.2000000E-03 Eh/α :
          :   maxmium RF displ.          1.0000000          :
          :   Hlow (freq-cutoff)         0.1000000E-01      :
          :   Hmax (freq-cutoff)         5.0000000          :
          :   S6 in model hess.         20.0000000          :
          ...................................................

generating ANC from exact Hessian ...
Using Lindh-Hessian (1995)
 Shifting diagonal of input Hessian by   8.616611265988765E-003
 Lowest  eigenvalues of input Hessian
    0.000000    0.000000    0.000000    0.000000    0.000000    0.000000
    0.010000    0.010533    0.010869    0.013450    0.016448    0.016578
    0.016822    0.017214    0.019182    0.020984    0.021462    0.025546
 Highest eigenvalues
    1.225193    1.231031    1.250426    1.252721    1.381776    2.057861
 

........................................................................
.............................. CYCLE    1 ..............................
........................................................................

 iter      E             dE          RMSdq      gap      omega  full diag
   1    -35.1391697 -0.351392E+02  0.481E-05    3.56       0.0  T
   2    -35.1391697 -0.738254E-11  0.299E-05    3.56     621.5  T
   3    -35.1391697 -0.923706E-12  0.159E-05    3.56    1170.7  T
     SCC iter.                  ...        0 min,  0.002 sec
     gradient                   ...        0 min,  0.007 sec
 * total energy  :   -34.6840420 Eh     change       -0.2615153E-09 Eh
   gradient norm :     0.0317910 Eh/α   predicted     0.0000000E+00 (-100.00%)
   displ. norm   :     0.1200985 α      lambda       -0.1701924E-02
   maximum displ.:     0.0401243 α      in ANC's #52, #22, #17, ...

........................................................................
.............................. CYCLE    2 ..............................
........................................................................

 iter      E             dE          RMSdq      gap      omega  full diag
   1    -35.1563010 -0.351563E+02  0.853E-02    3.62       0.0  T
   2    -35.1563232 -0.222444E-04  0.476E-02    3.61       1.0  T
   3    -35.1563227  0.488432E-06  0.175E-02    3.62       1.1  T
   4    -35.1563247 -0.197976E-05  0.406E-03    3.61       4.6  T
   5    -35.1563249 -0.165274E-06  0.167E-03    3.61      11.1  T
   6    -35.1563249 -0.105821E-07  0.600E-04    3.61      31.0  T
   7    -35.1563249 -0.801279E-09  0.224E-04    3.61      83.1  T
     SCC iter.                  ...        0 min,  0.004 sec
     gradient                   ...        0 min,  0.007 sec
 * total energy  :   -34.6850783 Eh     change       -0.1036247E-02 Eh
   gradient norm :     0.0095460 Eh/α   predicted    -0.8632633E-03 ( -16.69%)
   displ. norm   :     0.0642708 α      lambda       -0.1714777E-03
   maximum displ.:     0.0337197 α      in ANC's #3, #4, #11, ...

........................................................................
.............................. CYCLE    3 ..............................
........................................................................

 iter      E             dE          RMSdq      gap      omega  full diag
   1    -35.1614872 -0.351615E+02  0.265E-02    3.63       0.0  T
   2    -35.1614901 -0.289846E-05  0.145E-02    3.62       1.3  T
   3    -35.1614901 -0.533184E-07  0.550E-03    3.62       3.4  T
   4    -35.1614902 -0.761731E-07  0.124E-03    3.62      14.9  T
   5    -35.1614902 -0.176127E-07  0.543E-04    3.62      34.2  T
   6    -35.1614902 -0.168767E-08  0.176E-04    3.62     105.3  T
     SCC iter.                  ...        0 min,  0.004 sec
     gradient                   ...        0 min,  0.007 sec
 * total energy  :   -34.6851789 Eh     change       -0.1006763E-03 Eh
   gradient norm :     0.0021059 Eh/α   predicted    -0.8965053E-04 ( -10.95%)
   displ. norm   :     0.0450807 α      lambda       -0.2788154E-04
   maximum displ.:     0.0278964 α      in ANC's #3, #7, #4, ...

........................................................................
.............................. CYCLE    4 ..............................
........................................................................

 iter      E             dE          RMSdq      gap      omega  full diag
   1    -35.1616792 -0.351617E+02  0.124E-02    3.62       0.0  T
   2    -35.1616793 -0.109533E-06  0.724E-03    3.62       2.6  T
   3    -35.1616794 -0.501602E-08  0.978E-04    3.62      19.0  T
   4    -35.1616794 -0.672602E-08  0.354E-04    3.62      52.5  T
     SCC iter.                  ...        0 min,  0.003 sec
     gradient                   ...        0 min,  0.007 sec
 * total energy  :   -34.6852007 Eh     change       -0.2170758E-04 Eh
   gradient norm :     0.0011498 Eh/α   predicted    -0.1396957E-04 ( -35.65%)
   displ. norm   :     0.1296764 α      lambda       -0.3518403E-04
   maximum displ.:     0.0721370 α      in ANC's #3, #7, #4, ...

........................................................................
.............................. CYCLE    5 ..............................
........................................................................

 iter      E             dE          RMSdq      gap      omega  full diag
   1    -35.1606435 -0.351606E+02  0.352E-02    3.62       0.0  T
   2    -35.1606438 -0.277420E-06  0.208E-02    3.62       1.0  T
   3    -35.1606438 -0.119010E-07  0.188E-03    3.62       9.9  T
   4    -35.1606439 -0.507151E-07  0.778E-04    3.62      23.9  T
   5    -35.1606439 -0.193805E-08  0.279E-04    3.62      66.6  T
     SCC iter.                  ...        0 min,  0.003 sec
     gradient                   ...        0 min,  0.007 sec
 * total energy  :   -34.6852273 Eh     change       -0.2667578E-04 Eh
   gradient norm :     0.0027380 Eh/α   predicted    -0.1777985E-04 ( -33.35%)
   displ. norm   :     0.0275336 α      lambda       -0.1068037E-04
   maximum displ.:     0.0146343 α      in ANC's #5, #7, #3, ...

........................................................................
.............................. CYCLE    6 ..............................
........................................................................

 iter      E             dE          RMSdq      gap      omega  full diag
   1    -35.1606395 -0.351606E+02  0.914E-03    3.62       0.0  T
   2    -35.1606395 -0.285791E-07  0.539E-03    3.62       3.4  T
   3    -35.1606395  0.107167E-07  0.924E-04    3.62      20.1  T
   4    -35.1606395 -0.170392E-07  0.203E-04    3.62      91.5  T
     SCC iter.                  ...        0 min,  0.003 sec
     gradient                   ...        0 min,  0.007 sec
 * total energy  :   -34.6852364 Eh     change       -0.9046096E-05 Eh
   gradient norm :     0.0018930 Eh/α   predicted    -0.5350248E-05 ( -40.86%)
   displ. norm   :     0.1141325 α      lambda       -0.2186866E-04
   maximum displ.:     0.0636924 α      in ANC's #5, #7, #8, ...

........................................................................
.............................. CYCLE    7 ..............................
........................................................................

 iter      E             dE          RMSdq      gap      omega  full diag
   1    -35.1606839 -0.351607E+02  0.375E-02    3.62       0.0  T
   2    -35.1606844 -0.517088E-06  0.221E-02    3.62       1.0  T
   3    -35.1606842  0.152031E-06  0.351E-03    3.62       5.3  T
   4    -35.1606845 -0.238135E-06  0.797E-04    3.62      23.3  T
   5    -35.1606845 -0.475481E-08  0.391E-04    3.62      47.5  T
     SCC iter.                  ...        0 min,  0.003 sec
     gradient                   ...        0 min,  0.007 sec
 * total energy  :   -34.6852454 Eh     change       -0.9055467E-05 Eh
   gradient norm :     0.0017255 Eh/α   predicted    -0.1101149E-04 (  21.60%)
   displ. norm   :     0.0298013 α      lambda       -0.4393086E-05
   maximum displ.:     0.0142706 α      in ANC's #3, #5, #7, ...

........................................................................
.............................. CYCLE    8 ..............................
........................................................................

 iter      E             dE          RMSdq      gap      omega  full diag
   1    -35.1609916 -0.351610E+02  0.928E-03    3.62       0.0  T
   2    -35.1609916 -0.788180E-07  0.546E-03    3.62       3.4  T
   3    -35.1609916  0.857847E-08  0.111E-03    3.62      16.8  T
   4    -35.1609916 -0.138496E-07  0.271E-04    3.62      68.4  T
   5    -35.1609916 -0.100957E-08  0.941E-05    3.62     197.2  T
     SCC iter.                  ...        0 min,  0.003 sec
     gradient                   ...        0 min,  0.007 sec
 * total energy  :   -34.6852487 Eh     change       -0.3294299E-05 Eh
   gradient norm :     0.0003478 Eh/α   predicted    -0.2205834E-05 ( -33.04%)
   displ. norm   :     0.0069192 α      lambda       -0.5314566E-06
   maximum displ.:     0.0046606 α      in ANC's #3, #2, #1, ...

........................................................................
.............................. CYCLE    9 ..............................
........................................................................

 iter      E             dE          RMSdq      gap      omega  full diag
   1    -35.1609071 -0.351609E+02  0.289E-03    3.62       0.0  T
   2    -35.1609071 -0.430871E-08  0.172E-03    3.62      10.8  T
   3    -35.1609071  0.212010E-08  0.407E-04    3.62      45.7  T
   4    -35.1609071 -0.300868E-08  0.607E-05    3.62     305.7  T
     SCC iter.                  ...        0 min,  0.003 sec
     gradient                   ...        0 min,  0.007 sec
 * total energy  :   -34.6852491 Eh     change       -0.4054527E-06 Eh
   gradient norm :     0.0001662 Eh/α   predicted    -0.2732332E-06 ( -32.61%)
   displ. norm   :     0.0086222 α      lambda       -0.2430570E-06
   maximum displ.:     0.0044098 α      in ANC's #8, #5, #1, ...

........................................................................
.............................. CYCLE   10 ..............................
........................................................................

 iter      E             dE          RMSdq      gap      omega  full diag
   1    -35.1608656 -0.351609E+02  0.304E-03    3.62       0.0  T
   2    -35.1608656 -0.895717E-09  0.179E-03    3.62      10.4  T
   3    -35.1608656 -0.258780E-09  0.877E-05    3.62     211.8  T
   4    -35.1608656 -0.535252E-10  0.499E-05    3.62     372.2  T
     SCC iter.                  ...        0 min,  0.003 sec
     gradient                   ...        0 min,  0.007 sec
 * total energy  :   -34.6852494 Eh     change       -0.2621583E-06 Eh
   gradient norm :     0.0001052 Eh/α   predicted    -0.1260544E-06 ( -51.92%)
   displ. norm   :     0.0086759 α      lambda       -0.1465292E-06
   maximum displ.:     0.0046983 α      in ANC's #8, #1, #3, ...

........................................................................
.............................. CYCLE   11 ..............................
........................................................................

 iter      E             dE          RMSdq      gap      omega  full diag
   1    -35.1609147 -0.351609E+02  0.244E-03    3.62       0.0  T
   2    -35.1609147 -0.819171E-09  0.144E-03    3.62      12.9  T
   3    -35.1609147 -0.141583E-09  0.934E-05    3.62     198.8  T
   4    -35.1609147 -0.912905E-10  0.441E-05    3.62     420.7  T
     SCC iter.                  ...        0 min,  0.003 sec
     gradient                   ...        0 min,  0.007 sec
 * total energy  :   -34.6852495 Eh     change       -0.1397842E-06 Eh
   gradient norm :     0.0000490 Eh/α   predicted    -0.7477268E-07 ( -46.51%)
   displ. norm   :     0.0080381 α      lambda        0.5602955E-07
   maximum displ.:     0.0043058 α      in ANC's #8, #1, #3, ...

........................................................................
.............................. CYCLE   12 ..............................
........................................................................

 iter      E             dE          RMSdq      gap      omega  full diag
   1    -35.1609620 -0.351610E+02  0.231E-03    3.62       0.0  T
   2    -35.1609620 -0.769901E-09  0.136E-03    3.62      13.6  T
   3    -35.1609620 -0.107896E-09  0.957E-05    3.62     194.0  T
   4    -35.1609620 -0.107192E-09  0.427E-05    3.62     434.4  T
     SCC iter.                  ...        0 min,  0.003 sec
     gradient                   ...        0 min,  0.007 sec
 * total energy  :   -34.6852495 Eh     change        0.3240471E-07 Eh
   gradient norm :     0.0001563 Eh/α   predicted     0.2773054E-07 ( -14.42%)
   displ. norm   :     0.0033648 α      lambda       -0.1038702E-06
   maximum displ.:     0.0016911 α      in ANC's #5, #14, #3, ...

........................................................................
.............................. CYCLE   13 ..............................
........................................................................

 iter      E             dE          RMSdq      gap      omega  full diag
   1    -35.1609199 -0.351609E+02  0.162E-03    3.62       0.0  T
   2    -35.1609199 -0.636376E-09  0.952E-04    3.62      19.5  T
   3    -35.1609199 -0.309655E-10  0.897E-05    3.62     207.0  T
     SCC iter.                  ...        0 min,  0.002 sec
     gradient                   ...        0 min,  0.007 sec
 * total energy  :   -34.6852496 Eh     change       -0.1115279E-06 Eh
   gradient norm :     0.0000587 Eh/α   predicted    -0.5502060E-07 ( -50.67%)
   displ. norm   :     0.0033648 α      lambda        0.0000000E+00
   maximum displ.:     0.0016911 α      in ANC's #5, #14, #3, ...

........................................................................
.............................. CYCLE   14 ..............................
........................................................................

 iter      E             dE          RMSdq      gap      omega  full diag
   1    -35.1608775 -0.351609E+02  0.162E-03    3.62       0.0  T
   2    -35.1608775 -0.647937E-09  0.952E-04    3.62      19.5  T
   3    -35.1608775 -0.479119E-10  0.917E-05    3.62     202.4  T
     SCC iter.                  ...        0 min,  0.002 sec
     gradient                   ...        0 min,  0.007 sec
 * total energy  :   -34.6852496 Eh     change       -0.6671904E-08 Eh
   gradient norm :     0.0001159 Eh/α   predicted    -0.3996299E-08 ( -40.10%)
   displ. norm   :     0.0035677 α      lambda       -0.6571094E-07
   maximum displ.:     0.0027778 α      in ANC's #1, #3, #8, ...

   *** GEOMETRY OPTIMIZATION CONVERGED AFTER 14 ITERATIONS ***

------------------------------------------------------------------------
 total energy gain   :        -0.0012076 Eh       -0.7578 kcal/mol
 total RMSD          :         0.0730410 a0        0.0387 Å
 total power (kW/mol):        -0.2264673 (step)  -14.1756 (real)
------------------------------------------------------------------------

 ANCopt (total)                0 d,  0 h,  0 min,  0.224 sec
 optimizer setup                ...        0 min,  0.000 sec (  0.198%)
 model hessian                  ...        0 min,  0.021 sec (  9.488%)
 ANC generation                 ...        0 min,  0.001 sec (  0.264%)
 coordinate transformation      ...        0 min,  0.000 sec (  0.041%)
 single point calculation       ...        0 min,  0.194 sec ( 86.813%)
 optimization log               ...        0 min,  0.006 sec (  2.711%)
 hessian update                 ...        0 min,  0.000 sec (  0.043%)
 rational function              ...        0 min,  0.001 sec (  0.237%)

================
 final structure:
================
$coord
       -5.76313258750952        0.15117821678661        0.58031440729079      C
       -3.77709706834084       -0.47575411918486       -1.41915212787178      C
       -4.75761248617419       -0.77544216302936       -3.21711788256659      H
       -2.28278954991498       -2.86744417717433       -0.78280481903831      C
       -0.58382160504513       -2.50829904930474        1.51656561115629      C
        1.25652449129518       -0.28013495072888        1.20627260004038      C
        2.17426935595289        0.09275610960830        3.02653817752929      H
       -0.28826081476734        2.02771802198801        0.54108889844394      C
       -0.24544558458167        3.94309780443243        1.81468014836775      O
       -1.94478332294359        1.75634929552509       -1.75041086579360      C
        3.36277627536871       -0.73688715399504       -0.76258335963714      C
        4.89876602518422        1.68228266589579       -1.13112289399905      C
        5.11813218695908       -2.87453555549227        0.06133100338182      C
       -6.97346065943104       -1.47209475118667        0.92826078287661      H
       -4.88168793597525        0.71111970012593        2.35105108075110      H
       -6.93942247581933        1.71277780602159       -0.05331972635853      H
       -3.59738938111930       -4.41252068991943       -0.41229868308207      H
       -1.13974881902499       -3.40354117322291       -2.41246956234420      H
       -1.74891901734189       -2.15286892202525        3.18138117522671      H
        0.48054080448378       -4.23341932765421        1.87705910009882      H
       -2.98633759787807        3.51215163488064       -2.04362863663636      H
       -0.74518385484944        1.41293971236879       -3.39073576658196      H
        2.50581092160739       -1.25363102829510       -2.56957177020005      H
        3.71123299222566        3.23115178055263       -1.78061617829172      H
        6.38878137446391        1.38190362869961       -2.51370743657237      H
        5.76361406009448        2.25548721120290        0.64429808921204      H
        6.66708718729957       -3.05307260674680       -1.27644945328029      H
        4.13350776977043       -4.67335819928325        0.13423949634909      H
        5.90923407966743       -2.48005457639468        1.91680540254514      H
$end
 
 Bond Distances (Angstroems)
 ---------------------------
C1-C2=1.5278         C1-H14=1.0872        C1-H15=1.0878        C1-H16=1.0876        C2-C1=1.5278         C2-H3=1.0953         
C2-C4=1.5299         C2-C10=1.5382        H3-C2=1.0953         C4-C2=1.5299         C4-C5=1.5248         C4-H17=1.0913        
C4-H18=1.0909        C5-C4=1.5248         C5-C6=1.5381         C5-H19=1.0916        C5-H20=1.0895        C6-C5=1.5381         
C6-H7=1.0966         C6-C8=1.5112         C6-C11=1.5447        H7-C6=1.0966         C8-C6=1.5112         C8-O9=1.2174         
C8-C10=1.5032        O9-C8=1.2174         C10-C2=1.5382        C10-C8=1.5032        C10-H21=1.0914       C10-H22=1.0906       
C11-C6=1.5447        C11-C12=1.5289       C11-C13=1.5273       C11-H23=1.0931       C12-C11=1.5289       C12-H24=1.0885       
C12-H25=1.0873       C12-H26=1.0882       C13-C11=1.5273       C13-H27=1.0872       C13-H28=1.0859       C13-H29=1.0876       
H14-C1=1.0872        H15-C1=1.0878        H16-C1=1.0876        H17-C4=1.0913        H18-C4=1.0909        H19-C5=1.0916        
H20-C5=1.0895        H21-C10=1.0914       H22-C10=1.0906       H23-C11=1.0931       H24-C12=1.0885       H25-C12=1.0873       
H26-C12=1.0882       H27-C13=1.0872       H28-C13=1.0859       H29-C13=1.0876       
 C  H  Rav=1.0899 sigma=0.0029  Rmin=1.0859  Rmax=1.0966    18
 C  C  Rav=1.5274 sigma=0.0118  Rmin=1.5032  Rmax=1.5447    10
 O  C  Rav=1.2174 sigma=0.0000  Rmin=1.2174  Rmax=1.2174     1
 
 selected bond angles (degree)
 --------------------
H14-C1-C2=110.55               H15-C1-C2=111.15               H15-C1-H14=108.78              H16-C1-C2=110.19               
H16-C1-H14=108.38              H16-C1-H15=107.70              H3-C2-C1=107.89                C4-C2-C1=112.51                
C4-C2-H3=108.44                C10-C2-C1=110.23               C10-C2-H3=108.11               C10-C2-C4=109.54               
C5-C4-C2=112.17                H17-C4-C2=109.26               H17-C4-C5=109.02               H18-C4-C2=109.13               
H18-C4-C5=109.65               H18-C4-H17=107.50              C6-C5-C4=112.56                H19-C5-C4=109.42               
H19-C5-C6=108.16               H20-C5-C4=109.88               H20-C5-C6=109.49               H20-C5-H19=107.16              
H7-C6-C5=108.94                C8-C6-C5=107.57                C8-C6-H7=107.38                C11-C6-C5=114.14               
C11-C6-H7=107.52               C11-C6-C8=111.08               O9-C8-C6=122.26                C10-C8-C6=115.22               
C10-C8-O9=122.48               C8-C10-C2=110.43               H21-C10-C2=110.58              H21-C10-C8=109.14              
H22-C10-C2=109.25              H22-C10-C8=108.57              H22-C10-H21=108.82             
 
 selected dihedral angles (degree)
 ---------------------------------
H3-C2-C1-H14= 66.58           H3-C2-C1-H15=187.48           H3-C2-C1-H16=306.80           C4-C2-C1-H14=307.01           
C4-C2-C1-H15= 67.91           C4-C2-C1-H16=187.23           C10-C2-C1-H14=184.42          C10-C2-C1-H15=305.33          
C10-C2-C1-H16= 64.64          C5-C4-C2-C1=291.86            C5-C4-C2-H3=172.61            C5-C4-C2-C10= 54.83           
H17-C4-C2-C1= 52.86           H17-C4-C2-H3=293.61           H17-C4-C2-C10=175.84          H18-C4-C2-C1=170.14           
H18-C4-C2-H3= 50.89           H18-C4-C2-C10=293.12          C6-C5-C4-C2=303.76            C6-C5-C4-H17=182.61           
C6-C5-C4-H18= 65.17           H19-C5-C4-C2= 64.04           H19-C5-C4-H17=302.90          H19-C5-C4-H18=185.46          
H20-C5-C4-C2=181.44           H20-C5-C4-H17= 60.30          H20-C5-C4-H18=302.86          H7-C6-C5-C4=169.90            
H7-C6-C5-H19= 48.89           H7-C6-C5-H20=292.43           C8-C6-C5-C4= 53.80            C8-C6-C5-H19=292.79           
C8-C6-C5-H20=176.33           C11-C6-C5-C4=290.07           C11-C6-C5-H19=169.06          C11-C6-C5-H20= 52.60          
O9-C8-C6-C5=122.22            O9-C8-C6-H7=  5.10            O9-C8-C6-C11=247.79           C10-C8-C6-C5=304.22           
C10-C8-C6-H7=187.10           C10-C8-C6-C11= 69.79          C8-C10-C2-C1= 70.12           C8-C10-C2-H3=187.83           
C8-C10-C2-C4=305.81           H21-C10-C2-C1=309.22          H21-C10-C2-H3= 66.92          H21-C10-C2-C4=184.91          
H22-C10-C2-C1=189.47          H22-C10-C2-H3=307.18          H22-C10-C2-C4= 65.16          C2-C10-C8-C6= 57.55           
C2-C10-C8-O9=239.56           H21-C10-C8-C6=179.31          H21-C10-C8-O9=  1.32          H22-C10-C8-C6=297.80          
H22-C10-C8-O9=119.80          
           -------------------------------------------------
          |                Final Singlepoint                |
           -------------------------------------------------

          ...................................................
          :                      SETUP                      :
          :.................................................:
          :  # basis functions                  62          :
          :  # atomic orbitals                  62          :
          :  # shells                           40          :
          :  # electrons                        64          :
          :  max. iterations                   250          :
          :  Hamiltonian                  GFN2-xTB          :
          :  restarted?                      false          :
          :  GBSA solvation                   true          :
          :  PC potential                    false          :
          :  electronic temp.          300.0000000     K    :
          :  accuracy                    1.0000000          :
          :  -> integral cutoff          0.2500000E+02      :
          :  -> integral neglect         0.1000000E-07      :
          :  -> SCF convergence          0.1000000E-05 Eh   :
          :  -> wf. convergence          0.1000000E-03 e    :
          :  Broyden damping             0.4000000          :
          :  net charge                          0          :
          :  unpaired electrons                  0          :
          ...................................................

 iter      E             dE          RMSdq      gap      omega  full diag
   1    -35.1608775 -0.351609E+02  0.355E-05    3.62       0.0  T
   2    -35.1608775 -0.211742E-11  0.230E-05    3.62     807.8  T
   3    -35.1608775 -0.213163E-13  0.940E-06    3.62    1976.4  T

   *** convergence criteria satisfied after 3 iterations ***

         #    Occupation            Energy/Eh            Energy/eV
      -------------------------------------------------------------
         1        2.0000           -0.7136036             -19.4181
       ...           ...                  ...                  ...
        26        2.0000           -0.4440440             -12.0831
        27        2.0000           -0.4397210             -11.9654
        28        2.0000           -0.4346356             -11.8270
        29        2.0000           -0.4312204             -11.7341
        30        2.0000           -0.4251181             -11.5681
        31        2.0000           -0.4143061             -11.2738
        32        2.0000           -0.3879427             -10.5565 (HOMO)
        33                         -0.2549490              -6.9375 (LUMO)
        34                          0.0536590               1.4601
        35                          0.0669404               1.8215
        36                          0.0754968               2.0544
        37                          0.0897670               2.4427
       ...                                ...                  ...
        62                          0.5909942              16.0818
      -------------------------------------------------------------
                  HL-Gap            0.1329937 Eh            3.6189 eV
             Fermi-level           -0.3214458 Eh           -8.7470 eV

 SCC (total)                   0 d,  0 h,  0 min,  0.013 sec
 SCC setup                      ...        0 min,  0.001 sec ( 10.994%)
 Dispersion                     ...        0 min,  0.000 sec (  0.696%)
 classical contributions        ...        0 min,  0.000 sec (  0.207%)
 integral evaluation            ...        0 min,  0.002 sec ( 17.223%)
 iterations                     ...        0 min,  0.002 sec ( 16.887%)
 molecular gradient             ...        0 min,  0.007 sec ( 53.198%)
 printout                       ...        0 min,  0.000 sec (  0.712%)

         :::::::::::::::::::::::::::::::::::::::::::::::::::::
         ::                     SUMMARY                     ::
         :::::::::::::::::::::::::::::::::::::::::::::::::::::
         :: total energy             -34.685249620093 Eh    ::
         :: total w/o Gsasa/hb       -34.685660917014 Eh    ::
         :: gradient norm              0.000116128544 Eh/a0 ::
         :: HOMO-LUMO gap              3.618941612145 eV    ::
         ::.................................................::
         :: SCC energy               -35.160643268391 Eh    ::
         :: -> isotropic ES            0.042314440139 Eh    ::
         :: -> anisotropic ES          0.005138802174 Eh    ::
         :: -> anisotropic XC          0.016607391603 Eh    ::
         :: -> dispersion             -0.024406691464 Eh    ::
         :: -> Gsolv                  -0.007745092205 Eh    ::
         ::    -> Gelec               -0.008156389126 Eh    ::
         ::    -> Gsasa                0.000888019524 Eh    ::
         ::    -> Ghb                 -0.001557482301 Eh    ::
         ::    -> Gshift               0.001080759698 Eh    ::
         :: repulsion energy           0.475393648298 Eh    ::
         :: add. restraining           0.000000000000 Eh    ::
         :: total charge               0.000000000000 e     ::
         :::::::::::::::::::::::::::::::::::::::::::::::::::::

           ------------------------------------------------- 
          |                Numerical Hessian                |
           ------------------------------------------------- 
step length          :   0.00500
SCC accuracy         :   0.30000
Hessian scale factor :   1.00000
frozen atoms in %    :   0.00000    0
RMS gradient         :   0.00012
estimated CPU  time      0.04 min
estimated wall time      0.04 min

writing file <hessian>.

 projected vibrational frequencies (cm⁻¹)
eigval :       -0.00    -0.00    -0.00     0.00     0.00     0.00
eigval :       47.09    76.47   102.47   147.64   177.52   192.80
eigval :      211.21   216.34   309.71   329.57   359.75   373.78
eigval :      382.71   428.38   438.22   508.12   548.09   583.36
eigval :      706.03   793.11   854.95   862.63   901.73   924.65
eigval :      947.63   956.66   972.48   982.42   996.50  1014.78
eigval :     1036.93  1066.78  1091.07  1113.14  1131.52  1150.69
eigval :     1170.15  1173.71  1194.01  1225.42  1233.13  1265.79
eigval :     1273.38  1280.83  1312.31  1324.03  1329.48  1336.07
eigval :     1336.99  1354.06  1407.45  1415.81  1423.42  1450.84
eigval :     1480.02  1487.20  1491.07  1496.32  1497.54  1504.28
eigval :     1508.51  1514.95  1698.86  2924.80  2925.22  2951.62
eigval :     2973.60  2980.79  2984.00  2992.49  2994.56  3006.46
eigval :     3018.76  3026.74  3027.47  3031.02  3033.78  3035.93
eigval :     3039.33  3042.86  3052.62
           -------------------------------------------------
          |                Property Printout                |
           -------------------------------------------------

    * Orbital Energies and Occupations

         #    Occupation            Energy/Eh            Energy/eV
      -------------------------------------------------------------
         1        2.0000           -0.7136037             -19.4181
       ...           ...                  ...                  ...
        20        2.0000           -0.4789035             -13.0316
        21        2.0000           -0.4749860             -12.9250
        22        2.0000           -0.4654419             -12.6653
        23        2.0000           -0.4601383             -12.5210
        24        2.0000           -0.4532899             -12.3346
        25        2.0000           -0.4491356             -12.2216
        26        2.0000           -0.4440440             -12.0831
        27        2.0000           -0.4397210             -11.9654
        28        2.0000           -0.4346356             -11.8270
        29        2.0000           -0.4312204             -11.7341
        30        2.0000           -0.4251182             -11.5681
        31        2.0000           -0.4143061             -11.2738
        32        2.0000           -0.3879427             -10.5565 (HOMO)
        33                         -0.2549492              -6.9375 (LUMO)
        34                          0.0536589               1.4601
        35                          0.0669404               1.8215
        36                          0.0754967               2.0544
        37                          0.0897670               2.4427
        38                          0.0962036               2.6178
        39                          0.1006476               2.7388
        40                          0.1079075               2.9363
        41                          0.1224319               3.3315
        42                          0.1294323               3.5220
        43                          0.1377300               3.7478
       ...                                ...                  ...
        62                          0.5909940              16.0818
      -------------------------------------------------------------
                  HL-Gap            0.1329935 Eh            3.6189 eV
             Fermi-level           -0.3214459 Eh           -8.7470 eV

     #   Z          covCN         q      C6AA      α(0)
     1   6 C        3.754    -0.112    22.703     6.794
     2   6 C        3.853    -0.012    20.748     6.478
     3   1 H        0.924     0.046     2.365     2.405
     4   6 C        3.806    -0.072    21.866     6.657
     5   6 C        3.808    -0.062    21.677     6.628
     6   6 C        3.856    -0.046    21.350     6.571
     7   1 H        0.924     0.047     2.363     2.404
     8   6 C        2.823     0.253    22.761     7.817
     9   8 O        0.857    -0.445    22.609     6.375
    10   6 C        3.809    -0.092    22.246     6.714
    11   6 C        3.851    -0.011    20.730     6.476
    12   6 C        3.756    -0.110    22.663     6.788
    13   6 C        3.756    -0.117    22.799     6.808
    14   1 H        0.925     0.047     2.354     2.399
    15   1 H        0.925     0.031     2.571     2.508
    16   1 H        0.925     0.040     2.442     2.444
    17   1 H        0.924     0.051     2.309     2.376
    18   1 H        0.924     0.048     2.341     2.393
    19   1 H        0.924     0.039     2.464     2.455
    20   1 H        0.925     0.055     2.259     2.350
    21   1 H        0.924     0.057     2.239     2.340
    22   1 H        0.924     0.075     2.030     2.228
    23   1 H        0.924     0.044     2.400     2.423
    24   1 H        0.925     0.024     2.666     2.554
    25   1 H        0.925     0.047     2.360     2.402
    26   1 H        0.925     0.038     2.473     2.459
    27   1 H        0.925     0.048     2.346     2.395
    28   1 H        0.925     0.047     2.363     2.404
    29   1 H        0.925     0.041     2.436     2.441

 Mol. C6AA /au·bohr⁶  :       6270.852327
 Mol. C8AA /au·bohr⁸  :     136241.040620
 Mol. α(0) /au        :        117.485958


Wiberg/Mayer (AO) data.
largest (>0.10) Wiberg bond orders for each atom

 ---------------------------------------------------------------------------
     #   Z sym  total        # sym  WBO       # sym  WBO       # sym  WBO
 ---------------------------------------------------------------------------
     1   6 C    3.996 --     2 C    1.010    16 H    0.986    14 H    0.985
                            15 H    0.985
     2   6 C    3.993 --     1 C    1.010     4 C    0.999    10 C    0.967
                             3 H    0.967
     3   1 H    0.998 --     2 C    0.967
     4   6 C    3.996 --     5 C    1.011     2 C    0.999    18 H    0.973
                            17 H    0.972
     5   6 C    3.994 --     4 C    1.011    19 H    0.975     6 C    0.972
                            20 H    0.968
     6   6 C    3.992 --     8 C    0.985     5 C    0.972     7 H    0.964
                            11 C    0.960
     7   1 H    0.998 --     6 C    0.964
     8   6 C    3.891 --     9 O    1.803    10 C    1.006     6 C    0.985
     9   8 O    2.008 --     8 C    1.803
    10   6 C    3.995 --     8 C    1.006    21 H    0.973     2 C    0.967
                            22 H    0.945
    11   6 C    3.993 --    13 C    1.009    12 C    1.009    23 H    0.962
                             6 C    0.960
    12   6 C    3.996 --    11 C    1.009    26 H    0.986    25 H    0.985
                            24 H    0.984
    13   6 C    3.995 --    11 C    1.009    29 H    0.986    27 H    0.983
                            28 H    0.982
    14   1 H    0.998 --     1 C    0.985
    15   1 H    0.999 --     1 C    0.985
    16   1 H    0.998 --     1 C    0.986
    17   1 H    0.997 --     4 C    0.972
    18   1 H    0.998 --     4 C    0.973
    19   1 H    0.998 --     5 C    0.975
    20   1 H    0.997 --     5 C    0.968
    21   1 H    0.997 --    10 C    0.973
    22   1 H    0.994 --    10 C    0.945
    23   1 H    0.998 --    11 C    0.962
    24   1 H    0.999 --    12 C    0.984
    25   1 H    0.998 --    12 C    0.985
    26   1 H    0.999 --    12 C    0.986
    27   1 H    0.997 --    13 C    0.983
    28   1 H    0.998 --    13 C    0.982
    29   1 H    0.998 --    13 C    0.986
 ---------------------------------------------------------------------------

Topologies differ in total number of bonds
Writing topology from bond orders to xtbtopo.mol

molecular dipole:
                 x           y           z       tot (Debye)
 q only:       -0.041      -1.586      -0.926
   full:       -0.036      -1.536      -0.931       4.566
molecular quadrupole (traceless):
                xx          xy          yy          xz          yz          zz
 q only:        5.466      -0.002      -5.852       0.889      -5.015       0.386
  q+dip:        5.350      -0.291      -7.275       1.102      -5.460       1.926
   full:        5.817       0.175      -7.194       0.465      -5.910       1.377

           -------------------------------------------------
          |                Geometry Summary                 |
           -------------------------------------------------

      molecular mass/u    :      154.2496974
   center of mass at/Å    :        0.0000842      -0.0005870       0.0002474
  moments of inertia/u·Å² :        0.2961479E+03   0.5864030E+03   0.7275734E+03
rotational constants/cm⁻¹ :        0.5692301E-01   0.2874752E-01   0.2316967E-01

 * 26 selected distances

     #   Z          #   Z                                           value/Å
     1   6 C        2   6 C                                       1.5277786
     2   6 C        3   1 H                                       1.0952696
     2   6 C        4   6 C                                       1.5298691
     4   6 C        5   6 C                                       1.5247820
     5   6 C        6   6 C                                       1.5380654
     6   6 C        7   1 H                                       1.0966450
     8   6 C        9   8 O                                       1.2174007
     2   6 C       10   6 C                                       1.5382039 (max)
    11   6 C       12   6 C                                       1.5288982
    11   6 C       13   6 C                                       1.5272655
     1   6 C       14   1 H                                       1.0871954
     1   6 C       15   1 H                                       1.0878406
     1   6 C       16   1 H                                       1.0875518
     4   6 C       17   1 H                                       1.0912745
     4   6 C       18   1 H                                       1.0908947
     5   6 C       19   1 H                                       1.0916189
     5   6 C       20   1 H                                       1.0894965
    10   6 C       21   1 H                                       1.0913957
    10   6 C       22   1 H                                       1.0906233
    11   6 C       23   1 H                                       1.0930580
    12   6 C       24   1 H                                       1.0884948
    12   6 C       25   1 H                                       1.0873161
    12   6 C       26   1 H                                       1.0881827
    13   6 C       27   1 H                                       1.0871719
    13   6 C       28   1 H                                       1.0858537 (min)
    13   6 C       29   1 H                                       1.0876160

 * 3 distinct bonds (by element types)

   Z      Z             #   av. dist./Å        max./Å        min./Å
   1 H    6 C          18     1.0898611     1.0966450     1.0858537
   6 C    6 C           7     1.5306947     1.5382039     1.5247820
   6 C    8 O           1     1.2174007     1.2174007     1.2174007

           -------------------------------------------------
          |               Frequency Printout                |
           -------------------------------------------------
 projected vibrational frequencies (cm⁻¹)
eigval :       -0.00    -0.00    -0.00     0.00     0.00     0.00
eigval :       47.09    76.47   102.47   147.64   177.52   192.80
eigval :      211.21   216.34   309.71   329.57   359.75   373.78
eigval :      382.71   428.38   438.22   508.12   548.09   583.36
eigval :      706.03   793.11   854.95   862.63   901.73   924.65
eigval :      947.63   956.66   972.48   982.42   996.50  1014.78
eigval :     1036.93  1066.78  1091.07  1113.14  1131.52  1150.69
eigval :     1170.15  1173.71  1194.01  1225.42  1233.13  1265.79
eigval :     1273.38  1280.83  1312.31  1324.03  1329.48  1336.07
eigval :     1336.99  1354.06  1407.45  1415.81  1423.42  1450.84
eigval :     1480.02  1487.20  1491.07  1496.32  1497.54  1504.28
eigval :     1508.51  1514.95  1698.86  2924.80  2925.22  2951.62
eigval :     2973.60  2980.79  2984.00  2992.49  2994.56  3006.46
eigval :     3018.76  3026.74  3027.47  3031.02  3033.78  3035.93
eigval :     3039.33  3042.86  3052.62
 reduced masses (amu)
   1:  9.84   2: 10.32   3: 11.29   4: 10.70   5: 11.25   6: 10.90   7:  8.36   8: 10.91
   9: 11.15  10:  9.13  11:  8.16  12:  2.36  13:  3.19  14:  1.94  15:  8.28  16:  9.33
  17:  7.73  18:  7.96  19:  7.35  20:  9.59  21:  8.32  22: 10.77  23:  9.79  24:  9.08
  25:  8.81  26:  8.87  27:  7.33  28:  8.08  29:  6.97  30:  7.72  31:  2.85  32:  6.00
  33:  7.10  34:  3.97  35:  5.21  36:  5.89  37:  5.93  38:  4.55  39:  4.05  40:  6.22
  41:  3.70  42:  7.16  43:  7.59  44:  6.24  45:  6.21  46:  5.34  47:  6.64  48:  4.91
  49:  5.62  50:  4.40  51:  4.74  52:  4.86  53:  4.66  54:  4.66  55:  4.91  56:  4.75
  57:  3.23  58:  3.18  59:  3.04  60:  2.09  61:  1.81  62:  1.84  63:  1.59  64:  1.57
  65:  1.63  66:  1.59  67:  1.56  68:  1.64  69: 13.23  70:  1.75  71:  1.75  72:  1.76
  73:  1.90  74:  1.97  75:  1.90  76:  1.58  77:  1.51  78:  1.57  79:  1.93  80:  1.94
  81:  1.92  82:  1.90  83:  1.95  84:  1.57  85:  1.50  86:  1.26  87:  1.46
 IR intensities (km·mol⁻¹)
   1:  0.65   2:  0.46   3:  0.49   4:  0.40   5:  1.13   6:  1.11   7:  0.35   8:  2.93
   9:  3.25  10:  0.57  11:  0.12  12:  0.18  13:  0.45  14:  0.14  15:  1.03  16:  4.31
  17:  0.99  18:  0.43  19:  0.97  20:  1.03  21:  1.02  22: 24.45  23:  5.30  24:  0.20
  25: 12.03  26:  8.20  27:  1.36  28:  6.57  29:  3.95  30:  3.88  31:  1.57  32:  3.26
  33:  2.31  34:  0.72  35:  1.82  36: 14.36  37:  6.43  38:  8.42  39:  7.99  40:  4.23
  41: 46.62  42: 10.48  43:  4.42  44: 13.22  45: 16.17  46: 10.02  47:108.93  48: 14.30
  49: 14.80  50:  2.43  51: 13.23  52: 11.58  53: 17.91  54:  7.71  55:  1.29  56: 11.39
  57:  2.07  58:  2.32  59:  1.71  60:  6.73  61:  0.82  62:  0.86  63:  0.80  64:  2.56
  65:  0.63  66:  2.13  67:  0.68  68:  0.07  69:636.57  70:  5.98  71:149.10  72: 59.86
  73: 11.19  74: 58.28  75: 59.31  76: 60.18  77: 79.96  78: 67.45  79: 68.60  80: 73.98
  81: 42.26  82: 98.15  83: 68.73  84: 14.36  85: 97.50  86: 40.05  87: 45.09
 Raman intensities (Ä⁴*amu⁻¹)
   1:  0.00   2:  0.00   3:  0.00   4:  0.00   5:  0.00   6:  0.00   7:  0.00   8:  0.00
   9:  0.00  10:  0.00  11:  0.00  12:  0.00  13:  0.00  14:  0.00  15:  0.00  16:  0.00
  17:  0.00  18:  0.00  19:  0.00  20:  0.00  21:  0.00  22:  0.00  23:  0.00  24:  0.00
  25:  0.00  26:  0.00  27:  0.00  28:  0.00  29:  0.00  30:  0.00  31:  0.00  32:  0.00
  33:  0.00  34:  0.00  35:  0.00  36:  0.00  37:  0.00  38:  0.00  39:  0.00  40:  0.00
  41:  0.00  42:  0.00  43:  0.00  44:  0.00  45:  0.00  46:  0.00  47:  0.00  48:  0.00
  49:  0.00  50:  0.00  51:  0.00  52:  0.00  53:  0.00  54:  0.00  55:  0.00  56:  0.00
  57:  0.00  58:  0.00  59:  0.00  60:  0.00  61:  0.00  62:  0.00  63:  0.00  64:  0.00
  65:  0.00  66:  0.00  67:  0.00  68:  0.00  69:  0.00  70:  0.00  71:  0.00  72:  0.00
  73:  0.00  74:  0.00  75:  0.00  76:  0.00  77:  0.00  78:  0.00  79:  0.00  80:  0.00
  81:  0.00  82:  0.00  83:  0.00  84:  0.00  85:  0.00  86:  0.00  87:  0.00
 output can be read by thermo (or use thermo option).
 writing <g98.out> molden fake output.
 recommended (thermochemical) frequency scaling factor: 1.0
           -------------------------------------------------
          |             Thermodynamic Functions             |
           -------------------------------------------------

Molecule has no symmetry elements
It seems to be the C1 point group
c1  symmetry found (for desy threshold:  0.10E+00) used in thermo

          ...................................................
          :                      SETUP                      :
          :.................................................:
          :  # frequencies                          81      :
          :  # imaginary freq.                       0      :
          :  linear?                             false      :
          :  only rotor calc.                    false      :
          :  symmetry                               c1      :
          :  rotational number                       1      :
          :  scaling factor                  1.0000000      :
          :  rotor cutoff                    0.0000000 cm⁻¹ :
          :  imag. cutoff                 -100.0000000 cm⁻¹ :
          :.................................................:

    mode    ω/cm⁻¹     T·S(HO)/kcal·mol⁻¹    T·S(FR)/kcal·mol⁻¹   T·S(vib)
   ------------------------------------------------------------------------
       1     47.09    -1.47162 (100.00%)    -1.07409 (  0.00%)    -1.47162
       2     76.47    -1.18651 (100.00%)    -0.93058 (  0.00%)    -1.18651
       3    102.47    -1.01574 (100.00%)    -0.84389 (  0.00%)    -1.01574
       4    147.64    -0.80574 (100.00%)    -0.73574 (  0.00%)    -0.80574
       5    177.52    -0.70195 (100.00%)    -0.68115 (  0.00%)    -0.70195
       6    192.80    -0.65614 (100.00%)    -0.65668 (  0.00%)    -0.65614
       7    211.21    -0.60619 (100.00%)    -0.62967 (  0.00%)    -0.60619
       8    216.34    -0.59317 (100.00%)    -0.62256 (  0.00%)    -0.59317
   ------------------------------------------------------------------------

   temp. (K)  partition function   enthalpy   heat capacity  entropy
                                   cal/mol     cal/K/mol   cal/K/mol   J/K/mol
 298.15  VIB  0.322E+04             5804.843     40.278     35.518
         ROT  0.859E+06              888.752      2.981     30.133
         INT  0.276E+10             6693.595     43.259     65.651
         TR   0.185E+28             1481.254      4.968     40.991
         TOT                        8174.8491    48.2267   106.6425   446.1924

       T/K    H(0)-H(T)+PV         H(T)/Eh          T*S/Eh         G(T)/Eh
   ------------------------------------------------------------------------
    298.15    0.130275E-01    0.273113E+00    0.506693E-01    0.222444E+00
   ------------------------------------------------------------------------

         :::::::::::::::::::::::::::::::::::::::::::::::::::::
         ::                  THERMODYNAMIC                  ::
         :::::::::::::::::::::::::::::::::::::::::::::::::::::
         :: total free energy         -34.462805471853 Eh   ::
         ::.................................................::
         :: total energy              -34.685249620012 Eh   ::
         :: zero point energy           0.260086006132 Eh   ::
         :: G(RRHO) w/o ZPVE           -0.037641857973 Eh   ::
         :: G(RRHO) contrib.            0.222444148159 Eh   ::
         :::::::::::::::::::::::::::::::::::::::::::::::::::::

optimized geometry written to: xtbopt.coord


           -------------------------------------------------
          | TOTAL ENERGY              -34.685249620012 Eh   |
          | TOTAL ENTHALPY            -34.412136162622 Eh   |
          | TOTAL FREE ENERGY         -34.462805471853 Eh   |
          | GRADIENT NORM               0.000116116701 Eh/α |
          | HOMO-LUMO GAP               3.618938303880 eV   |
           -------------------------------------------------

------------------------------------------------------------------------
 * finished run on 2025/04/06 at 05:21:14.528     
------------------------------------------------------------------------
 total:
 * wall-time:     0 d,  0 h,  0 min,  2.851 sec
 *  cpu-time:     0 d,  0 h,  0 min,  2.760 sec
 * ratio c/w:     0.968 speedup
 SCF:
 * wall-time:     0 d,  0 h,  0 min,  0.034 sec
 *  cpu-time:     0 d,  0 h,  0 min,  0.021 sec
 * ratio c/w:     0.611 speedup
 ANC optimizer:
 * wall-time:     0 d,  0 h,  0 min,  0.248 sec
 *  cpu-time:     0 d,  0 h,  0 min,  0.233 sec
 * ratio c/w:     0.938 speedup
 analytical hessian:
 * wall-time:     0 d,  0 h,  0 min,  2.504 sec
 *  cpu-time:     0 d,  0 h,  0 min,  2.492 sec
 * ratio c/w:     0.995 speedup

