12
 energy: -211.319649334088 gnorm: 0.039316988045 xtb: 6.7.1 (edcfbbe)
C           -1.71903754766175       -0.56576191905070       -0.64281370588485
C           -1.19794545823084        0.05439646452410        0.64766837798700
C            0.04946496032192        0.91674967440624        0.40200761577814
C            1.16482631811617        0.12245922145426       -0.02844316341260
N            2.05648502851128       -0.51617966652873       -0.36095418975995
H           -2.59572430665023       -1.17575410432101       -0.44149415419564
H           -1.99483222798396        0.20711878249178       -1.35703251910134
H           -0.95807306412455       -1.19722459563052       -1.09736262848627
H           -1.96961440927279        0.68717038000450        1.08823988248223
H           -0.95636226742379       -0.73422237962535        1.36305290970400
H            0.34194372935152        1.43218642993464        1.32015016578499
H           -0.15551787756891        1.66389964383732       -0.36889089326347
12
 energy: -211.320328287942 gnorm: 0.013109312952 xtb: 6.7.1 (edcfbbe)
C           -1.72116451171448       -0.57260128194598       -0.64554445985376
C           -1.19894142980056        0.05090835654285        0.64420658073391
C            0.04834543249333        0.92226670062261        0.41133235322842
C            1.18339834972354        0.14241163229326       -0.02366248917391
N            2.05379607900671       -0.54105123792439       -0.37674015924695
H           -2.60405611922378       -1.18443591291316       -0.44819938446390
H           -1.99630824022407        0.20269130517363       -1.36606742771252
H           -0.96296461898859       -1.21239575181304       -1.10688801680608
H           -1.96353170042382        0.69241376002566        1.09037255140885
H           -0.95735816735222       -0.72893928419166        1.37257795400105
H            0.33971716543355        1.44552028301128        1.32759275804732
H           -0.15532027966965        1.67804926696657       -0.35485184208654
12
 energy: -211.320261675902 gnorm: 0.015014254788 xtb: 6.7.1 (edcfbbe)
C           -1.72592384503433       -0.57485259901517       -0.64527088784309
C           -1.20388402105997        0.05025317187899        0.64343257378852
C            0.04801133422292        0.91852911308269        0.41328929291988
C            1.16790413319570        0.11552098260122       -0.03605614743723
N            2.09078730234156       -0.50627738976900       -0.37356604355236
H           -2.61417048733345       -1.18431798943456       -0.44979194624412
H           -1.99744477303548        0.20002563082498       -1.37191958488339
H           -0.97184248511074       -1.22347299136957       -1.10821884919851
H           -1.96160065659693        0.70151872120171        1.09057025781347
H           -0.96624993207523       -0.72464651868974        1.38036690264586
H            0.34841267180375        1.43920405755748        1.32941493912286
H           -0.14838507786482        1.68335323145444       -0.34812201766157
12
 energy: -211.320480179471 gnorm: 0.001975631327 xtb: 6.7.1 (edcfbbe)
C           -1.72295901139684       -0.57455324719846       -0.64465850406805
C           -1.20193657022053        0.05052870080023        0.64344069301848
C            0.04873302498050        0.91990581654674        0.41263367170861
C            1.17952973427666        0.13157867389346       -0.03266956252587
N            2.07096994082019       -0.52138001740434       -0.37964199606244
H           -2.61056581029834       -1.18310338718625       -0.44852745210447
H           -1.99439513603299        0.19867622947213       -1.37147319606499
H           -0.96885926652548       -1.22276164933942       -1.10547032688560
H           -1.96373315772911        0.69831104734576        1.08770076282001
H           -0.96495859916532       -0.72503231645652        1.37914959110819
H            0.34358884698108        1.43817968940676        1.33154366864142
H           -0.14980096776875        1.68448797321755       -0.34789843588158
12
 energy: -211.320493228670 gnorm: 0.000738172437 xtb: 6.7.1 (edcfbbe)
C           -1.72216359631196       -0.57627802447753       -0.64400412288603
C           -1.20268929103144        0.05154316557809        0.64236680357636
C            0.04884260459630        0.92029154723965        0.41440454987592
C            1.18003379021510        0.13387594126037       -0.03601178815273
N            2.07091296307464       -0.51930516772963       -0.38693035631962
H           -2.61217275663240       -1.18150449763066       -0.44811586567292
H           -1.98999847853350        0.19469801590255       -1.37444208488061
H           -0.96956453720672       -1.22873860848002       -1.10118032108276
H           -1.96528938005563        0.70079102219982        1.08330762737575
H           -0.96830439140007       -0.72220034608085        1.38079311120458
H            0.34500390621581        1.43276978457009        1.33615767876766
H           -0.14899788961984        1.68889452458206       -0.34221563701396
12
 energy: -211.320511932864 gnorm: 0.001762434716 xtb: 6.7.1 (edcfbbe)
C           -1.71881213068004       -0.58046307396601       -0.64302362242316
C           -1.20507989583879        0.05411727663518        0.64117666932409
C            0.04864195024518        0.92042350028706        0.41850148292819
C            1.17748522474623        0.13722833454159       -0.04584431605726
N            2.06832811896590       -0.51145349213364       -0.40596149794313
H           -2.61540656802067       -1.17612304109546       -0.44753940321920
H           -1.97582910430591        0.18483854988065       -1.38326177934241
H           -0.96937040967001       -1.24425666424999       -1.08884827069014
H           -1.96908566017294        0.70770827420374        1.07342384306115
H           -0.97708906103615       -0.71511642654962        1.38615213548526
H            0.34991378871523        1.41828653920835        1.34665872281745
H           -0.14808358345447        1.69964718586849       -0.32730250560212
12
 energy: -211.320520762306 gnorm: 0.001264108560 xtb: 6.7.1 (edcfbbe)
C           -1.71524596118661       -0.58450698685130       -0.64236032127678
C           -1.20711396061289        0.05658961909297        0.64119046402781
C            0.04857954610632        0.92080538192760        0.42265322841349
C            1.17354311919416        0.14012256353535       -0.05453604641588
N            2.06173556653606       -0.50612556108267       -0.42469666341788
H           -2.61820646948065       -1.17139150762925       -0.44934990494110
H           -1.95989431366591        0.17673230158521       -1.39112568619013
H           -0.96700577270053       -1.25777463255701       -1.07576114028896
H           -1.97273670912443        0.71336675420554        1.06580883934762
H           -0.98436779125499       -0.70945204550903        1.39101681447295
H            0.35522395818274        1.40770954391184        1.35492602652259
H           -0.14889903377536        1.70876121336725       -0.31363237794432
12
 energy: -211.320524145827 gnorm: 0.000627109881 xtb: 6.7.1 (edcfbbe)
C           -1.71248590003886       -0.58546075040157       -0.64209739639105
C           -1.20802654369531        0.05732012881628        0.64277325745618
C            0.04800192831529        0.92104589980163        0.42395956990657
C            1.17019671550795        0.14054895952913       -0.05800279166390
N            2.05625030216187       -0.50547789626457       -0.43310083937813
H           -2.61810755179464       -1.16866038396082       -0.45151978942753
H           -1.95086751783119        0.17441815088013       -1.39401079804836
H           -0.96438426636995       -1.26221601708323       -1.06969903738506
H           -1.97445802102297        0.71462422394530        1.06469346863676
H           -0.98687012857241       -0.70799614253225        1.39367591654449
H            0.35673652389760        1.40525503622421        1.35672515969035
H           -0.15037374037453        1.71143535597213       -0.30926275754533
12
 energy: -211.320524145827 gnorm: 0.000627109881 xtb: 6.7.1 (edcfbbe)
C           -1.71248590003886       -0.58546075040157       -0.64209739639105
C           -1.20802654369531        0.05732012881628        0.64277325745618
C            0.04800192831529        0.92104589980163        0.42395956990657
C            1.17019671550795        0.14054895952913       -0.05800279166390
N            2.05625030216187       -0.50547789626457       -0.43310083937813
H           -2.61810755179464       -1.16866038396082       -0.45151978942753
H           -1.95086751783119        0.17441815088013       -1.39401079804836
H           -0.96438426636995       -1.26221601708323       -1.06969903738506
H           -1.97445802102297        0.71462422394530        1.06469346863676
H           -0.98687012857241       -0.70799614253225        1.39367591654449
H            0.35673652389760        1.40525503622421        1.35672515969035
H           -0.15037374037453        1.71143535597213       -0.30926275754533
