14
 energy: -617.975794140869 gnorm: 0.025224759026 xtb: 6.7.1 (edcfbbe)
C            2.48341714150047       -0.47884817421219        0.20339106379013
C            1.24615439295220        0.23082448110228       -0.33960165055049
C           -0.02375604851053       -0.19603283868687        0.38579200427095
H            0.06651081222947       -0.00647455890287        1.45775579134597
C           -0.43102889909100       -1.63255265012343        0.12621163125593
Cl          -1.37587374400969        0.89080769739474       -0.15678249366947
H            2.44334504218271       -1.54488559918458        0.00165862490073
H            2.56855388493819       -0.32904690254581        1.27668757786573
H            3.37287248949461       -0.07536707683340       -0.27207739342056
H            1.13694746180381        0.02375333401053       -1.40562767212287
H            1.37084656060746        1.30880820897997       -0.21964367669733
H            0.31808915194095       -2.30048100881940        0.54171115834005
H           -1.38612867661423       -1.84813238761896        0.59784321836492
H           -0.51928631303011       -1.81600691480472       -0.94169024701729
14
 energy: -617.976570291754 gnorm: 0.013703549052 xtb: 6.7.1 (edcfbbe)
C            2.48110905934734       -0.48356239117886        0.20360126298392
C            1.24625532855685        0.23694222724811       -0.33894684904613
C           -0.02828594090949       -0.19000435155585        0.37803800971941
H            0.06866988909008       -0.00327606572867        1.45162241890096
C           -0.43046649559502       -1.63046781407836        0.12811447059944
Cl          -1.40154681590539        0.90413786582782       -0.16316524507431
H            2.44646868264218       -1.55630931944677        0.00264987573223
H            2.57449523393828       -0.33806597104063        1.28332134439455
H            3.38017732597093       -0.08310365000906       -0.26996699701604
H            1.13202565792136        0.03621066988623       -1.40963678440091
H            1.37536387306350        1.31655468471326       -0.21728379128267
H            0.32811458609152       -2.29834969380240        0.54359482283794
H           -1.38362240419618       -1.86116163696464        0.60787114836843
H           -0.51809448532595       -1.82317891094038       -0.94418559848515
14
 energy: -617.976819144277 gnorm: 0.006369634351 xtb: 6.7.1 (edcfbbe)
C            2.47694480404964       -0.48678849977037        0.20180595051806
C            1.24550377800002        0.24175094713183       -0.34025386113730
C           -0.02425216504546       -0.19144209251432        0.37964950778339
H            0.06353285596944        0.00487221712569        1.45287221193358
C           -0.42943680496385       -1.62940993241168        0.12940163881662
Cl          -1.41192994433639        0.90987600754657       -0.17350622833205
H            2.44382881889271       -1.56232124128759       -0.00161881192190
H            2.57436414795235       -0.34764471640415        1.28561144864193
H            3.38273948140826       -0.08841505802104       -0.26811997618695
H            1.13158610441016        0.04953506644621       -1.41492970713696
H            1.37840844898146        1.32144371487254       -0.21222570295542
H            0.33580796608994       -2.29509900136167        0.54538339505755
H           -1.37964131309084       -1.86877916419588        0.61603347946678
H           -0.51679227085093       -1.83121267114225       -0.94447519306999
14
 energy: -617.976893601900 gnorm: 0.003323348886 xtb: 6.7.1 (edcfbbe)
C            2.47701924543368       -0.48898276359150        0.19926922428467
C            1.24572185719013        0.24234425135938       -0.33842857533330
C           -0.02268058746489       -0.19318274521693        0.37904409481749
H            0.05575233173500        0.01146385241570        1.45097104353635
C           -0.42708748243150       -1.62940807520005        0.13150279443368
Cl          -1.41875036307509        0.91247431739091       -0.18236467299849
H            2.44155619325989       -1.56326747861815       -0.00901923042122
H            2.57322080745304       -0.35519441742914        1.28370225023672
H            3.38397721084226       -0.09027317052699       -0.26779724030228
H            1.13249051971724        0.05602080109003       -1.41396530410662
H            1.37951778730853        1.32108339105411       -0.20434945631215
H            0.33980843335123       -2.29331923722620        0.54782521445394
H           -1.37526783602996       -1.86928189186248        0.62058465283887
H           -0.51461385819714       -1.83411134299144       -0.94134665151539
14
 energy: -617.976920291590 gnorm: 0.001022185257 xtb: 6.7.1 (edcfbbe)
C            2.47696806503217       -0.49127628402451        0.19732678357653
C            1.24614185893734        0.24349755500610       -0.33658344991694
C           -0.02050372099293       -0.19489519997675        0.37927079388429
H            0.04940461823748        0.01694780886434        1.44981317593517
C           -0.42491278037635       -1.62968479301499        0.13411677313216
Cl          -1.42069497601661        0.91099874457925       -0.19290740762686
H            2.43954240278591       -1.56319604219342       -0.01775942121141
H            2.57207040220112       -0.36355461823938        1.28155428005731
H            3.38239746147972       -0.08990442929409       -0.26788894919734
H            1.13294858568030        0.06173594480099       -1.41208057144776
H            1.37991074719774        1.32107018128586       -0.19677515896709
H            0.34186954173382       -2.29188794981543        0.55130745864024
H           -1.37220565953269       -1.86779290238900        0.62359529803615
H           -0.51227191243721       -1.83569264742484       -0.93736151426947
14
 energy: -617.976926858303 gnorm: 0.000959394029 xtb: 6.7.1 (edcfbbe)
C            2.47709767449277       -0.49315699572762        0.19563851814154
C            1.24617247419229        0.24446444288173       -0.33493246735432
C           -0.02071645757525       -0.19439160310912        0.37901223044649
H            0.04471766257943        0.02144023152395        1.44868759073910
C           -0.42312547921680       -1.62983292262681        0.13651674979764
Cl          -1.42171375876479        0.90848969479097       -0.20075034562170
H            2.43878201177474       -1.56298699381566       -0.02661429678203
H            2.57132729087966       -0.37189979870835        1.28001314745614
H            3.38153227462468       -0.08859582427077       -0.26735833479262
H            1.13316323300134        0.06611341432246       -1.41052647330400
H            1.38068090616564        1.32109922418284       -0.19097849260442
H            0.34306254597530       -2.29037130418892        0.55595987542762
H           -1.37082945579277       -1.86634584309628        0.62514221708660
H           -0.50948595136986       -1.83766048749119       -0.93418188846968
14
 energy: -617.976934559281 gnorm: 0.001002485194 xtb: 6.7.1 (edcfbbe)
C            2.47624005667716       -0.49568653633725        0.19327308342286
C            1.24606783755350        0.24671783985199       -0.33355964534526
C           -0.02176618526168       -0.19271865629396        0.37821802276135
H            0.04001478314386        0.02676592778812        1.44725288108099
C           -0.42117704141284       -1.62997134814900        0.13989934932145
Cl          -1.42229254324011        0.90520869863667       -0.20936793774274
H            2.43807324902049       -1.56338172171495       -0.03879740114101
H            2.56926776226918       -0.38396760314242        1.27868658019056
H            3.38087565989632       -0.08675529116440       -0.26540690789706
H            1.13314176510757        0.07286406729436       -1.40979390747162
H            1.38234933650466        1.32245978139289       -0.18498996232299
H            0.34465153806561       -2.28783633425032        0.56381270609918
H           -1.37008875790231       -1.86572920030024        0.62669213922399
H           -0.50469201172399       -1.84160459533608       -0.93029104846684
14
 energy: -617.976943383860 gnorm: 0.000730101264 xtb: 6.7.1 (edcfbbe)
C            2.47341024193624       -0.50129628301504        0.18736341870743
C            1.24546292430342        0.25101934643602       -0.33139868974810
C           -0.02482905447808       -0.18797021462583        0.37669701069890
H            0.03145803145398        0.03805422900014        1.44476365492159
C           -0.41629021059040       -1.62935520044333        0.14698223193952
Cl          -1.42486328673849        0.89915651897239       -0.22571136221591
H            2.43613140067622       -1.56457294075680       -0.06617743876044
H            2.56196220688444       -0.41133736038003        1.27565339760121
H            3.38049476316616       -0.08338445896850       -0.25922552640223
H            1.13229528465869        0.08748270609220       -1.40942783103039
H            1.38592206603648        1.32503860194719       -0.17329087257196
H            0.34882202166041       -2.28075956897088        0.58277072908994
H           -1.36816749411810       -1.86445622523381        0.62880865747935
H           -0.49114237534408       -1.85125460489375       -0.92217958792057
14
 energy: -617.976945396547 gnorm: 0.000406153770 xtb: 6.7.1 (edcfbbe)
C            2.47180660062489       -0.50249263563780        0.18577500173696
C            1.24557611011587        0.25267126868442       -0.33176974420646
C           -0.02483448728007       -0.18739013078518        0.37599491341639
H            0.03106551763155        0.03993079160410        1.44391577550117
C           -0.41523007808048       -1.62936039146999        0.14877449321280
Cl          -1.42493743300415        0.89845553326319       -0.22727320060114
H            2.43514078292453       -1.56452895839636       -0.07250737251054
H            2.55818422060454       -0.41800548969511        1.27461990088054
H            3.38031419029617       -0.08304632393995       -0.25640824135030
H            1.13146861006303        0.09105233583809       -1.40999488044574
H            1.38697367529231        1.32641748951811       -0.17222506957495
H            0.34939270110953       -2.27873583100069        0.58861106450883
H           -1.36829282334400       -1.86477159749423        0.62822921489263
H           -0.48596080547947       -1.85383165397250       -0.92011409822856
14
 energy: -617.976945396547 gnorm: 0.000406153770 xtb: 6.7.1 (edcfbbe)
C            2.47180660062489       -0.50249263563780        0.18577500173696
C            1.24557611011587        0.25267126868442       -0.33176974420646
C           -0.02483448728007       -0.18739013078518        0.37599491341639
H            0.03106551763155        0.03993079160410        1.44391577550117
C           -0.41523007808048       -1.62936039146999        0.14877449321280
Cl          -1.42493743300415        0.89845553326319       -0.22727320060114
H            2.43514078292453       -1.56452895839636       -0.07250737251054
H            2.55818422060454       -0.41800548969511        1.27461990088054
H            3.38031419029617       -0.08304632393995       -0.25640824135030
H            1.13146861006303        0.09105233583809       -1.40999488044574
H            1.38697367529231        1.32641748951811       -0.17222506957495
H            0.34939270110953       -2.27873583100069        0.58861106450883
H           -1.36829282334400       -1.86477159749423        0.62822921489263
H           -0.48596080547947       -1.85383165397250       -0.92011409822856
