
                                 *****************
                                 * O   R   C   A *
                                 *****************

                                            #,                                       
                                            ###                                      
                                            ####                                     
                                            #####                                    
                                            ######                                   
                                           ########,                                 
                                     ,,################,,,,,                         
                               ,,#################################,,                 
                          ,,##########################################,,             
                       ,#########################################, ''#####,          
                    ,#############################################,,   '####,        
                  ,##################################################,,,,####,       
                ,###########''''           ''''###############################       
              ,#####''   ,,,,##########,,,,          '''####'''          '####       
            ,##' ,,,,###########################,,,                        '##       
           ' ,,###''''                  '''############,,,                           
         ,,##''                                '''############,,,,        ,,,,,,###''
      ,#''                                            '''#######################'''  
     '                                                          ''''####''''         
             ,#######,   #######,   ,#######,      ##                                
            ,#'     '#,  ##    ##  ,#'     '#,    #''#        ,####,   ,####,        
            ##       ##  ##   ,#'  ##            #'  '#       #'       #'  '#        
            ##       ##  #######   ##           ,######,      #####,   #    #        
            '#,     ,#'  ##    ##  '#,     ,#' ,#      #,     #,   #   #,  ,#        
             '#######'   ##     ##  '#######'  #'      '#     '####' # '####'        



                #########################################################
                #                        -***-                          #
                #          Department of theory and spectroscopy        #
                #                                                       #
                #                      Frank Neese                      #
                #                                                       #
                #     Directorship, Architecture, Infrastructure        #
                #                    SHARK, DRIVERS                     #
                #        Core code/Algorithms in most modules           #
                #                                                       #
                #        Max Planck Institute fuer Kohlenforschung      #
                #                Kaiser Wilhelm Platz 1                 #
                #                 D-45470 Muelheim/Ruhr                 #
                #                      Germany                          #
                #                                                       #
                #                  All rights reserved                  #
                #                        -***-                          #
                #########################################################


                         Program Version 6.0.0  -   RELEASE  -


 With contributions from (in alphabetic order):
   Daniel Aravena         : Magnetic Suceptibility
   Michael Atanasov       : Ab Initio Ligand Field Theory (pilot matlab implementation)
   Alexander A. Auer      : GIAO ZORA, VPT2 properties, NMR spectrum
   Ute Becker             : All parallelization in ORCA, NUMFREQ, NUMCALC
   Giovanni Bistoni       : ED, misc. LED, open-shell LED, HFLD
   Martin Brehm           : Molecular dynamics
   Dmytro Bykov           : pre 5.0 version of the SCF Hessian
   Marcos Casanova-Páez   : Triplet and SCS-CIS(D). UHF-(DLPNO)-IP/EA/STEOM-CCSD. UHF-CVS-IP/STEOM-CCSD
   Vijay G. Chilkuri      : MRCI spin determinant printing, contributions to CSF-ICE
   Pauline Colinet        : FMM embedding
   Dipayan Datta          : RHF DLPNO-CCSD density
   Achintya Kumar Dutta   : EOM-CC, STEOM-CC
   Nicolas Foglia         : Exact transition moments, OPA infrastructure, MCD improvements
   Dmitry Ganyushin       : Spin-Orbit,Spin-Spin,Magnetic field MRCI
   Miquel Garcia          : C-PCM and meta-GGA Hessian, CCSD/C-PCM, Gaussian charge scheme
   Tiago L. C. Gouveia    : GS-ROHF, GS-ROCIS
   Yang Guo               : DLPNO-NEVPT2, F12-NEVPT2, CIM, IAO-localization
   Andreas Hansen         : Spin unrestricted coupled pair/coupled cluster methods
   Ingolf Harden          : AUTO-CI MPn and infrastructure 
   Benjamin Helmich-Paris : MC-RPA, TRAH-(SCF,CASSCF), AVAS, COSX integrals, SCF dyn. polar.
   Lee Huntington         : MR-EOM, pCC
   Robert Izsak           : Overlap fitted RIJCOSX, COSX-SCS-MP3, EOM
   Riya Kayal             : Wick's Theorem for AUTO-CI, AUTO-CI UHF-CCSDT
   Emily Kempfer          : AUTO-CI, RHF CISDT and CCSDT
   Christian Kollmar      : KDIIS, OOCD, Brueckner-CCSD(T), CCSD density, CASPT2, CASPT2-K, improved NEVPT2
   Axel Koslowski         : Symmetry handling
   Simone Kossmann        : Meta GGA functionals, TD-DFT gradient, OOMP2, (MP2 Hessian; deprecated post 5.0)
   Lucas Lang             : DCDCAS
   Marvin Lechner         : AUTO-CI (C++ implementation), FIC-MRCC
   Spencer Leger          : CASSCF response
   Dagmar Lenk            : GEPOL surface, SMD, ORCA-2-JSON
   Dimitrios Liakos       : Extrapolation schemes; Compound Job, initial MDCI parallelization
   Dimitrios Manganas     : Further ROCIS development; embedding schemes. LFT, Crystal Embedding
   Dimitrios Pantazis     : SARC Basis sets
   Anastasios Papadopoulos: AUTO-CI, single reference methods and gradients
   Taras Petrenko         : pre 6.0 DFT Hessian and TD-DFT gradient, (ASA, deprecated), ECA, 1-Electron XAS/XES, NRVS
   Peter Pinski           : DLPNO-MP2, DLPNO-MP2 Gradient
   Christoph Reimann      : Effective Core Potentials
   Marius Retegan         : Local ZFS, SOC
   Christoph Riplinger    : Optimizer, TS searches, QM/MM, DLPNO-CCSD(T), (RO)-DLPNO pert. Triples
   Michael Roemelt        : Original ROCIS implementation
   Masaaki Saitow         : Open-shell DLPNO-CCSD energy and density
   Barbara Sandhoefer     : DKH picture change effects
   Kantharuban Sivalingam : CASSCF convergence/infrastructure, NEVPT2 and variants, FIC-MRCI
   Bernardo de Souza      : ESD, SOC TD-DFT
   Georgi Stoychev        : AutoAux, RI-MP2 NMR, DLPNO-MP2 response, X2C
   Van Anh Tran           : RI-MP2 g-tensors
   Willem Van den Heuvel  : Paramagnetic NMR
   Zikuan Wang            : NOTCH, Electric field optimization 
   Frank Wennmohs         : Technical directorship and infrastructure
   Hang Xu                : AUTO-CI-Response properties 


 We gratefully acknowledge several colleagues who have allowed us to
 interface, adapt or use parts of their codes:
   Stefan Grimme, W. Hujo, H. Kruse, P. Pracht,  : VdW corrections, initial TS optimization,
                  C. Bannwarth, S. Ehlert,         DFT functionals, gCP, sTDA/sTD-DF
                  L. Wittmann, M. Mueller
   Ed Valeev, F. Pavosevic, A. Kumar             : LibInt (2-el integral package), F12 methods
   Garnet Chan, S. Sharma, J. Yang, R. Olivares  : DMRG
   Ulf Ekstrom                                   : XCFun DFT Library
   Mihaly Kallay                                 : mrcc  (arbitrary order and MRCC methods)
   Frank Weinhold                                : gennbo (NPA and NBO analysis)
   Simon Mueller                                 : openCOSMO-RS
   Christopher J. Cramer and Donald G. Truhlar   : smd solvation model
   Lars Goerigk                                  : TD-DFT with DH, B97 family of functionals
   V. Asgeirsson, H. Jonsson                     : NEB implementation
   FAccTs GmbH                                   : IRC, NEB, NEB-TS, DLPNO-Multilevel, CI-OPT
                                                   MM, QMMM, 2- and 3-layer-ONIOM, Crystal-QMMM,
                                                   LR-CPCM, SF, NACMEs, symmetry and pop. for TD-DFT,
                                                   nearIR, NL-DFT gradient (VV10), updates on ESD,
                                                   ML-optimized integration grids, MBIS, APM,
                                                   GOAT, DOCKER, SOLVATOR, interface openCOSMO-RS
   S Lehtola, MJT Oliveira, MAL Marques          : LibXC Library
   Liviu Ungur et al                             : ANISO software


 Your calculation uses the libint2 library for the computation of 2-el integrals
 For citations please refer to: http://libint.valeyev.net

 Your ORCA version has been built with support for libXC version: 6.2.2
 For citations please refer to: https://libxc.gitlab.io

 This ORCA versions uses:
   CBLAS   interface :  Fast vector & matrix operations
   LAPACKE interface :  Fast linear algebra routines
   SCALAPACK package :  Parallel linear algebra routines
   Shared memory     :  Shared parallel matrices
   BLAS/LAPACK       :  OpenBLAS 0.3.27  USE64BITINT DYNAMIC_ARCH NO_AFFINITY SkylakeX SINGLE_THREADED
        Core in use  :  SkylakeX
   Copyright (c) 2011-2014, The OpenBLAS Project


Your calculation utilizes the geometrical counterpoise correction gCP
Please cite in your paper:
H.Kruse, S. Grimme J.Chem.Phys., 136, (2012), 154101 
   

Your calculation utilizes the atom-pairwise dispersion correction
based on EEQ partial charges (D4)


Your calculation utilizes the SMD solvation module
Please cite in your paper:
A.V. Marenich, C.J. Cramer, D.G. Truhlar J. Phys. Chem. B, 113, (2009), 6378 

================================================================================

----- Orbital basis set information -----
Your calculation utilizes the basis: def2-mTZVPP
   Stefan Grimme, Andreas Hansen, Sebastian Ehlert, and Jan-Michael Mewes 
   J. Chem. Phys. 154, 064103 (2021). DOI: 10.1063/5.0040021

----- AuxJ basis set information -----
Your calculation utilizes the auxiliary basis: def2/J
   F. Weigend, Phys. Chem. Chem. Phys. 8, 1057 (2006).

================================================================================
                                        WARNINGS
                       Please study these warnings very carefully!
================================================================================

Using LibXC functional ID 497 : Re-regularized SCAN exchange by Furness et al
[ 1]  J. W. Furness, A. D. Kaplan, J. Ning, J. P. Perdew, and J. Sun.,  J. Phys. Chem. Lett. 11, 8208-8215 (2020)
[ 2]  J. W. Furness, A. D. Kaplan, J. Ning, J. P. Perdew, and J. Sun.,  J. Phys. Chem. Lett. 11, 9248-9248 (2020)
Using LibXC functional ID 498 : Re-regularized SCAN correlation by Furness et al
[ 1]  J. W. Furness, A. D. Kaplan, J. Ning, J. P. Perdew, and J. Sun.,  J. Phys. Chem. Lett. 11, 8208-8215 (2020)
[ 2]  J. W. Furness, A. D. Kaplan, J. Ning, J. P. Perdew, and J. Sun.,  J. Phys. Chem. Lett. 11, 9248-9248 (2020)
Using LibXC functional ID 497 : Re-regularized SCAN exchange by Furness et al
[ 1]  J. W. Furness, A. D. Kaplan, J. Ning, J. P. Perdew, and J. Sun.,  J. Phys. Chem. Lett. 11, 8208-8215 (2020)
[ 2]  J. W. Furness, A. D. Kaplan, J. Ning, J. P. Perdew, and J. Sun.,  J. Phys. Chem. Lett. 11, 9248-9248 (2020)
Using LibXC functional ID 498 : Re-regularized SCAN correlation by Furness et al
[ 1]  J. W. Furness, A. D. Kaplan, J. Ning, J. P. Perdew, and J. Sun.,  J. Phys. Chem. Lett. 11, 8208-8215 (2020)
[ 2]  J. W. Furness, A. D. Kaplan, J. Ning, J. P. Perdew, and J. Sun.,  J. Phys. Chem. Lett. 11, 9248-9248 (2020)

================================================================================
                                       INPUT FILE
================================================================================
NAME = sp_solv.inp
|  1> ! r2scan-3c def2/J RI DEFGRID2 scfconv6 printgap
|  2> %output
|  3>     printlevel normal
|  4> end
|  5> %cpcm
|  6>     smd true
|  7>     smdsolvent "water"
|  8> end
|  9> * xyz 0 1
| 10> C 1.7164429314 0.4461205995 0.6064168711
| 11> C 0.8969128703 0.3470204944 -0.6767817113
| 12> C -0.5662612534 -0.0846544045 -0.4729840834
| 13> H -1.0518319854 -0.0944769791 -1.4568962152
| 14> C -1.3378219328 0.8578961036 0.450018428
| 15> O -0.6642595222 -1.4296932432 -0.0350858101
| 16> H 1.731394915 -0.5041661634 1.1349257476
| 17> H 1.3212898084 1.2128644756 1.2670162405
| 18> H 2.7429291829 0.7076267308 0.3618693407
| 19> H 1.3642935237 -0.3807796221 -1.3438851002
| 20> H 0.8946757349 1.3133222645 -1.1830499988
| 21> H -0.9296724707 0.8313554979 1.4571166194
| 22> H -1.2827998064 1.8743914226 0.0721928337
| 23> H -2.3807654235 0.5538953115 0.49353068
| 24> H -0.3172565663 -1.4851938767 0.8662462298
| 25> *
| 26> 
| 27>                          ****END OF INPUT****
================================================================================

                       ****************************
                       * Single Point Calculation *
                       ****************************

---------------------------------
CARTESIAN COORDINATES (ANGSTROEM)
---------------------------------
  C      1.716443    0.446121    0.606417
  C      0.896913    0.347020   -0.676782
  C     -0.566261   -0.084654   -0.472984
  H     -1.051832   -0.094477   -1.456896
  C     -1.337822    0.857896    0.450018
  O     -0.664260   -1.429693   -0.035086
  H      1.731395   -0.504166    1.134926
  H      1.321290    1.212864    1.267016
  H      2.742929    0.707627    0.361869
  H      1.364294   -0.380780   -1.343885
  H      0.894676    1.313322   -1.183050
  H     -0.929672    0.831355    1.457117
  H     -1.282800    1.874391    0.072193
  H     -2.380765    0.553895    0.493531
  H     -0.317257   -1.485194    0.866246

----------------------------
CARTESIAN COORDINATES (A.U.)
----------------------------
  NO LB      ZA    FRAG     MASS         X           Y           Z
   0 C     6.0000    0    12.011    3.243607    0.843046    1.145962
   1 C     6.0000    0    12.011    1.694920    0.655774   -1.278932
   2 C     6.0000    0    12.011   -1.070079   -0.159974   -0.893810
   3 H     1.0000    0     1.008   -1.987674   -0.178536   -2.753135
   4 C     6.0000    0    12.011   -2.528117    1.621189    0.850412
   5 O     8.0000    0    15.999   -1.255269   -2.701729   -0.066303
   6 H     1.0000    0     1.008    3.271862   -0.952736    2.144699
   7 H     1.0000    0     1.008    2.496876    2.291982    2.394314
   8 H     1.0000    0     1.008    5.183385    1.337221    0.683834
   9 H     1.0000    0     1.008    2.578141   -0.719569   -2.539575
  10 H     1.0000    0     1.008    1.690692    2.481819   -2.235641
  11 H     1.0000    0     1.008   -1.756826    1.571034    2.753551
  12 H     1.0000    0     1.008   -2.424140    3.542086    0.136425
  13 H     1.0000    0     1.008   -4.498995    1.046710    0.932638
  14 H     1.0000    0     1.008   -0.599528   -2.806610    1.636968

--------------------------------
INTERNAL COORDINATES (ANGSTROEM)
--------------------------------
 C      0   0   0     0.000000000000     0.00000000     0.00000000
 C      1   0   0     1.525794531957     0.00000000     0.00000000
 C      2   1   0     1.539076089004   114.67578730     0.00000000
 H      3   2   1     1.097250428047   107.72704438   178.63101488
 C      3   2   1     1.528280399130   112.76478461    58.45532208
 O      3   2   1     1.417916794476   111.87980311   292.05093807
 H      1   2   3     1.087469597780   111.06060012    58.23566075
 H      1   2   3     1.086477652327   111.21277516   296.60715878
 H      1   2   3     1.087135215073   109.48710691   177.22923827
 H      2   1   3     1.092320747872   109.09122111   239.38462184
 H      2   1   3     1.090894905388   109.50365928   121.48321152
 H      5   3   2     1.086985351458   110.78952223   295.03343945
 H      5   3   2     1.085837164427   109.97579958    55.64884395
 H      5   3   2     1.087217053980   109.63451731   175.38678627
 H      6   3   2     0.967414501583   108.50376837    68.68941805

---------------------------
INTERNAL COORDINATES (A.U.)
---------------------------
 C      0   0   0     0.000000000000     0.00000000     0.00000000
 C      1   0   0     2.883333802034     0.00000000     0.00000000
 C      2   1   0     2.908432307484   114.67578730     0.00000000
 H      3   2   1     2.073502809337   107.72704438   178.63101488
 C      3   2   1     2.888031410196   112.76478461    58.45532208
 O      3   2   1     2.679474422248   111.87980311   292.05093807
 H      1   2   3     2.055019718770   111.06060012    58.23566075
 H      1   2   3     2.053145213523   111.21277516   296.60715878
 H      1   2   3     2.054387827029   109.48710691   177.22923827
 H      2   1   3     2.064187063878   109.09122111   239.38462184
 H      2   1   3     2.061492612073   109.50365928   121.48321152
 H      5   3   2     2.054104625840   110.78952223   295.03343945
 H      5   3   2     2.051934866800   109.97579958    55.64884395
 H      5   3   2     2.054542480151   109.63451731   175.38678627
 H      6   3   2     1.828148465975   108.50376837    68.68941805

---------------------
BASIS SET INFORMATION
---------------------
There are 3 groups of distinct atoms

 Group   1 Type C   : 11s6p1d contracted to 5s3p1d pattern {62111/411/1}
 Group   2 Type H   : 4s1p contracted to 2s1p pattern {31/1}
 Group   3 Type O   : 11s6p2d contracted to 5s3p2d pattern {62111/411/11}

Atom   0C    basis set group =>   1
Atom   1C    basis set group =>   1
Atom   2C    basis set group =>   1
Atom   3H    basis set group =>   2
Atom   4C    basis set group =>   1
Atom   5O    basis set group =>   3
Atom   6H    basis set group =>   2
Atom   7H    basis set group =>   2
Atom   8H    basis set group =>   2
Atom   9H    basis set group =>   2
Atom  10H    basis set group =>   2
Atom  11H    basis set group =>   2
Atom  12H    basis set group =>   2
Atom  13H    basis set group =>   2
Atom  14H    basis set group =>   2
---------------------------------
AUXILIARY/J BASIS SET INFORMATION
---------------------------------
There are 3 groups of distinct atoms

 Group   1 Type C   : 12s5p4d2f1g contracted to 6s4p3d1f1g pattern {711111/2111/211/2/1}
 Group   2 Type H   : 5s2p1d contracted to 3s1p1d pattern {311/2/1}
 Group   3 Type O   : 12s5p4d2f1g contracted to 6s4p3d1f1g pattern {711111/2111/211/2/1}

Atom   0C    basis set group =>   1
Atom   1C    basis set group =>   1
Atom   2C    basis set group =>   1
Atom   3H    basis set group =>   2
Atom   4C    basis set group =>   1
Atom   5O    basis set group =>   3
Atom   6H    basis set group =>   2
Atom   7H    basis set group =>   2
Atom   8H    basis set group =>   2
Atom   9H    basis set group =>   2
Atom  10H    basis set group =>   2
Atom  11H    basis set group =>   2
Atom  12H    basis set group =>   2
Atom  13H    basis set group =>   2
Atom  14H    basis set group =>   2

Checking for AutoStart:
The File: sp_solv.gbw exists
Trying to determine its content:
     ... Fine, the file contains calculation information
     ... Fine, the calculation information was read
     ... Fine, the file contains a basis set
     ... Fine, the basis set was read
     ... Fine, the file contains a geometry
     ... Fine, the geometry was read
     ... Fine, the file contains a set of orbitals
     ... Fine, the orbitals can be read
     => possible old guess file was deleted
     => GBW file was renamed to GES file
     => GES file is set as startup file
     => Guess is set to MORead
     ... now leaving AutoStart

------------------------------------------------------------------------------
                             ORCA STARTUP CALCULATIONS
                           -- RI-GTO INTEGRALS CHOSEN --
------------------------------------------------------------------------------
------------------------------------------------------------------------------
                   ___                                                        
                  /   \      - P O W E R E D   B Y -                         
                 /     \                                                     
                 |  |  |   _    _      __       _____    __    __             
                 |  |  |  | |  | |    /  \     |  _  \  |  |  /  |          
                  \  \/   | |  | |   /    \    | | | |  |  | /  /          
                 / \  \   | |__| |  /  /\  \   | |_| |  |  |/  /          
                |  |  |   |  __  | /  /__\  \  |    /   |      \           
                |  |  |   | |  | | |   __   |  |    \   |  |\   \          
                \     /   | |  | | |  |  |  |  | |\  \  |  | \   \       
                 \___/    |_|  |_| |__|  |__|  |_| \__\ |__|  \__/        
                                                                              
                      - O R C A' S   B I G   F R I E N D -                    
                                      &                                       
                       - I N T E G R A L  F E E D E R -                       
                                                                              
 v1 FN, 2020, v2 2021, v3 2022-2024                                           
------------------------------------------------------------------------------


----------------------
SHARK INTEGRAL PACKAGE
----------------------

Number of atoms                             ...     15
Number of basis functions                   ...    150
Number of shells                            ...     76
Maximum angular momentum                    ...      2
Integral batch strategy                     ... SHARK/LIBINT Hybrid
RI-J (if used) integral strategy            ... SPLIT-RIJ (Revised 2003 algorithm where possible)
Printlevel                                  ...      1
Contraction scheme used                     ... SEGMENTED contraction
Prescreening option                         ... SCHWARTZ
   Thresh                                   ... 1.000e-10
   Tcut                                     ... 1.000e-11
   Tpresel                                  ... 1.000e-11 
Coulomb Range Separation                    ... NOT USED
Exchange Range Separation                   ... NOT USED
Multipole approximations                    ... NOT USED
Finite Nucleus Model                        ... NOT USED
CABS basis                                  ... NOT available
Auxiliary Coulomb fitting basis             ... AVAILABLE
   # of basis functions in Aux-J            ...    355
   # of shells in Aux-J                     ...    125
   Maximum angular momentum in Aux-J        ...      4
Auxiliary J/K fitting basis                 ... NOT available
Auxiliary Correlation fitting basis         ... NOT available
Auxiliary 'external' fitting basis          ... NOT available

Checking pre-screening integrals            ... done (  0.0 sec) Dimension = 76
Check shell pair data                       ... done (  0.0 sec)
Shell pair information
Shell pair cut-off parameter TPreSel        ...   1.0e-11
Total number of shell pairs                 ...      2926
Shell pairs after pre-screening             ...      2831
Total number of primitive shell pairs       ...     10151
Primitive shell pairs kept                  ...      7462
          la=0 lb=0:    987 shell pairs
          la=1 lb=0:   1087 shell pairs
          la=1 lb=1:    319 shell pairs
          la=2 lb=0:    268 shell pairs
          la=2 lb=1:    149 shell pairs
          la=2 lb=2:     21 shell pairs

Calculating one electron integrals          ... done (  0.0 sec)
Calculating RI/J V-Matrix + Cholesky decomp.... done (  0.0 sec)
Calculating Nuclear repulsion               ... done (  0.0 sec) ENN=    195.390867673975 Eh

Diagonalization of the overlap matrix:
Smallest eigenvalue                        ... 2.665e-04
Time for diagonalization                   ...    0.002 sec
Threshold for overlap eigenvalues          ... 1.000e-07
Number of eigenvalues below threshold      ... 0
Time for construction of square roots      ...    0.014 sec
Total time needed                          ...    0.027 sec

-------------------
DFT GRID GENERATION
-------------------

General Integration Accuracy     IntAcc      ... 4.388
Radial Grid Type                 RadialGrid  ... OptM3 with GC (2021)
Angular Grid (max. ang.)         AngularGrid ... 4 (Lebedev-302)
Angular grid pruning method      GridPruning ... 4 (adaptive)
Weight generation scheme         WeightScheme... mBecke (2022)
Basis function cutoff            BFCut       ... 1.0000e-10
Integration weight cutoff        WCut        ... 1.0000e-14
Partially contracted basis set               ... off
Rotationally invariant grid construction     ... off
Angular grids for H and He will be reduced by one unit
Diffuse basis detected: some atoms will have their outermost
                        angular grid increased by 1.

Total number of grid points                  ...    62581
Total number of batches                      ...      988
Average number of points per batch           ...       63
Average number of grid points per atom       ...     4172
Initializing property integral containers    ... done (  0.0 sec)

SHARK setup successfully completed in   0.9 seconds

Maximum memory used throughout the entire STARTUP-calculation: 27.1 MB
-------------------------------------------------------------------------------
                                 ORCA GUESS
                   Start orbitals & Density for SCF / CASSCF
-------------------------------------------------------------------------------

------------
SCF SETTINGS
------------
Hamiltonian:
 Density Functional     Method          .... DFT(GTOs)
  Functional kind                       .... Exchange
  Functional name                       .... Re-regularized SCAN exchange by Furness et al
  Functional family                     .... MGGA
  Functional refs                              
    [ 0] J. W. Furness, A. D. Kaplan, J. Ning, J. P. Perdew, and J. Sun.,  J. Phys. Chem. Lett. 11, 8208-8215 (2020), doi: 10.1021/acs.jpclett.0c02405
    [ 1] J. W. Furness, A. D. Kaplan, J. Ning, J. P. Perdew, and J. Sun.,  J. Phys. Chem. Lett. 11, 9248-9248 (2020), doi: 10.1021/acs.jpclett.0c03077
  Functional external parameters        .... 6
    Parameter  0 _c1        =  6.670000e-01 : c1 parameter        
    Parameter  1 _c2        =  8.000000e-01 : c2 parameter        
    Parameter  2 _d         =  1.240000e+00 : d parameter         
    Parameter  3 _k1        =  6.500000e-02 : k1 parameter        
    Parameter  4 _eta       =  1.000000e-03 : eta parameter       
    Parameter  5 _dp2       =  3.610000e-01 : dp2 parameter       
  Functional kind                       .... Correlation
  Functional name                       .... Re-regularized SCAN correlation by Furness et al
  Functional family                     .... MGGA
  Functional refs                              
    [ 0] J. W. Furness, A. D. Kaplan, J. Ning, J. P. Perdew, and J. Sun.,  J. Phys. Chem. Lett. 11, 8208-8215 (2020), doi: 10.1021/acs.jpclett.0c02405
    [ 1] J. W. Furness, A. D. Kaplan, J. Ning, J. P. Perdew, and J. Sun.,  J. Phys. Chem. Lett. 11, 9248-9248 (2020), doi: 10.1021/acs.jpclett.0c03077
  Functional external parameters        .... 1
    Parameter  0 _eta       =  1.000000e-03 : Regularization parameter
 Gradients option       PostSCFGGA      .... off
 RI-approximation to the Coulomb term is turned on
   Number of AuxJ basis functions       .... 355


General Settings:
 Integral files         IntName         .... sp_solv
 Hartree-Fock type      HFTyp           .... RHF
 Total Charge           Charge          ....    0
 Multiplicity           Mult            ....    1
 Number of Electrons    NEL             ....   42
 Basis Dimension        Dim             ....  150
 Nuclear Repulsion      ENuc            ....    195.3908676740 Eh

Convergence Acceleration:
 AO-DIIS                CNVDIIS         .... on
   Start iteration      DIISMaxIt       ....    12
   Startup error        DIISStart       ....  0.200000
   # of expansion vecs  DIISMaxEq       ....     5
   Bias factor          DIISBfac        ....   1.050
   Max. coefficient     DIISMaxC        ....  10.000
 MO-DIIS                CNVKDIIS        .... off
 Trust-Rad. Augm. Hess. CNVTRAH         .... auto
   Auto Start mean grad. ratio tolernc. ....  1.125000
   Auto Start start iteration           ....     1
   Auto Start num. interpolation iter.  ....    10
   Max. Number of Micro iterations      ....    24
   Max. Number of Macro iterations      .... Maxiter - #DIIS iter
   Number of Davidson start vectors     ....     2
   Converg. threshold    (grad. norm)   ....   3.330e-04
   Grad. Scal. Fac. for Micro threshold ....   0.100
   Minimum threshold for Micro iter.    ....   1.000e-02
   NR start threshold (gradient norm)   ....   1.000e-04
   Initial trust radius                 ....   0.400
   Minimum AH scaling param. (alpha)    ....   1.000
   Maximum AH scaling param. (alpha)    .... 1000.000
   Quad. conv. algorithm                .... NR
   White noise on init. David. guess    .... on
   Maximum white noise                  ....   0.010
   Pseudo random numbers                .... off
   Inactive MOs                         .... canonical
   Orbital update algorithm             .... Taylor
   Preconditioner                       .... Diag
   Full preconditioner red. dimension   ....   250
   COSX micro iterations for RIJONX calc.... off
 SOSCF                  CNVSOSCF        .... on
   Start iteration      SOSCFMaxIt      ....   150
   Startup grad/error   SOSCFStart      ....  0.003300
   Hessian update       SOSCFHessUp     .... L-BFGS
 Level Shifting         CNVShift        .... on
   Level shift para.    LevelShift      ....    0.2500
   Turn off err/grad.   ShiftErr        ....    0.0010
 Zerner damping         CNVZerner       .... off
 Static damping         CNVDamp         .... on
   Fraction old density DampFac         ....    0.7000
   Max. Damping (<1)    DampMax         ....    0.9800
   Min. Damping (>=0)   DampMin         ....    0.0000
   Turn off err/grad.   DampErr         ....    0.1000

SCF Procedure:
 Maximum # iterations   MaxIter         ....   125
 SCF integral mode      SCFMode         .... Direct
   Integral package                     .... SHARK and LIBINT hybrid scheme
 Reset frequency        DirectResetFreq ....    20
 Integral Threshold     Thresh          ....  1.000e-10 Eh
 Primitive CutOff       TCut            ....  1.000e-11 Eh

Convergence Tolerance:
 Convergence Check Mode ConvCheckMode   .... Total+1el-Energy
 Convergence forced     ConvForced      .... 0
 Energy Change          TolE            ....  1.000e-06 Eh
 1-El. energy change                    ....  1.000e-03 Eh
 Orbital Gradient       TolG            ....  3.330e-04
 Orbital Rotation angle TolX            ....  3.330e-04
 DIIS Error             TolErr          ....  1.000e-06

---------------------
INITIAL GUESS: MOREAD
---------------------
Guess MOs are being read from file: sp_solv.ges
Input Geometry matches current geometry (good)
Atom 0: N(Shells)= 9 and 6 - projection required
Input basis set needs projection
NBasis(read)= 90
NBasis(calc)= 150
Basis set overlap was calculated
Using GuessMode=FMatrix for the initial guess
C*T matrix was formed
Effective Fockian was calculated
Effective Fockian was diagonalized
Initial density was built
                      ------------------
                      INITIAL GUESS DONE (   0.0 sec)
                      ------------------
             **** ENERGY FILE WAS UPDATED (sp_solv.en.tmp) ****
Finished Guess after   0.3 sec
Maximum memory used throughout the entire GUESS-calculation: 10.4 MB

-------------------------------------------------------------------------------------------
                                      ORCA LEAN-SCF
                              memory conserving SCF solver
-------------------------------------------------------------------------------------------

--------------------
CPCM SOLVATION MODEL
--------------------
CPCM parameters:
  Epsilon                                         ...      78.3550
  Refrac                                          ...       1.3328
  Rsolv                                           ...       1.3000
  Surface type                                    ... GAUSSIAN VDW
  Discretization scheme                           ... Constant charge density
    Threshold for H atoms                         ...       5.0000 (charges/Ang^2)
    Threshold for non-H atoms                     ...       5.0000 (charges/Ang^2)
  Epsilon function type                           ...         CPCM
Solvent:                                          ... WATER
SMD-CDS solvent descriptors:
  Soln                                            ...       1.3328
  Soln25                                          ...       1.3323
  Sola                                            ...       0.0000
  Solb                                            ...       0.0000
  Solg                                            ...       0.0000
  Solc                                            ...       0.0000
  Solh                                            ...       0.0000
Radii:
  Scheme                                          ... Element-dependent radii
  Radius for C  used is    3.4960 Bohr (=   1.8500 Ang.)
  Radius for H  used is    2.2677 Bohr (=   1.2000 Ang.)
  Radius for O  used is    2.8724 Bohr (=   1.5200 Ang.)
Calculating surface                               ...        done! (  0.0s)
Cavity surface points                             ...         1104
Cavity Volume                                     ...     616.9938
Cavity Surface-area                               ...     423.4516
Calculating surface distance matrix               ...        done! (  0.0s)
Performing Cholesky decomposition & store         ...        done! (  0.1s)
Overall time for CPCM initialization              ...                 0.1s

----------------------------------------D-I-I-S--------------------------------------------
Iteration    Energy (Eh)           Delta-E    RMSDP     MaxDP     DIISErr   Damp  Time(sec)
-------------------------------------------------------------------------------------------
               ***  Starting incremental Fock matrix formation  ***
    1    -233.4827498880991357     0.00e+00  4.35e-03  1.39e-01  6.27e-01  0.700   1.6
    2    -233.5231440962104443    -4.04e-02  3.57e-03  8.98e-02  4.41e-01  0.700   1.5
    3    -233.5518556441712690    -2.87e-02  2.64e-03  5.83e-02  3.10e-01  0.700   1.7
    4    -233.5720732815302085    -2.02e-02  1.90e-03  3.89e-02  2.17e-01  0.700   1.5
                               ***Turning on AO-DIIS***
    5    -233.5862860074664695    -1.42e-02  1.38e-03  2.58e-02  1.52e-01  0.700   1.6
    6    -233.5962644498122813    -9.98e-03  9.87e-04  1.82e-02  1.06e-01  0.700   1.4
    7    -233.6032708604973891    -7.01e-03  6.99e-04  1.28e-02  7.42e-02  0.700   1.4
    8    -233.6081848783501300    -4.91e-03  1.65e-03  3.02e-02  5.21e-02  0.000   1.4
                              *** Initializing SOSCF ***
---------------------------------------S-O-S-C-F--------------------------------------
Iteration    Energy (Eh)           Delta-E    RMSDP     MaxDP     MaxGrad    Time(sec)
--------------------------------------------------------------------------------------
    9    -233.6196850526155799    -1.15e-02  1.59e-05  3.41e-04  1.56e-04     1.4
               *** Restarting incremental Fock matrix formation ***
   10    -233.6196851962699270    -1.44e-07  8.18e-06  1.48e-04  2.80e-05     1.6
                  *** Gradient check signals convergence ***

               *****************************************************
               *                     SUCCESS                       *
               *           SCF CONVERGED AFTER  10 CYCLES          *
               *****************************************************


SMD CDS free energy correction energy :                 2.86364     Kcal/mol
Total Energy after SMD CDS correction =              -233.615121696 Eh
             **** ENERGY FILE WAS UPDATED (sp_solv.en.tmp) ****

----------------
TOTAL SCF ENERGY
----------------

Total Energy       :       -233.61512169636376 Eh           -6356.99064 eV

Components:
Nuclear Repulsion  :        195.39086767397481 Eh            5316.85581 eV
Electronic Energy  :       -428.99680758659872 Eh          -11673.59661 eV
One Electron Energy:       -702.71725965491305 Eh          -19121.90877 eV
Two Electron Energy:        273.72045206831433 Eh            7448.31217 eV
CPCM Dielectric    :         -0.01374528364603 Eh              -0.37403 eV
SMD CDS (Gcds)     :          0.00456349990616 Eh               0.12418 eV

Virial components:
Potential Energy   :       -466.17997278481528 Eh          -12685.40197 eV
Kinetic Energy     :        232.56485108845155 Eh            6328.41133 eV
Virial Ratio       :          2.00451603328275

DFT components:
N(Alpha)           :       20.999976972464 electrons
N(Beta)            :       20.999976972464 electrons
N(Total)           :       41.999953944928 electrons
E(X)               :      -32.662420183284 Eh       
E(C)               :       -1.312827721061 Eh       
E(XC)              :      -33.975247904345 Eh       

CPCM Solvation Model Properties:
Surface-charge          :         -0.04300518251565
Corrected charge        :          0.00000000000000
Outlying charge corr.   :          0.00016472834384 Eh               0.00448 eV
Free-energy (cav+disp)  :          0.00456349990616 Eh               0.12418 eV

---------------
SCF CONVERGENCE
---------------

  Last Energy change         ...    1.4365e-07  Tolerance :   1.0000e-06
  Last MAX-Density change    ...    1.4755e-04  Tolerance :   1.0000e-05
  Last RMS-Density change    ...    8.1765e-06  Tolerance :   1.0000e-06
  Last DIIS Error            ...    1.5642e-04  Tolerance :   1.0000e-06
  Last Orbital Gradient      ...    2.8008e-05  Tolerance :   3.3300e-04
  Last Orbital Rotation      ...    7.9006e-05  Tolerance :   3.3300e-04


----------------
ORBITAL ENERGIES
----------------

  NO   OCC          E(Eh)            E(eV) 
   0   2.0000     -18.948037      -515.6023 
   1   2.0000     -10.074237      -274.1339 
   2   2.0000     -10.016795      -272.5708 
   3   2.0000     -10.009704      -272.3779 
   4   2.0000     -10.009129      -272.3623 
   5   2.0000      -0.985328       -26.8121 
   6   2.0000      -0.743965       -20.2443 
   7   2.0000      -0.682511       -18.5721 
   8   2.0000      -0.608945       -16.5702 
   9   2.0000      -0.541081       -14.7236 
  10   2.0000      -0.449383       -12.2283 
  11   2.0000      -0.430406       -11.7119 
  12   2.0000      -0.404130       -10.9969 
  13   2.0000      -0.392540       -10.6816 
  14   2.0000      -0.349593        -9.5129 
  15   2.0000      -0.346667        -9.4333 
  16   2.0000      -0.331646        -9.0245 
  17   2.0000      -0.310865        -8.4591 
  18   2.0000      -0.299014        -8.1366 
  19   2.0000      -0.278580        -7.5806 
  20   2.0000      -0.237216        -6.4550 
  21   0.0000       0.075933         2.0662 
  22   0.0000       0.117002         3.1838 
  23   0.0000       0.123176         3.3518 
  24   0.0000       0.141059         3.8384 
  25   0.0000       0.146559         3.9881 
  26   0.0000       0.154527         4.2049 
  27   0.0000       0.163492         4.4488 
  28   0.0000       0.166879         4.5410 
  29   0.0000       0.192532         5.2391 
  30   0.0000       0.200438         5.4542 
  31   0.0000       0.206732         5.6255 
*Only the first 10 virtual orbitals were printed.

                    ********************************
                    * MULLIKEN POPULATION ANALYSIS *
                    ********************************

-----------------------
MULLIKEN ATOMIC CHARGES
-----------------------
   0 C :   -0.533874
   1 C :   -0.239471
   2 C :    0.024140
   3 H :    0.153714
   4 C :   -0.527292
   5 O :   -0.504616
   6 H :    0.156853
   7 H :    0.163512
   8 H :    0.160615
   9 H :    0.153302
  10 H :    0.150248
  11 H :    0.168859
  12 H :    0.163524
  13 H :    0.161457
  14 H :    0.349030
Sum of atomic charges:    0.0000000

--------------------------------
MULLIKEN REDUCED ORBITAL CHARGES
--------------------------------
  0 C s       :     3.344791  s :     3.344791
      pz      :     0.984303  p :     3.162162
      px      :     1.083723
      py      :     1.094136
      dz2     :     0.004533  d :     0.026920
      dxz     :     0.005467
      dyz     :     0.008276
      dx2y2   :     0.006343
      dxy     :     0.002302

  1 C s       :     3.209374  s :     3.209374
      pz      :     0.961534  p :     2.994401
      px      :     0.937195
      py      :     1.095672
      dz2     :     0.005595  d :     0.035696
      dxz     :     0.008658
      dyz     :     0.008439
      dx2y2   :     0.008179
      dxy     :     0.004824

  2 C s       :     3.184147  s :     3.184147
      pz      :     1.037565  p :     2.723890
      px      :     0.971861
      py      :     0.714463
      dz2     :     0.011552  d :     0.067824
      dxz     :     0.009899
      dyz     :     0.012719
      dx2y2   :     0.017851
      dxy     :     0.015803

  3 H s       :     0.829359  s :     0.829359
      pz      :     0.009803  p :     0.016927
      px      :     0.004920
      py      :     0.002204

  4 C s       :     3.344297  s :     3.344297
      pz      :     1.039302  p :     3.157357
      px      :     1.078584
      py      :     1.039471
      dz2     :     0.006722  d :     0.025638
      dxz     :     0.004074
      dyz     :     0.004474
      dx2y2   :     0.007072
      dxy     :     0.003296

  5 O s       :     3.752754  s :     3.752754
      pz      :     1.445287  p :     4.733796
      px      :     1.858113
      py      :     1.430396
      dz2     :     0.004595  d :     0.018067
      dxz     :     0.006169
      dyz     :     0.001231
      dx2y2   :     0.002346
      dxy     :     0.003725

  6 H s       :     0.824723  s :     0.824723
      pz      :     0.005429  p :     0.018424
      px      :     0.003762
      py      :     0.009234

  7 H s       :     0.818053  s :     0.818053
      pz      :     0.006412  p :     0.018435
      px      :     0.004747
      py      :     0.007276

  8 H s       :     0.820985  s :     0.820985
      pz      :     0.003995  p :     0.018401
      px      :     0.010242
      py      :     0.004163

  9 H s       :     0.828852  s :     0.828852
      pz      :     0.006278  p :     0.017847
      px      :     0.004814
      py      :     0.006755

 10 H s       :     0.831753  s :     0.831753
      pz      :     0.005136  p :     0.017999
      px      :     0.003396
      py      :     0.009467

 11 H s       :     0.812667  s :     0.812667
      pz      :     0.010112  p :     0.018474
      px      :     0.004776
      py      :     0.003585

 12 H s       :     0.818047  s :     0.818047
      pz      :     0.004445  p :     0.018428
      px      :     0.003665
      py      :     0.010318

 13 H s       :     0.820238  s :     0.820238
      pz      :     0.003663  p :     0.018305
      px      :     0.010536
      py      :     0.004105

 14 H s       :     0.608065  s :     0.608065
      pz      :     0.021581  p :     0.042906
      px      :     0.013449
      py      :     0.007876


------------------------
MULLIKEN OVERLAP CHARGES
------------------------
B(  0-C ,  1-C ) :   0.3324 B(  0-C ,  2-C ) :  -0.1970 B(  0-C ,  6-H ) :   0.8389 
B(  0-C ,  7-H ) :   0.8436 B(  0-C ,  8-H ) :   0.7987 B(  0-C ,  9-H ) :  -0.0727 
B(  0-C , 10-H ) :  -0.0653 B(  1-C ,  2-C ) :   0.5390 B(  1-C ,  3-H ) :  -0.1126 
B(  1-C ,  4-C ) :  -0.2546 B(  1-C ,  5-O ) :  -0.1484 B(  1-C ,  6-H ) :  -0.0888 
B(  1-C ,  7-H ) :  -0.0839 B(  1-C ,  8-H ) :  -0.0721 B(  1-C ,  9-H ) :   0.8493 
B(  1-C , 10-H ) :   0.8137 B(  2-C ,  3-H ) :   0.8557 B(  2-C ,  4-C ) :   0.5242 
B(  2-C ,  5-O ) :   0.4053 B(  2-C ,  9-H ) :  -0.0867 B(  2-C , 10-H ) :  -0.0745 
B(  2-C , 11-H ) :  -0.0659 B(  2-C , 12-H ) :  -0.0919 B(  2-C , 13-H ) :  -0.0608 
B(  2-C , 14-H ) :  -0.1012 B(  3-H ,  4-C ) :  -0.0501 B(  3-H ,  5-O ) :  -0.1050 
B(  4-C ,  5-O ) :  -0.1468 B(  4-C , 11-H ) :   0.8480 B(  4-C , 12-H ) :   0.8107 
B(  4-C , 13-H ) :   0.7951 B(  5-O , 14-H ) :   0.6396 


                     *******************************
                     * LOEWDIN POPULATION ANALYSIS *
                     *******************************

----------------------
LOEWDIN ATOMIC CHARGES
----------------------
   0 C :   -0.431389
   1 C :   -0.299631
   2 C :    0.039016
   3 H :    0.183144
   4 C :   -0.405166
   5 O :   -0.646780
   6 H :    0.153886
   7 H :    0.155191
   8 H :    0.156119
   9 H :    0.161509
  10 H :    0.163006
  11 H :    0.160992
  12 H :    0.165126
  13 H :    0.160420
  14 H :    0.284557

-------------------------------
LOEWDIN REDUCED ORBITAL CHARGES
-------------------------------
  0 C s       :     2.970126  s :     2.970126
      pz      :     1.107901  p :     3.398514
      px      :     1.133184
      py      :     1.157430
      dz2     :     0.009846  d :     0.062748
      dxz     :     0.012839
      dyz     :     0.019328
      dx2y2   :     0.015528
      dxy     :     0.005208

  1 C s       :     2.942185  s :     2.942185
      pz      :     1.090956  p :     3.280266
      px      :     1.057149
      py      :     1.132160
      dz2     :     0.011446  d :     0.077181
      dxz     :     0.018496
      dyz     :     0.018646
      dx2y2   :     0.018762
      dxy     :     0.009831

  2 C s       :     2.840928  s :     2.840928
      pz      :     1.043257  p :     2.974902
      px      :     1.050026
      py      :     0.881619
      dz2     :     0.025509  d :     0.145155
      dxz     :     0.019872
      dyz     :     0.027287
      dx2y2   :     0.039155
      dxy     :     0.033331

  3 H s       :     0.777586  s :     0.777586
      pz      :     0.022396  p :     0.039269
      px      :     0.011788
      py      :     0.005085

  4 C s       :     2.973458  s :     2.973458
      pz      :     1.128876  p :     3.371191
      px      :     1.131649
      py      :     1.110666
      dz2     :     0.016011  d :     0.060517
      dxz     :     0.009634
      dyz     :     0.010228
      dx2y2   :     0.017330
      dxy     :     0.007314

  5 O s       :     3.512963  s :     3.512963
      pz      :     1.499679  p :     4.848985
      px      :     1.824999
      py      :     1.524307
      dz2     :     0.058981  d :     0.284832
      dxz     :     0.028750
      dyz     :     0.071624
      dx2y2   :     0.060263
      dxy     :     0.065214

  6 H s       :     0.801925  s :     0.801925
      pz      :     0.012669  p :     0.044189
      px      :     0.008400
      py      :     0.023120

  7 H s       :     0.800464  s :     0.800464
      pz      :     0.015390  p :     0.044345
      px      :     0.011084
      py      :     0.017871

  8 H s       :     0.799815  s :     0.799815
      pz      :     0.009332  p :     0.044067
      px      :     0.025364
      py      :     0.009371

  9 H s       :     0.795331  s :     0.795331
      pz      :     0.015011  p :     0.043160
      px      :     0.011578
      py      :     0.016570

 10 H s       :     0.792900  s :     0.792900
      pz      :     0.012261  p :     0.044094
      px      :     0.008346
      py      :     0.023487

 11 H s       :     0.794488  s :     0.794488
      pz      :     0.025251  p :     0.044520
      px      :     0.011253
      py      :     0.008016

 12 H s       :     0.790313  s :     0.790313
      pz      :     0.010516  p :     0.044560
      px      :     0.008206
      py      :     0.025839

 13 H s       :     0.795682  s :     0.795682
      pz      :     0.008331  p :     0.043898
      px      :     0.026139
      py      :     0.009429

 14 H s       :     0.591868  s :     0.591868
      pz      :     0.064720  p :     0.123575
      px      :     0.037190
      py      :     0.021665


---------------------------------
LOEWDIN BOND ORDERS (THRESH 0.050000)
---------------------------------
B(  0-C ,  1-C ) :   1.1358 B(  0-C ,  2-C ) :   0.0580 B(  0-C ,  6-H ) :   0.9255 
B(  0-C ,  7-H ) :   0.9258 B(  0-C ,  8-H ) :   0.9268 B(  1-C ,  2-C ) :   1.0227 
B(  1-C ,  4-C ) :   0.0657 B(  1-C ,  5-O ) :   0.1644 B(  1-C ,  9-H ) :   0.8869 
B(  1-C , 10-H ) :   0.8840 B(  2-C ,  3-H ) :   0.7957 B(  2-C ,  4-C ) :   1.0511 
B(  2-C ,  5-O ) :   1.4208 B(  3-H ,  5-O ) :   0.0984 B(  4-C ,  5-O ) :   0.1679 
B(  4-C , 11-H ) :   0.9156 B(  4-C , 12-H ) :   0.9146 B(  4-C , 13-H ) :   0.9204 
B(  5-O , 14-H ) :   0.9582 

------------------------------------------
LOEWDIN REDUCED ORBITAL POPULATIONS PER MO
-------------------------------------------
THRESHOLD FOR PRINTING IS 0.1%%
                      0         1         2         3         4         5   
                 -18.94804 -10.07424 -10.01679 -10.00970 -10.00913  -0.98533
                   2.00000   2.00000   2.00000   2.00000   2.00000   2.00000
                  --------  --------  --------  --------  --------  --------
 0 C  s               0.0       0.0       0.0      99.7       0.0       0.1
 0 C  px              0.0       0.0       0.0       0.0       0.0       0.1
 1 C  s               0.0       0.0      99.7       0.0       0.0       0.8
 1 C  px              0.0       0.1       0.0       0.0       0.0       1.0
 1 C  py              0.0       0.0       0.0       0.0       0.0       0.5
 2 C  s               0.0      99.4       0.0       0.0       0.0       9.5
 2 C  pz              0.0       0.0       0.0       0.0       0.0       1.2
 2 C  py              0.0       0.0       0.0       0.0       0.0       7.2
 2 C  dyz             0.0       0.0       0.0       0.0       0.0       0.2
 2 C  dx2y2           0.0       0.0       0.0       0.0       0.0       0.4
 3 H  s               0.0       0.0       0.0       0.0       0.0       0.7
 4 C  s               0.0       0.0       0.0       0.0      99.7       0.8
 4 C  pz              0.0       0.0       0.0       0.0       0.0       0.2
 4 C  px              0.0       0.0       0.0       0.0       0.0       0.2
 4 C  py              0.0       0.0       0.0       0.0       0.0       1.1
 5 O  s              99.9       0.0       0.0       0.0       0.0      60.2
 5 O  pz              0.0       0.0       0.0       0.0       0.0       0.3
 5 O  px              0.0       0.0       0.0       0.0       0.0       0.2
 5 O  py              0.0       0.1       0.0       0.0       0.0       1.8
 5 O  dx2y2           0.0       0.2       0.0       0.0       0.0       0.2
14 H  s               0.0       0.0       0.0       0.0       0.0      10.1
14 H  pz              0.0       0.0       0.0       0.0       0.0       2.0
14 H  px              0.0       0.0       0.0       0.0       0.0       0.3

                      6         7         8         9        10        11   
                  -0.74397  -0.68251  -0.60895  -0.54108  -0.44938  -0.43041
                   2.00000   2.00000   2.00000   2.00000   2.00000   2.00000
                  --------  --------  --------  --------  --------  --------
 0 C  s              13.6      16.3      11.9       5.6       0.0       0.3
 0 C  pz              1.6       0.3       2.1       4.9       4.0       0.4
 0 C  px              1.0       0.1       0.6       1.6       3.5       2.3
 0 C  py              0.0       0.0       0.0       0.0       0.0       4.5
 1 C  s              23.6       5.2       5.3       9.0       0.9       0.3
 1 C  pz              1.0       1.0       5.0       2.9       5.6       2.0
 1 C  px              0.2       5.2       3.6       0.2      12.0       0.5
 1 C  py              0.0       0.0       0.4       0.6       0.0       9.5
 1 C  dx2y2           0.1       0.0       0.0       0.1       0.1       0.0
 2 C  s              12.0       5.5       5.6       4.6       3.0       0.5
 2 C  pz              0.0       0.6       6.5       1.0       2.5      11.4
 2 C  px              1.6       6.0       2.9       4.6       2.8       6.0
 2 C  py              4.6       2.2       0.6       4.0       7.5       6.9
 2 C  dyz             0.1       0.1       0.0       0.0       0.0       0.0
 2 C  dx2y2           0.1       0.0       0.0       0.1       0.1       0.0
 3 H  s               1.9       1.3       2.8       3.8       0.0       7.7
 3 H  pz              0.1       0.1       0.2       0.3       0.0       0.2
 4 C  s               8.7      23.1      11.3       1.8       1.3       0.2
 4 C  pz              0.6       0.2       1.7       1.1       1.3      11.8
 4 C  px              0.8       0.1       0.5       0.0      11.0       0.2
 4 C  py              0.2       0.1       0.6       1.7       1.4       0.6
 4 C  dxy             0.0       0.0       0.0       0.0       0.1       0.0
 5 O  s               3.9       0.9       0.3       0.2       2.4       1.0
 5 O  pz              1.0       0.5       4.8      13.6      15.3       1.9
 5 O  px              0.0       0.3       0.0       1.6       3.8       1.9
 5 O  py              2.4       1.8       2.4       8.9       0.5      13.4
 5 O  dz2             0.3       0.1       0.0       0.1       0.0       0.3
 5 O  dxz             0.0       0.0       0.1       0.0       0.1       0.1
 5 O  dyz             0.2       0.0       0.7       0.2       0.0       0.6
 5 O  dx2y2           0.5       0.7       0.1       0.3       0.4       0.1
 5 O  dxy             0.1       0.2       0.2       0.1       0.2       0.5
 6 H  s               1.9       3.1       3.7       2.8       0.4       0.3
 6 H  py              0.1       0.2       0.2       0.2       0.0       0.0
 7 H  s               2.0       2.8       4.0       2.6       0.8       1.0
 7 H  py              0.1       0.1       0.2       0.1       0.0       0.0
 8 H  s               1.9       3.4       3.6       2.5       1.3       1.7
 8 H  px              0.1       0.3       0.2       0.1       0.1       0.1
 9 H  s               3.3       1.1       2.0       3.7       5.0       1.2
 9 H  pz              0.1       0.1       0.0       0.1       0.1       0.1
 9 H  py              0.1       0.1       0.1       0.2       0.2       0.0
10 H  s               3.6       0.9       1.6       5.0       1.1       3.0
10 H  py              0.3       0.1       0.1       0.3       0.1       0.1
11 H  s               1.3       4.1       4.1       1.1       0.2       4.4
11 H  pz              0.1       0.3       0.2       0.1       0.0       0.1
12 H  s               1.4       4.5       3.1       1.3       1.0       0.8
12 H  py              0.1       0.4       0.2       0.1       0.0       0.0
13 H  s               1.2       4.7       3.5       0.4       5.1       0.0
13 H  px              0.1       0.4       0.2       0.0       0.2       0.0
14 H  s               1.2       0.6       1.6       5.3       3.6       1.3
14 H  pz              0.2       0.1       0.1       0.4       0.1       0.1
14 H  py              0.0       0.0       0.0       0.1       0.0       0.2

                     12        13        14        15        16        17   
                  -0.40413  -0.39254  -0.34959  -0.34667  -0.33165  -0.31086
                   2.00000   2.00000   2.00000   2.00000   2.00000   2.00000
                  --------  --------  --------  --------  --------  --------
 0 C  s               0.1       0.0       0.0       0.3       0.0       0.3
 0 C  pz              1.2       4.9      11.6       1.6       0.2      16.1
 0 C  px              2.1       3.7       8.3      23.3       0.3       0.1
 0 C  py             21.1       1.2       0.4       3.6      11.6       6.6
 0 C  dz2             0.0       0.0       0.0       0.1       0.0       0.0
 0 C  dxz             0.0       0.0       0.0       0.3       0.0       0.0
 0 C  dyz             0.0       0.0       0.0       0.0       0.1       0.2
 0 C  dx2y2           0.0       0.0       0.2       0.1       0.0       0.3
 1 C  s               0.2       0.1       0.2       0.7       0.0       0.2
 1 C  pz              0.8       0.3       2.1      13.1       0.0      14.9
 1 C  px              0.2       5.2       1.5       1.1       1.0       0.0
 1 C  py             21.7       0.0       0.0       0.3       0.1       5.8
 1 C  dz2             0.0       0.0       0.0       0.2       0.0       0.0
 1 C  dxz             0.0       0.0       0.0       0.0       0.0       0.1
 1 C  dyz             0.0       0.0       0.0       0.0       0.0       0.2
 1 C  dx2y2           0.1       0.0       0.1       0.0       0.0       0.4
 1 C  dxy             0.0       0.0       0.0       0.0       0.1       0.0
 2 C  s               0.3       0.4       0.2       0.3       0.1       0.4
 2 C  pz              6.1       3.9       4.2       0.9       0.0       1.9
 2 C  px              0.4       7.4       0.1       0.9       3.5       0.6
 2 C  py              0.7       0.6       0.4       0.1       2.8       1.8
 2 C  dz2             0.0       0.1       0.1       0.2       0.1       0.0
 2 C  dxz             0.0       0.1       0.0       0.0       0.0       0.1
 2 C  dyz             0.0       0.0       0.0       0.0       0.3       0.2
 2 C  dx2y2           0.2       0.1       0.3       0.0       0.0       0.2
 2 C  dxy             0.2       0.0       0.0       0.0       0.1       0.0
 3 H  s               2.5       0.0       1.8       0.6       0.4       1.9
 4 C  s               0.1       0.2       0.1       0.0       0.0       0.0
 4 C  pz              1.5       1.8       9.7      12.2       3.0       1.4
 4 C  px              2.5       2.0       9.0       6.4      17.4       0.1
 4 C  py              1.6      23.7      11.3       0.1       1.8       2.2
 4 C  dz2             0.0       0.0       0.0       0.2       0.3       0.1
 4 C  dyz             0.0       0.2       0.0       0.0       0.0       0.0
 4 C  dx2y2           0.0       0.0       0.4       0.0       0.0       0.1
 5 O  s               0.3       2.1       0.1       0.5       1.7       0.2
 5 O  pz              1.3      14.1       0.2       1.2       1.8       0.9
 5 O  px              4.3       1.7       0.2       2.3      18.4       1.3
 5 O  py              3.2       5.2       2.1       0.7      10.9      11.9
 5 O  dz2             0.1       0.0       0.1       0.3       0.0       0.0
 5 O  dyz             0.4       0.1       0.0       0.0       0.1       0.1
 5 O  dx2y2           0.1       0.1       0.0       0.1       0.1       0.1
 5 O  dxy             0.1       0.5       0.1       0.0       0.1       0.0
 6 H  s               8.7       0.0       0.7       0.7       3.7      10.8
 6 H  pz              0.1       0.0       0.0       0.1       0.1       0.0
 6 H  px              0.0       0.0       0.1       0.2       0.0       0.0
 6 H  py              0.1       0.0       0.1       0.0       0.0       0.2
 7 H  s               3.0       3.6       6.6       0.1       2.7       0.0
 7 H  pz              0.2       0.0       0.0       0.0       0.1       0.1
 7 H  px              0.0       0.0       0.0       0.2       0.1       0.0
 7 H  py              0.0       0.1       0.2       0.0       0.0       0.1
 8 H  s               0.0       1.6       5.4      11.5       0.9       1.9
 8 H  px              0.0       0.0       0.1       0.1       0.0       0.1
 8 H  py              0.1       0.0       0.0       0.0       0.1       0.0
 9 H  s               3.3       0.8       0.3       1.2       0.1       0.3
 9 H  py              0.0       0.0       0.0       0.0       0.0       0.1
10 H  s               6.0       0.0       0.4       0.1       0.0      11.1
10 H  pz              0.2       0.0       0.0       0.1       0.0       0.0
10 H  py              0.1       0.0       0.0       0.0       0.0       0.2
11 H  s               0.7       1.7       2.1       9.6       6.0       0.9
11 H  pz              0.0       0.0       0.0       0.2       0.2       0.0
11 H  px              0.0       0.0       0.1       0.0       0.0       0.0
11 H  py              0.0       0.2       0.1       0.0       0.0       0.0
12 H  s               1.2       8.0      10.5       0.8       1.4       2.4
12 H  pz              0.0       0.1       0.0       0.0       0.0       0.0
12 H  px              0.0       0.0       0.0       0.1       0.2       0.0
12 H  py              0.0       0.1       0.2       0.0       0.0       0.0
13 H  s               0.6       1.9       7.8       2.6       6.8       0.4
13 H  pz              0.0       0.0       0.1       0.1       0.0       0.0
13 H  px              0.0       0.1       0.1       0.0       0.0       0.0
13 H  py              0.0       0.1       0.0       0.0       0.1       0.0
14 H  s               1.3       1.2       0.2       0.4       0.7       0.0
14 H  px              0.0       0.1       0.0       0.0       0.1       0.0
14 H  py              0.0       0.1       0.0       0.0       0.2       0.2

                     18        19        20        21        22        23   
                  -0.29901  -0.27858  -0.23722   0.07593   0.11700   0.12318
                   2.00000   2.00000   2.00000   0.00000   0.00000   0.00000
                  --------  --------  --------  --------  --------  --------
 0 C  s               0.0       0.2       0.1      10.6       3.4      11.8
 0 C  pz              1.3       5.1       0.1       0.5       1.0       8.4
 0 C  px              5.5       3.3       0.9       0.6       0.2       3.7
 0 C  py              7.5       1.2       0.0       0.5       3.0       0.1
 0 C  dz2             0.1       0.0       0.1       0.2       0.2       0.3
 0 C  dxz             0.0       0.0       0.0       0.1       0.1       0.1
 0 C  dyz             0.5       0.0       0.0       0.1       0.3       0.1
 1 C  s               0.0       0.1       1.0       3.0       6.1       4.0
 1 C  pz              1.9       2.9       0.9       0.6       2.8       7.7
 1 C  px              8.2       4.1       8.8       0.4       0.6       3.7
 1 C  py             13.0       3.0       1.5       0.1       0.7       0.2
 1 C  dz2             0.1       0.0       0.0       0.0       0.0       0.6
 1 C  dxz             0.1       0.4       0.0       0.3       0.1       0.2
 1 C  dyz             0.6       0.0       0.0       0.0       0.0       0.0
 1 C  dx2y2           0.0       0.0       0.1       0.4       0.0       0.2
 1 C  dxy             0.1       0.0       0.0       0.1       0.6       0.0
 2 C  s               0.0       0.1       0.0       3.1       2.8       4.4
 2 C  pz              0.1      11.0       0.8       1.6       5.4       6.8
 2 C  px              4.8       3.2       7.7       0.8       1.9       1.1
 2 C  py              0.0       4.5       0.1      10.3       6.4       4.7
 2 C  dz2             0.1       0.4       0.0       0.1       0.0       0.9
 2 C  dxz             0.0       0.6       0.0       0.1       0.5       0.0
 2 C  dyz             0.0       0.2       0.2       0.5       0.5       0.2
 2 C  dx2y2           0.0       0.0       0.3       0.5       0.2       0.0
 2 C  dxy             0.1       0.0       1.1       0.0       0.0       0.0
 3 H  s               0.4      13.0       0.2       0.8       2.7       2.4
 3 H  pz              0.0       0.1       0.0       0.2       0.8       1.9
 3 H  px              0.0       0.0       0.1       0.2       0.4       0.0
 3 H  py              0.0       0.0       0.0       0.4       0.4       0.2
 4 C  s               0.0       0.6       0.7       6.0      11.0       3.8
 4 C  pz              1.9       6.5       1.6       0.7       0.5       7.4
 4 C  px              3.8       0.0       2.5       0.5       0.5       1.1
 4 C  py              1.0       4.9       3.4       1.1       4.7       3.2
 4 C  dz2             0.0       0.1       0.1       0.3       0.0       0.5
 4 C  dxz             0.0       0.1       0.0       0.1       0.0       0.0
 4 C  dyz             0.0       0.0       0.1       0.1       0.0       0.5
 4 C  dx2y2           0.2       0.1       0.0       0.1       0.5       0.1
 5 O  s               0.2       1.8       0.0       7.8       3.1       0.4
 5 O  pz              3.2       7.0       7.8       2.4       0.9       0.6
 5 O  px              3.8       1.0      50.4       0.8       0.3       0.1
 5 O  py              0.9       8.4       1.8       2.1       0.8       0.3
 5 O  dz2             0.0       1.4       0.0       2.0       1.2       0.3
 5 O  dxz             0.0       0.7       0.2       1.0       0.2       0.3
 5 O  dyz             0.0       0.7       0.1       0.3       1.4       1.1
 5 O  dx2y2           0.0       0.1       0.1       0.8       1.1       0.0
 5 O  dxy             0.0       0.1       1.1       0.0       0.0       0.1
 6 H  s               2.9       0.1       0.2       2.4       0.6       0.9
 6 H  pz              0.1       0.1       0.0       0.2       0.3       0.3
 6 H  px              0.1       0.0       0.0       0.1       0.0       0.1
 6 H  py              0.0       0.0       0.0       0.9       0.0       0.6
 7 H  s               9.6       1.0       0.2       0.4       3.9       3.1
 7 H  pz              0.0       0.0       0.0       0.0       0.2       1.0
 7 H  px              0.0       0.1       0.0       0.2       0.7       0.1
 7 H  py              0.0       0.0       0.0       0.2       0.3       0.8
 8 H  s               2.3       1.0       1.0       2.4       0.6       0.4
 8 H  pz              0.0       0.1       0.0       0.1       0.1       0.0
 8 H  px              0.0       0.0       0.0       0.5       0.4       0.3
 8 H  py              0.1       0.0       0.0       0.1       0.1       0.0
 9 H  s              14.5       2.5       0.4       0.6       2.7       0.1
 9 H  pz              0.1       0.0       0.0       0.0       0.1       0.6
 9 H  px              0.0       0.1       0.1       0.0       0.3       0.3
 9 H  py              0.0       0.0       0.0       0.3       0.6       0.1
10 H  s               5.1       0.3       1.3       1.7       1.1       0.5
10 H  pz              0.1       0.0       0.0       0.0       0.1       0.4
10 H  px              0.1       0.0       0.1       0.0       0.2       0.0
10 H  py              0.0       0.0       0.0       0.6       0.8       0.3
11 H  s               0.1       3.4       0.1       0.8       1.8       2.6
11 H  pz              0.0       0.0       0.0       0.1       0.4       1.5
11 H  px              0.1       0.0       0.0       0.4       0.3       0.0
11 H  py              0.0       0.1       0.0       0.1       0.1       0.2
12 H  s               1.5       0.6       0.7       2.9       1.3       1.1
12 H  pz              0.0       0.1       0.0       0.1       0.2       0.0
12 H  px              0.0       0.0       0.0       0.0       0.2       0.0
12 H  py              0.0       0.0       0.0       0.4       0.3       0.0
13 H  s               3.2       1.0       0.5       0.7       4.2       0.1
13 H  px              0.0       0.0       0.0       0.2       1.2       0.2
13 H  py              0.0       0.0       0.0       0.2       0.1       0.1
14 H  s               0.2       1.9       0.0      17.1       7.1       0.5
14 H  pz              0.0       0.0       0.1       3.6       1.7       0.1
14 H  px              0.1       0.0       1.0       0.6       0.2       0.0
14 H  py              0.0       0.2       0.0       0.0       0.2       0.0

                     24        25        26        27        28        29   
                   0.14106   0.14656   0.15453   0.16349   0.16688   0.19253
                   0.00000   0.00000   0.00000   0.00000   0.00000   0.00000
                  --------  --------  --------  --------  --------  --------
 0 C  s               5.8       1.1       1.1       4.1       0.5       0.2
 0 C  pz              1.4      10.5       2.0      15.0       0.9       1.2
 0 C  px             12.3       3.1       3.0       5.6       0.6       7.7
 0 C  py              3.3       1.3       0.3       0.1       8.9       4.1
 0 C  dz2             0.0       0.4       0.0       0.2       0.0       0.5
 0 C  dxz             0.2       1.1       0.2       0.1       0.4       0.1
 0 C  dyz             0.0       0.2       0.0       0.0       0.7       0.0
 0 C  dx2y2           0.3       0.1       0.2       1.1       0.0       1.1
 0 C  dxy             0.0       0.1       0.3       0.4       0.1       0.1
 1 C  s               1.5      11.8       0.7       1.4       0.5       0.2
 1 C  pz              2.8       5.9       9.0       3.4       1.4       1.9
 1 C  px              1.8       6.5       8.0       4.8       0.2       9.6
 1 C  py              0.0       1.6       1.1       0.3      16.1       7.5
 1 C  dz2             0.2       0.0       0.1       0.1       0.0       0.7
 1 C  dxz             0.3       0.0       0.4       0.5       0.6       0.0
 1 C  dyz             0.0       0.4       0.3       0.0       2.0       0.0
 1 C  dx2y2           0.3       0.6       0.5       0.0       0.1       1.1
 1 C  dxy             0.0       0.0       0.5       0.1       0.3       0.9
 2 C  s               1.9       0.9       8.9       2.4       0.5       0.5
 2 C  pz              0.8       4.6       5.6       1.6       2.7       0.3
 2 C  px              0.7       8.5       0.4       1.9       0.3      10.2
 2 C  py              7.9       4.1       0.2       0.4       4.1       0.4
 2 C  dz2             0.3       0.0       0.5       0.0       0.1       0.3
 2 C  dxz             0.1       0.1       0.5       0.6       0.4       0.0
 2 C  dyz             0.3       0.0       0.0       0.0       0.0       0.3
 2 C  dx2y2           0.5       1.4       0.2       0.0       0.4       0.5
 2 C  dxy             0.0       0.0       0.0       0.0       0.6       0.3
 3 H  s               0.8       1.6       1.1       4.7       1.2       0.5
 3 H  pz              0.0       0.2       0.0       1.2       0.3       0.3
 3 H  px              0.0       1.4       0.0       0.3       0.1       0.1
 3 H  py              0.6       0.2       0.0       0.0       0.0       0.0
 4 C  s               5.9       2.1       2.2       5.7       0.9       0.1
 4 C  pz              4.6       1.0       4.8       6.9       3.3       0.3
 4 C  px              3.5       3.0      13.3       0.6       8.2       7.3
 4 C  py              4.8       1.5       8.3       7.7       2.6       4.7
 4 C  dz2             0.7       0.0       0.0       0.1       0.4       0.5
 4 C  dxz             0.2       0.1       0.3       0.3       0.6       0.0
 4 C  dyz             0.4       0.0       0.4       0.0       0.2       0.1
 4 C  dx2y2           0.0       0.5       0.1       0.3       0.3       1.3
 4 C  dxy             0.0       0.0       1.6       0.1       0.0       0.3
 5 O  s               0.5       0.6       0.6       0.6       0.1       0.0
 5 O  pz              4.7       1.1       0.1       0.0       0.4       0.2
 5 O  px              0.0       1.6       0.0       0.2       0.5       0.3
 5 O  py              1.6       1.4       3.1       0.3       1.6       0.0
 5 O  dz2             2.2       1.2       0.8       0.1       0.4       0.2
 5 O  dxz             0.0       0.0       0.7       1.1       0.1       0.0
 5 O  dyz             1.1       0.0       0.0       0.6       0.1       0.1
 5 O  dx2y2           0.3       0.1       5.0       0.2       0.2       0.0
 5 O  dxy             0.1       0.0       1.4       1.4       0.5       1.7
 6 H  s               1.5       2.3       0.7       0.7       0.8       2.1
 6 H  pz              0.0       0.0       0.0       0.8       0.4       0.1
 6 H  px              0.2       0.2       0.4       0.1       0.1       0.1
 6 H  py              0.4       0.8       0.5       0.0       0.1       0.1
 7 H  s               0.9       0.3       1.4       1.5       2.5       1.4
 7 H  pz              0.0       0.2       0.0       0.3       0.5       0.2
 7 H  px              0.0       0.4       0.0       0.0       0.3       0.0
 7 H  py              0.7       0.0       0.6       0.5       0.3       0.6
 8 H  s               1.2       0.8       1.3       5.8       0.7       4.2
 8 H  pz              0.0       1.2       0.2       0.0       0.2       0.1
 8 H  px              0.4       0.1       0.0       1.6       0.1       1.3
 8 H  py              0.0       0.0       0.1       0.2       0.0       0.0
 9 H  s               0.5       2.1       0.8       0.1       8.4       2.7
 9 H  pz              0.0       1.3       0.2       0.0       0.9       0.2
 9 H  px              0.1       0.7       0.2       0.1       0.5       0.0
 9 H  py              0.3       0.3       0.6       0.2       0.4       1.2
10 H  s               1.7       1.4       0.1       0.5       6.0       0.6
10 H  pz              0.1       0.1       0.6       0.0       1.6       0.0
10 H  px              0.2       0.0       0.7       0.2       0.0       1.1
10 H  py              0.7       0.0       0.0       0.2       1.2       0.0
11 H  s               8.5       0.1       0.4       1.1       3.2       1.0
11 H  pz              2.1       0.1       0.1       0.0       0.4       0.4
11 H  px              0.4       0.0       0.0       0.1       0.2       0.3
11 H  py              0.3       0.0       0.0       0.0       0.2       0.0
12 H  s               0.1       2.2       0.1       4.5       0.4       1.0
12 H  pz              1.0       0.0       0.1       0.0       0.4       0.0
12 H  px              0.0       0.0       0.9       0.2       0.1       0.5
12 H  py              0.0       0.9       0.4       1.9       0.0       0.5
13 H  s               0.3       0.8       0.8       0.9       3.9       9.4
13 H  pz              0.1       0.1       0.1       0.3       0.3       0.0
13 H  px              0.3       0.0       0.2       0.2       1.4       2.2
13 H  py              0.1       0.1       0.6       0.3       0.0       0.2
14 H  s               2.5       1.2       0.2       0.5       0.0       0.3
14 H  pz              0.5       0.2       0.0       0.1       0.0       0.0
14 H  px              0.1       0.0       0.0       0.0       0.0       0.0
14 H  py              0.1       0.0       0.0       0.1       0.0       0.0

                     30        31        32        33        34        35   
                   0.20044   0.20673   0.21292   0.22207   0.23017   0.24524
                   0.00000   0.00000   0.00000   0.00000   0.00000   0.00000
                  --------  --------  --------  --------  --------  --------
 0 C  s               0.4       1.0       0.5       0.1       1.1       1.0
 0 C  pz              4.6      12.0       6.6       1.1       0.9       1.9
 0 C  px             10.8       5.3       0.5       3.9       2.3       5.9
 0 C  py              2.2       2.3       7.1      41.1       2.1       2.0
 0 C  dz2             0.2       0.1       0.4       0.4       0.0       0.1
 0 C  dxz             0.7       0.0       0.0       0.0       0.5       0.3
 0 C  dyz             0.2       0.1       0.9       1.6       0.2       1.0
 0 C  dx2y2           0.1       1.4       0.8       0.0       0.1       0.0
 0 C  dxy             0.0       0.1       0.2       1.0       0.2       0.0
 1 C  s               0.6       0.1       0.5       0.5       4.1       0.5
 1 C  pz              3.1       2.3       6.4       0.4       7.4       4.3
 1 C  px              2.0       0.8       0.2       4.4       0.0       8.8
 1 C  py              5.5       1.5       2.4       0.1       3.8       3.5
 1 C  dz2             0.0       0.0       0.1       0.7       0.3       0.3
 1 C  dxz             0.0       0.4       0.0       0.1       0.0       0.4
 1 C  dyz             0.2       0.0       0.0       0.4       0.7       0.7
 1 C  dx2y2           0.0       0.2       0.3       0.1       0.9       0.0
 1 C  dxy             0.0       0.1       0.0       0.0       0.1       0.1
 2 C  s               0.2       0.1       0.3       1.0       0.5       1.3
 2 C  pz              1.6      15.9       0.7       0.5       0.9       2.9
 2 C  px              4.6       1.7       0.5       2.6       0.9       0.9
 2 C  py              5.5       0.7       2.0       1.9       1.6       3.4
 2 C  dz2             0.2       0.1       0.1       0.1       0.6       0.2
 2 C  dxz             0.1       0.2       0.1       0.1       0.2       0.0
 2 C  dyz             0.0       0.1       0.1       0.0       0.0       0.1
 2 C  dx2y2           0.4       0.0       0.0       0.0       0.0       0.2
 2 C  dxy             0.0       0.0       0.0       0.0       0.1       0.0
 3 H  s               0.2       1.8       0.0       0.1       0.3       2.9
 3 H  pz              0.0       1.3       0.0       0.0       0.1       1.2
 3 H  px              0.7       0.0       0.4       0.0       0.1       0.0
 3 H  py              0.2       0.1       0.3       0.0       0.2       0.2
 4 C  s               1.4       1.2       0.2       0.0       0.6       1.5
 4 C  pz              1.6       0.2      22.3       8.2       5.7       6.7
 4 C  px              3.0       5.1       9.6       0.6       2.9       2.4
 4 C  py              8.3       8.8       1.7       0.8      11.9       0.6
 4 C  dz2             0.0       0.1       0.5       0.0       0.8       0.5
 4 C  dxz             0.5       0.0       0.3       0.0       0.2       1.1
 4 C  dyz             1.4       0.1       0.0       0.3       0.4       0.1
 4 C  dx2y2           0.5       0.2       0.2       0.0       0.1       0.0
 4 C  dxy             0.0       0.6       0.2       0.1       0.0       0.1
 5 O  s               0.8       0.1       0.3       0.5       0.4       0.1
 5 O  pz              1.2       0.0       0.2       0.2       0.1       3.3
 5 O  px              0.1       1.8       2.3       0.2       0.8       0.1
 5 O  py              1.0       0.1       0.3       0.8       1.4       0.4
 5 O  dz2             0.5       0.1       1.3       0.3       0.1       0.1
 5 O  dxz             4.5       0.0       1.9       0.1       0.1       1.7
 5 O  dyz             0.3       1.1       0.0       0.2       0.1       0.3
 5 O  dx2y2           0.1       0.4       0.7       0.3       2.9       0.3
 5 O  dxy             0.0       0.0       0.1       0.0       0.1       0.0
 6 H  s               1.5       6.6       9.8       3.5       0.3       0.5
 6 H  pz              0.6       0.3       0.4       0.1       0.1       0.3
 6 H  px              0.1       0.1       0.1       0.7       0.0       0.1
 6 H  py              0.0       1.6       1.8       0.0       0.2       0.2
 7 H  s               3.5       1.0       3.3       7.2       0.5       3.4
 7 H  pz              0.2       0.0       1.5       0.3       0.0       0.0
 7 H  px              0.6       0.1       0.4       0.0       1.0       0.1
 7 H  py              0.1       0.9       0.0       0.0       0.0       0.3
 8 H  s               1.3       6.3       0.0       4.3       3.7       2.1
 8 H  pz              0.1       0.0       0.0       0.0       0.5       0.1
 8 H  px              0.0       2.4       0.0       0.5       0.8       1.0
 8 H  py              0.2       0.0       1.1       1.9       0.1       0.0
 9 H  s               0.4       0.4       0.9       0.7       0.8       8.1
 9 H  pz              0.0       0.0       0.2       0.4       0.2       1.3
[...]
 2 C  dxy             2.3       0.4       0.9       0.0       0.0       0.2
 3 H  s               0.6       0.1       0.7       4.0       3.3       0.4
 3 H  pz              0.5       0.1       1.6       8.8       7.0       0.2
 3 H  px              1.6       0.0       1.0       1.5       1.6       0.2
 3 H  py              0.2       0.4       0.1       0.2       0.0       0.8
 4 C  s               1.3       0.0       0.5       0.1       0.6       0.1
 4 C  pz              1.2       0.1       4.0       0.5       1.7       0.1
 4 C  px              6.1       5.8       0.1       0.0       0.5       0.1
 4 C  py              2.8       3.1       0.3       0.2       0.2       0.1
 4 C  dz2            10.6       1.6       2.3       0.7       1.2       0.2
 4 C  dxz             0.4       0.3       3.4       0.8       2.1       0.0
 4 C  dyz             4.0       0.7       0.6       0.1       0.4       0.3
 4 C  dx2y2           0.0      14.5       0.5       0.0       0.4       0.1
 4 C  dxy             2.9       2.3       0.3       0.0       0.4       0.0
 5 O  s               0.3       0.1       0.0       0.0       0.6      27.3
 5 O  pz              0.7       0.4       0.1       0.6       0.1       0.3
 5 O  px              0.0       0.0       0.2       0.2       0.0       0.4
 5 O  py              0.1       0.1       0.1       0.0       0.1      18.6
 5 O  dxz             0.2       0.1       0.0       0.1       0.1       1.4
 5 O  dyz             0.1       2.1       0.5       0.8       0.0       6.3
 5 O  dx2y2           0.1       0.1       0.1       0.0       0.0      15.1
 5 O  dxy             0.0       0.3       0.4       0.1       0.0       0.4
 6 H  s               0.4       0.0       1.8       0.2       1.9       0.0
 6 H  pz              0.2       0.0       0.5       0.2       1.3       0.0
 6 H  px              0.2       0.1       0.1       0.0       0.3       0.0
 6 H  py              0.7       0.0       4.3       0.2       3.4       0.0
 7 H  s               0.1       0.1       1.8       2.3       0.3       0.0
 7 H  pz              0.3       0.1       1.1       2.2       0.5       0.0
 7 H  px              0.2       0.3       0.6       0.2       0.1       0.0
 7 H  py              0.0       0.2       3.0       3.6       0.1       0.0
 8 H  s               0.7       1.4       4.0       1.1       0.7       0.0
 8 H  pz              0.4       0.7       0.1       0.1       0.0       0.0
 8 H  px              1.3       3.4       8.8       2.4       1.4       0.0
 8 H  py              0.0       0.2       0.7       0.1       0.2       0.0
 9 H  s               0.1       0.4       0.2       4.7       2.5       0.0
 9 H  pz              0.0       0.1       0.3       5.0       3.4       0.0
 9 H  px              0.0       0.3       0.3       1.3       1.2       0.0
 9 H  py              0.8       1.1       0.4       5.3       1.4       0.0
10 H  s               1.6       0.5       1.5       1.0       4.4       0.1
10 H  pz              0.5       0.1       1.4       1.3       2.6       0.1
10 H  px              0.1       0.0       0.0       0.0       0.0       0.0
10 H  py              3.6       1.6       3.3       1.0       7.9       0.2
11 H  s               3.7       0.4       2.6       0.6       0.9       0.0
11 H  pz              7.2       0.8       6.2       1.7       1.9       0.0
11 H  px              0.7       0.0       1.5       0.1       0.6       0.0
12 H  s               2.3       3.3       0.1       0.0       0.1       0.1
12 H  pz              0.7       1.3       0.1       0.0       0.0       0.0
12 H  px              0.5       0.1       0.0       0.0       0.1       0.0
12 H  py              5.5       6.3       0.3       0.0       0.2       0.3
13 H  s               2.7       7.3       0.0       0.0       0.1       0.0
13 H  pz              0.1       0.0       0.2       0.0       0.0       0.0
13 H  px              5.8      16.8       0.0       0.1       0.1       0.0
13 H  py              1.6       1.1       0.0       0.0       0.1       0.0
14 H  s               0.1       0.0       0.0       0.1       0.0       0.6
14 H  pz              0.0       0.0       0.0       0.0       0.0       0.9
14 H  px              0.1       0.0       0.0       0.0       0.1       0.1
14 H  py              0.0       0.5       0.0       0.1       0.2       0.1

                    144       145       146       147       148       149   
                   4.59113  21.95970  21.96776  22.01872  22.10589  43.67411
                   0.00000   0.00000   0.00000   0.00000   0.00000   0.00000
                  --------  --------  --------  --------  --------  --------
 0 C  s               0.0      16.2      81.0       2.5       0.0       0.0
 1 C  s               0.0      15.9       0.1      73.4      10.2       0.0
 2 C  s               0.1       0.1       0.7      12.7      86.2       0.1
 2 C  pz              0.3       0.0       0.0       0.0       0.0       0.0
 2 C  py              0.9       0.0       0.0       0.0       0.0       0.0
 2 C  dz2             0.7       0.0       0.0       0.0       0.0       0.0
 2 C  dxz             0.1       0.0       0.0       0.0       0.0       0.0
 2 C  dyz             0.3       0.0       0.0       0.0       0.0       0.0
 2 C  dx2y2           0.9       0.0       0.0       0.0       0.0       0.0
 3 H  s               0.2       0.0       0.0       0.0       0.0       0.0
 3 H  pz              0.2       0.0       0.0       0.0       0.0       0.0
 4 C  s               0.0      67.5      17.9      11.1       3.2       0.0
 5 O  s               6.6       0.0       0.0       0.0       0.0      99.9
 5 O  pz             15.8       0.0       0.0       0.0       0.0       0.0
 5 O  px              1.7       0.0       0.0       0.0       0.0       0.0
 5 O  py              1.7       0.0       0.0       0.0       0.0       0.0
 5 O  dz2            25.5       0.0       0.0       0.0       0.0       0.0
 5 O  dxz            11.8       0.0       0.0       0.0       0.0       0.0
 5 O  dyz             0.1       0.0       0.0       0.0       0.0       0.0
 5 O  dx2y2           2.5       0.0       0.0       0.0       0.0       0.0
14 H  s              13.5       0.0       0.0       0.0       0.0       0.0
14 H  pz             14.2       0.0       0.0       0.0       0.0       0.0
14 H  px              2.1       0.0       0.0       0.0       0.0       0.0



                      *****************************
                      * MAYER POPULATION ANALYSIS *
                      *****************************

  NA   - Mulliken gross atomic population
  ZA   - Total nuclear charge
  QA   - Mulliken gross atomic charge
  VA   - Mayer's total valence
  BVA  - Mayer's bonded valence
  FA   - Mayer's free valence

  ATOM       NA         ZA         QA         VA         BVA        FA
  0 C      6.5339     6.0000    -0.5339     3.7880     3.7880     0.0000
  1 C      6.2395     6.0000    -0.2395     3.5730     3.5730     0.0000
  2 C      5.9759     6.0000     0.0241     3.6299     3.6299     0.0000
  3 H      0.8463     1.0000     0.1537     0.9510     0.9510     0.0000
  4 C      6.5273     6.0000    -0.5273     3.8050     3.8050     0.0000
  5 O      8.5046     8.0000    -0.5046     1.7531     1.7531     0.0000
  6 H      0.8431     1.0000     0.1569     0.9601     0.9601     0.0000
  7 H      0.8365     1.0000     0.1635     0.9574     0.9574     0.0000
  8 H      0.8394     1.0000     0.1606     0.9579     0.9579     0.0000
  9 H      0.8467     1.0000     0.1533     0.9603     0.9603     0.0000
 10 H      0.8498     1.0000     0.1502     0.9622     0.9622     0.0000
 11 H      0.8311     1.0000     0.1689     0.9579     0.9579     0.0000
 12 H      0.8365     1.0000     0.1635     0.9597     0.9597     0.0000
 13 H      0.8385     1.0000     0.1615     0.9579     0.9579     0.0000
 14 H      0.6510     1.0000     0.3490     0.8791     0.8791    -0.0000

  Mayer bond orders larger than 0.100000
B(  0-C ,  1-C ) :   0.8733 B(  0-C ,  6-H ) :   0.9752 B(  0-C ,  7-H ) :   0.9766 
B(  0-C ,  8-H ) :   0.9670 B(  1-C ,  2-C ) :   0.9182 B(  1-C ,  9-H ) :   0.9734 
B(  1-C , 10-H ) :   0.9694 B(  2-C ,  3-H ) :   0.9629 B(  2-C ,  4-C ) :   0.9336 
B(  2-C ,  5-O ) :   0.9162 B(  4-C , 11-H ) :   0.9692 B(  4-C , 12-H ) :   0.9664 
B(  4-C , 13-H ) :   0.9652 B(  5-O , 14-H ) :   0.8682 

-------
TIMINGS
-------

Total SCF time: 0 days 0 hours 0 min 15 sec 

Total time                  ....      15.361 sec
Sum of individual times     ....      14.901 sec  ( 97.0%)

SCF preparation             ....       0.261 sec  (  1.7%)
Fock matrix formation       ....      13.632 sec  ( 88.7%)
  Startup                   ....       0.261 sec  (  1.9% of F)
  Split-RI-J                ....       1.517 sec  ( 11.1% of F)
  XC integration            ....       9.274 sec  ( 68.0% of F)
    XC Preparation          ....       0.000 sec  (  0.0% of XC)
    Basis function eval.    ....       1.585 sec  ( 17.1% of XC)
    Density eval.           ....       2.767 sec  ( 29.8% of XC)
    XC-Functional eval.     ....       1.378 sec  ( 14.9% of XC)
    XC-Potential eval.      ....       2.718 sec  ( 29.3% of XC)
  CPCM terms                ....       2.102 sec  ( 15.4% of F)
Diagonalization             ....       0.000 sec  (  0.0%)
Density matrix formation    ....       0.221 sec  (  1.4%)
Total Energy calculation    ....       0.047 sec  (  0.3%)
Population analysis         ....       0.070 sec  (  0.5%)
Orbital Transformation      ....       0.045 sec  (  0.3%)
Orbital Orthonormalization  ....       0.000 sec  (  0.0%)
DIIS solution               ....       0.588 sec  (  3.8%)
  MO trafo                  ....       0.000 sec  (  0.0 % of DIIS)
  Orb grad                  ....       0.000 sec  (  0.0 % of DIIS)
  Energy W gradient         ....       0.000 sec  (  0.0 % of DIIS)
  DIIS error                ....       0.004 sec  (  0.7 % of DIIS)
  DIIS work                 ....       0.540 sec  ( 91.9 % of DIIS)
  Form Q                    ....       0.000 sec  (  0.0 % of DIIS)
  Form QpQm                 ....       0.000 sec  (  0.0 % of DIIS)
  Exp/Cayley                ....       0.000 sec  (  0.0 % of DIIS)
  Orb update                ....       0.000 sec  (  0.0 % of DIIS)
  Wake-sleep                ....       0.021 sec  (  3.5 % of DIIS)
SOSCF solution              ....       0.038 sec  (  0.2%)
  MO trafo                  ....       0.028 sec  ( 73.3 % of SOSCF)
  Orb grad                  ....       0.001 sec  (  2.6 % of SOSCF)
  Rot update                ....       0.000 sec  (  0.0 % of SOSCF)
  Step                      ....       0.009 sec  ( 23.9 % of SOSCF)
Finished LeanSCF after  15.5 sec

Maximum memory used throughout the entire LEANSCF-calculation: 17.9 MB


-------------------------------------------------------------------------------
                          DFT DISPERSION CORRECTION                            
                                                                               
                                DFTD4 V3.4.0                                   
-------------------------------------------------------------------------------
The R2SCAN3C composite method is recognized
Using three-body term ABC
Active option DFTDOPT                   ...         5   

-------------------------   ----------------
Dispersion correction           -0.003262126
-------------------------   ----------------

------------------   -----------------
gCP correction             0.008300090
------------------   -----------------

-------------------------   --------------------
FINAL SINGLE POINT ENERGY      -233.610083732421
-------------------------   --------------------


------------------------------------------------------------------------------
                              ORCA PROPERTY CALCULATIONS
------------------------------------------------------------------------------

GBWName                                 ... sp_solv.gbw
Number of atoms                         ...     15
Number of basis functions               ...    150
Max core memory                         ...   1024 MB

Electric properties:
Dipole moment                           ... YES
Quadrupole moment                       ...  NO
Static polarizability (Dipole/Dipole)   ...  NO
Static polarizability (Dipole/Quad.)    ...  NO
Static polarizability (Quad./Quad.)     ...  NO
Static polarizability (Velocity)        ...  NO

Atomic electric properties:
Dipole moment                           ...  NO
Quadrupole moment                       ...  NO
Static polarizability                   ...  NO

Choice of electric origin               ... Center of mass
Position of electric origin             ...     0.000015     0.000031     0.000002

General magnetic properties:
Magnetizability                         ...  NO

EPR properties:
g-Tensor (aka g-matrix)                 ...  NO
Zero-Field splitting spin-orbit         ...  NO
Zero-field splitting spin-spin          ...  NO
Hyperfine couplings                     ...  NO (   0 nuclei)
Quadrupole couplings                    ...  NO (   0 nuclei)
Contact density                         ...  NO (   0 nuclei)

NMR properties:
Chemical shifts                         ...  NO (   0 nuclei)
Spin-rotation constants                 ...  NO (   0 nuclei)
Spin-spin couplings                     ...  NO (   0 nuclei,    0 pairs)

Choice of magnetic origin               ... GIAO
Position of magnetic origin             ...     0.000000     0.000000     0.000000

Properties with geometric perturbations:
SCF Hessian                             ...  NO
IR spectrum                             ...  NO
VCD spectrum                            ...  NO
X-ray spectroscopy properties:
SCF XES/XAS/RIXS spectra                ...  NO


-------------
DIPOLE MOMENT
-------------

Method             : SCF
Type of density    : Electron Density
Multiplicity       :   1
Irrep              :   0
Energy             :  -233.6151216963637580 Eh
Relativity type    : 
Basis              : AO
                                X                 Y                 Z
Electronic contribution:     -1.608987185      -3.037475134      -1.131674231
Nuclear contribution   :      1.953008601       3.758461542       1.565348605
                        -----------------------------------------
Total Dipole Moment    :      0.344021416       0.720986408       0.433674375
                        -----------------------------------------
Magnitude (a.u.)       :      0.908980527
Magnitude (Debye)      :      2.310444886



--------------------
Rotational spectrum 
--------------------
 
Rotational constants in cm-1:             0.214225             0.128383             0.105409 
Rotational constants in MHz :          6422.310638          3848.813513          3160.081589 

Dipole components along the rotational axes: 
x,y,z [a.u.] :     0.553688     0.670128     0.265714 
x,y,z [Debye]:     1.407362     1.703330     0.675391 

 

Dipole moment calculation done in   0.0 sec 

Maximum memory used throughout the entire PROP-calculation: 8.7 MB

--------------------------------
SUGGESTED CITATIONS FOR THIS RUN
--------------------------------

Below you find a list of papers that are relevant to this ORCA run
We neither can nor want to force you to cite these papers, but we appreciate if you do
You receive ORCA, which is the product of decades of hard work by many enthusiastic individuals, for free
The only thing we kindly ask in return is that you cite our papers,
We deeply appreciate it, if you show your appreciation for ORCA by not just citing the generic ORCA reference.

Please note that relegating all ORCA citations to the supporting information does *not* help us.
SI sections are not indexed - citations you put there will not count into any citation statistics
But we need these citations in order to attract the funding resources that allow us to do what we are doing

Therefore, if you are a happy ORCA user, please consider citing a few of the papers listed below in the main body of your paper

In addition to the list printed below, the program has created the file sp_solv.bibtex that contains the list in bibtex format
You can import this file easily into all common literature databanks and citation aid programs


List of essential papers. We consider these as the minimum necessary citations

  1. Neese,F.
     Software update: the ORCA program system, version 5.0
     WIRES Comput. Molec. Sci., 2022 12(1)e1606
     doi.org/10.1002/wcms.1606
  2. Grimme,S.; Hansen,A.; Ehlert,S.; Mewes,J.
     r2SCAN-3c: A 'Swiss army knife' composite electronic-structure method
     J. Chem. Phys., 2021 154 064103
     doi.org/10.1063/5.0040021

List of papers to cite with high priority. The work reported in these papers was absolutely
necessary for this run to complete.
Our perspective: the developers of density functionals and basis sets usually get cited in chemistry papers
Good! But without the algorithms to do something with them, the functionals or basis sets would not do anything.
Hence, in our opinion, the algorithm design and method developments papers are equally worthy of getting cited

  1. Neese,F.
     An improvement of the resolution of the identity approximation for the formation of the Coulomb matrix
     J. Comp. Chem., 2003 24(14)1740-1747
     doi.org/10.1002/jcc.10318
  2. Garcia-Rates,M.; Neese,F.
     Effect of the Solute Cavity on the Solvation Energy and its Derivatives within the Framework of the Gaussian Charge Scheme
     J. Comput. Chem., 2020 41 922-939
     doi.org/10.1002/jcc.26139
  3. Neese,F.
     The SHARK Integral Generation and Digestion System
     J. Comp. Chem., 2022  1-16
     doi.org/10.1002/jcc.26942
  4. Lehtola,S.; Steigemann,C.; Oliveira,M.; Marques,M.
     Recent developments in Libxc - A comprehensive library of functionals for density functional theory
     Software X, 2018 7 
     doi.org/10.1016/j.softx.2017.11.002
  5. Caldeweyher,E.; Bannwarth,C.; Grimme,S.
     Extension of the D3 dispersion coefficient model
     J. Chem. Phys., 2017 147 034112-XXXX
     doi.org/10.1063/1.4993215
  6. Caldeweyher,E.; Ehlert,S.; Hansen,A.; Neugebauer,H.; Spicher,S.; Bannwarth,C.; Grimme,S.
     A generally applicable atomic-charge dependent London dispersion correction
     J. Chem. Phys., 2019 150 154122-XXXX
     doi.org/10.1063/1.5090222
  7. Caldeweyher,E.; Mewes,J.; Ehlert,S.; Grimme,S.
     Extension and evaluation of the D4 London-dispersion model for periodic systems
     Phys. Chem. Chem. Phys., 2020 22(16)8499-8512
     doi.org/10.1039/D0CP00502A

List of suggested additional citations. These are papers that are important in the 'surrounding' of 
of this run, or papers that preceded the highly important papers. If you like your results we are grateful for a citation.

  1. Neese,F.
     The ORCA program system
     WIRES Comput. Molec. Sci., 2012 2(1)73-78
     doi.org/10.1002/wcms.81
  2. Neese,F.
     Software update: the ORCA program system, version 4.0
     WIRES Comput. Molec. Sci., 2018 8(1)1-6
     doi.org/10.1002/wcms.1327
  3. Neese,F.; Wennmohs,F.; Becker,U.; Riplinger,C.
     The ORCA quantum chemistry program package
     J. Chem. Phys., 2020 152 Art. No. L224108
     doi.org/10.1063/5.0004608

List of optional additional citations

  1. Neese,F.
     Approximate second-order SCF convergence for spin unrestricted wavefunctions
     Chem. Phys. Lett., 2000 325(1-3)93-98
     doi.org/10.1016/s0009-2614(00)00662-x

Timings for individual modules:

Sum of individual times          ...       16.752 sec (=   0.279 min)
Startup calculation              ...        0.889 sec (=   0.015 min)   5.3 %
SCF iterations                   ...       15.777 sec (=   0.263 min)  94.2 %
Property calculations            ...        0.085 sec (=   0.001 min)   0.5 %
                             ****ORCA TERMINATED NORMALLY****
TOTAL RUN TIME: 0 days 0 hours 0 minutes 17 seconds 370 msec
