23
 energy: -28.351053358189 gnorm: 0.033011049392 xtb: 6.7.1 (edcfbbe)
C           -2.60074017373799       -0.72683175152164        0.65042092468561
C           -1.52068499841566        0.01098576661137       -0.09109100237694
O           -1.63192100755103        0.22699427709962       -1.29566125230150
C           -0.35366554064661        0.53828466257706        0.72392496697778
C            0.54291278784267        1.51462042677470       -0.04940225334521
C            1.47180524173992        0.82913385467979       -1.05886013835115
C            2.27747434936436       -0.29792928006532       -0.41133443383849
C            1.34945133767311       -1.30079444716684        0.27500701233328
C            0.49251082304788       -0.60598149477675        1.33214436108749
H           -2.19664030006936       -1.46015764295892        1.35231024938909
H           -3.15827751044881        0.00667564767716        1.24703337086890
H           -3.28454853102327       -1.20998101519529       -0.04911608045848
H           -0.82622979739604        1.06816281478328        1.56419460753244
H           -0.07496215127973        2.26644228630081       -0.55307008270303
H            1.15767891364166        2.04843059131384        0.68672775216420
H            0.88260058701069        0.41459741197005       -1.88533802188294
H            2.14636795688484        1.57641516890878       -1.49394690013666
H            2.89686527842791       -0.79989031754810       -1.16386769205267
H            2.96219245441780        0.12351567639666        0.33875492692753
H            0.70004259966071       -1.77378228607287       -0.47635256047190
H            1.93133622481334       -2.10283556977149        0.74369204387653
H           -0.14493027282010       -1.32570663959112        1.85372995308016
H            1.14990105048304       -0.15965737609842        2.08918860127826
23
 energy: -28.352362861000 gnorm: 0.010893526363 xtb: 6.7.1 (edcfbbe)
C           -2.58789347009333       -0.71791148279733        0.64509159299686
C           -1.50603017247312        0.00726941598452       -0.10322107045302
O           -1.60450178851856        0.21826561726087       -1.30015662817814
C           -0.35335970988751        0.53153698602310        0.73145350422042
C            0.54575438719930        1.50734482670332       -0.03482902771344
C            1.45235283304275        0.81820357048721       -1.05342485487532
C            2.26872969486584       -0.29407088037748       -0.40300027982142
C            1.34142783718382       -1.29740951164826        0.27347821953023
C            0.50087095824004       -0.59959496617973        1.33612533071726
H           -2.18430278194567       -1.45172483790429        1.33817494825258
H           -3.14895443259247        0.01275616741073        1.23060126507916
H           -3.26527666544505       -1.19862448173431       -0.05549119412139
H           -0.82131659241481        1.07034652104071        1.56560691258595
H           -0.07746967577556        2.24286188151183       -0.55038363483275
H            1.16679077622259        2.04245788850947        0.69053837062984
H            0.84530227848865        0.40338258238422       -1.86317262746504
H            2.12298694395909        1.56249719099468       -1.49164747688684
H            2.87552673473892       -0.79633578793252       -1.16046442086819
H            2.95035071021855        0.13139481552961        0.34120916343839
H            0.68842832966922       -1.75710452834922       -0.47646901728745
H            1.92861383522375       -2.09377395688825        0.73804477071767
H           -0.13501554514157       -1.32335013773654        1.84687028922121
H            1.16552483685444       -0.15770612796601        2.08415421739574
23
 energy: -28.352612809438 gnorm: 0.002219876190 xtb: 6.7.1 (edcfbbe)
C           -2.57766029810957       -0.71359577861632        0.63772590843110
C           -1.49210664428306        0.00874664549506       -0.10912836059182
O           -1.57194944379005        0.20708050995787       -1.30520408015036
C           -0.34957192259945        0.53102824515699        0.74135066052010
C            0.54644279748384        1.50963474003335       -0.02580402442962
C            1.43970354915142        0.81489184550196       -1.05086827158998
C            2.26064766178059       -0.29537661435376       -0.40559179880700
C            1.33587014452090       -1.29662551991963        0.27577744720952
C            0.50204814739090       -0.59884269336409        1.34340359674114
H           -2.17229242433933       -1.44485226062651        1.32833042658907
H           -3.14137736373431        0.01678445632357        1.21478417822983
H           -3.24996180793627       -1.19643037831314       -0.06522412923376
H           -0.82094778942241        1.07084644242973        1.57105194280531
H           -0.08098890364573        2.24082399181878       -0.54032584861044
H            1.17299031538938        2.04163903563738        0.69329486611787
H            0.81733984330985        0.39532379886693       -1.84399919116484
H            2.10428569669773        1.55449832851073       -1.50265684543500
H            2.86359736162641       -0.79726223811915       -1.16440681478298
H            2.93911251928585        0.13413610876320        0.33478607586536
H            0.67814594995214       -1.74667723387763       -0.47172842619575
H            1.92294566373828       -2.09398834494976        0.73532511342349
H           -0.13052095765604       -1.32321401720479        1.85521727446491
H            1.17278722680824       -0.15785830482442        2.08297865287614
23
 energy: -28.352682343365 gnorm: 0.002303881599 xtb: 6.7.1 (edcfbbe)
C           -2.57435698406123       -0.71282865407265        0.63157109998613
C           -1.48236673187611        0.00491848807452       -0.11194075069246
O           -1.54977772696333        0.19363576371635       -1.30990487059364
C           -0.34768450183962        0.53324082764403        0.74751228731694
C            0.54896639600157        1.51323447282084       -0.01896086120635
C            1.43203087677252        0.81416873122660       -1.05101749030134
C            2.25559728998020       -0.29572779067697       -0.40782440035220
C            1.33183226743325       -1.29699655389216        0.27630740451857
C            0.50447260463047       -0.59588459749239        1.34810308113027
H           -2.16931635184816       -1.44244075728401        1.32350341825298
H           -3.13823468825196        0.01997810626430        1.20418642276534
H           -3.24404109161591       -1.19740195539745       -0.07346752715357
H           -0.82404686973258        1.07024586667231        1.57567726234552
H           -0.07981541849952        2.24656799575040       -0.52802237532228
H            1.18058947585698        2.04153702136914        0.69752967596785
H            0.79988287397221        0.39194433366800       -1.83437222653445
H            2.09280950717616        1.54984860346555       -1.51411724708901
H            2.85602400821053       -0.79806630519537       -1.16791327308349
H            2.93531146824964        0.13457924474656        0.33047215942632
H            0.66902094338200       -1.74332758560376       -0.46846038542063
H            1.91814957150761       -2.09662552607847        0.73229881441631
H           -0.12589455337737       -1.31891706585171        1.86441840470335
H            1.17938695651198       -0.15497189954732        2.08350972920210
23
 energy: -28.352716493401 gnorm: 0.001687390018 xtb: 6.7.1 (edcfbbe)
C           -2.57281716037393       -0.71334389137599        0.62640962312325
C           -1.47589432287189        0.00117369848329       -0.11341810000655
O           -1.53194406552319        0.17589281304603       -1.31469858858273
C           -0.34682556046310        0.53597551634768        0.75094908455764
C            0.55141454633038        1.51669941734475       -0.01366324259354
C            1.42651223176933        0.81474490144307       -1.05121562466655
C            2.25131337768142       -0.29649881740790       -0.41113823651166
C            1.32797400658893       -1.29658730240364        0.27670943096925
C            0.50644805477256       -0.59244373896096        1.35196582564965
H           -2.16945124965044       -1.44150550359026        1.32154627596916
H           -3.13752744478554        0.02181024375203        1.19547099341971
H           -3.23958141406163       -1.19988806494996       -0.08061183879470
H           -0.82774559464171        1.07004225568004        1.57821519263402
H           -0.07538653105174        2.25690070801369       -0.51538647107477
H            1.18887935979826        2.03798866896341        0.70300970500089
H            0.78750467812147        0.39210263644323       -1.82819322099405
H            2.08491366870271        1.54735332562692       -1.52232137933888
H            2.84946327044239       -0.79935550444898       -1.17291482305332
H            2.93377757006027        0.13274883682882        0.32581185505044
H            0.66011577494713       -1.74114050640874       -0.46510911199877
H            1.91360704667722       -2.09863789001788        0.72956167687090
H           -0.12209082098500       -1.31290825000810        1.87495503714344
H            1.18587990013544       -0.15041278807423        2.08315428950940
23
 energy: -28.352729354920 gnorm: 0.001055777224 xtb: 6.7.1 (edcfbbe)
C           -2.57284139007061       -0.71391870125359        0.62403027819117
C           -1.47166671259951       -0.00559080081452       -0.11465611297625
O           -1.52287424172827        0.15866220633125       -1.31778596116567
C           -0.34765694598507        0.53776060024323        0.75086750127025
C            0.55303186639897        1.51824333574367       -0.01064412714539
C            1.42447803160639        0.81673800576281       -1.05130511171184
C            2.24816899443036       -0.29714484475395       -0.41410947693245
C            1.32549913511769       -1.29582354887695        0.27709740643323
C            0.50772782224150       -0.58924427084767        1.35335611081041
H           -2.17332380037092       -1.44234293566978        1.32205580610022
H           -3.13694207577830        0.02336357791343        1.19169050180746
H           -3.23872376412665       -1.20024877757941       -0.08384316316197
H           -0.83214237396692        1.06973769334724        1.57754728708356
H           -0.06921444840660        2.26664487610377       -0.50647989107126
H            1.19445620470072        2.03158863415983        0.70905775436120
H            0.78356608879429        0.39589980160983       -1.82720628038264
H            2.08292828958715        1.54835191877913       -1.52369603451611
H            2.84354872275730       -0.80088272161751       -1.17782082175288
H            2.93449530464159        0.12977067528456        0.32141829430218
H            0.65463768056146       -1.74074441779479       -0.46239450089332
H            1.91111967870819       -2.09894809929446        0.72857018937038
H           -0.11932230234442       -1.30713363512171        1.88233682681094
H            1.18958955745100       -0.14402780732810        2.08100187745101
23
 energy: -28.352734284656 gnorm: 0.000844665165 xtb: 6.7.1 (edcfbbe)
C           -2.57325072239221       -0.71385138391157        0.62488273757151
C           -1.47284639314725       -0.00597921873794       -0.11481948679891
O           -1.52279849589710        0.15242737054320       -1.31885705781624
C           -0.34881270532814        0.53748130023211        0.74932471974546
C            0.55295637035596        1.51746848623538       -0.01048691519155
C            1.42535826102730        0.81774375493146       -1.05102929705056
C            2.24793578713428       -0.29749411488585       -0.41488040273215
C            1.32509958030968       -1.29511501859249        0.27720565876592
C            0.50758205907459       -0.58854417293784        1.35301738606786
H           -2.17506432187166       -1.44251083410877        1.32354564852265
H           -3.13720072725842        0.02343795881358        1.19263471163238
H           -3.23947616316502       -1.20007664147513       -0.08250869690798
H           -0.83332107706921        1.07023958670387        1.57540344184727
H           -0.06716964091347        2.26793043131366       -0.50580936781769
H            1.19414728159608        2.02840801494648        0.71131782494294
H            0.78614949947362        0.39919927368197       -1.82976240711257
H            2.08549418521906        1.55042434864551       -1.51944484050702
H            2.84121524435323       -0.80201487744233       -1.17971845156023
H            2.93631046889853        0.12809577339956        0.31952125956798
H            0.65465000751277       -1.74112427238167       -0.46197028528296
H            1.91137858963488       -2.09747168923551        0.72916754129272
H           -0.11909448069254       -1.30610633891463        1.88254778274867
H            1.18929671476438       -0.14185697249673        2.07980684835475
23
 energy: -28.352736565896 gnorm: 0.000454035393 xtb: 6.7.1 (edcfbbe)
C           -2.57369351341837       -0.71297127388483        0.62567299085727
C           -1.47185454402324       -0.00886898603463       -0.11577192045271
O           -1.52117549528754        0.14716556469538       -1.31982836082101
C           -0.34959077287247        0.53684107305767        0.74867657616892
C            0.55230096964659        1.51721752806128       -0.01027931112850
C            1.42610996341207        0.81877995385736       -1.05039366782434
C            2.24791438633346       -0.29776369450656       -0.41547130834814
C            1.32516810515095       -1.29477624918993        0.27743414810952
C            0.50731057389526       -0.58845438913874        1.35286707713396
H           -2.17650845939593       -1.44228844171544        1.32398593269467
H           -3.13571215468509        0.02541286472559        1.19370130780529
H           -3.24155947037201       -1.19819384939699       -0.08079056788744
H           -0.83466497489226        1.06983293400698        1.57424500997469
H           -0.06738304202484        2.26752414504634       -0.50618372434935
H            1.19271560029558        2.02780673882075        0.71231062802505
H            0.78807562106864        0.40196593280938       -1.83123947072309
H            2.08750518779017        1.55239717935606       -1.51585979576164
H            2.83915926943032       -0.80296494848576       -1.18133458321211
H            2.93778293899644        0.12691919291205        0.31774894988196
H            0.65509533648933       -1.74127086704671       -0.46157316942671
H            1.91193640129446       -2.09644793597146        0.72989338431227
H           -0.11890945858742       -1.30639230223136        1.88209780681106
H            1.18851685337523       -0.14075940542011        2.07918042044262
23
 energy: -28.352738191291 gnorm: 0.000339533919 xtb: 6.7.1 (edcfbbe)
C           -2.57431503478103       -0.71205804810984        0.62579242702521
C           -1.47093327158844       -0.01061680555198       -0.11629306458807
O           -1.51719378554785        0.14045616083759       -1.32118563622598
C           -0.34992521200857        0.53653982992895        0.74890328631953
C            0.55188868177886        1.51746779231495       -0.00973175124364
C            1.42640764805432        0.81977515125657       -1.04999441438906
C            2.24761606209588       -0.29788017165023       -0.41602957924664
C            1.32505132175905       -1.29481597798473        0.27748233702775
C            0.50741373553299       -0.58828929617868        1.35317364719415
H           -2.17747634715414       -1.44153887748196        1.32409299470882
H           -3.13449514051836        0.02777393277823        1.19361258216133
H           -3.24335604096233       -1.19685444288226       -0.08001213883271
H           -0.83577706988760        1.06923042122778        1.57413849910187
H           -0.06829356966380        2.26724968974530       -0.50575867910246
H            1.19172160912796        2.02841464593668        0.71302564792870
H            0.78883427648925        0.40417608888272       -1.83186721974547
H            2.08839132916649        1.55380838362039       -1.51414943149798
H            2.83718498877063       -0.80343724718723       -1.18287949497472
H            2.93882823351333        0.12588942676049        0.31633452876338
H            0.65469433048465       -1.74136631148326       -0.46119953572776
H            1.91199371993825       -2.09637670732843        0.72992919014709
H           -0.11844419360736       -1.30645808973704        1.88251872293173
H            1.18872305062713       -0.14037878338769        2.07918543454719
23
 energy: -28.352739551259 gnorm: 0.000300962121 xtb: 6.7.1 (edcfbbe)
C           -2.57576304862729       -0.71044815321341        0.62631957883372
C           -1.47034586889000       -0.01293939681863       -0.11660540131035
O           -1.51352001254342        0.13265691613126       -1.32217290431370
C           -0.35010235495354        0.53576961592329        0.74882382811888
C            0.55093908928985        1.51762850226138       -0.00986029989699
C            1.42714566631071        0.82072242932834       -1.04944872197683
C            2.24807853951894       -0.29763799464352       -0.41619965516349
C            1.32548870469534       -1.29484482835717        0.27705893225166
C            0.50760343566062       -0.58870548777572        1.35305310126495
H           -2.17973001772063       -1.44072274289888        1.32436417180906
H           -3.13288132667687        0.03135811394198        1.19451688336042
H           -3.24676660162566       -1.19392871672631       -0.07857742448007
H           -0.83637610875776        1.06786253821601        1.57411682464063
H           -0.07035114229051        2.26605153350414       -0.50660716937711
H            1.18938289757271        2.03022649896569        0.71293874201610
H            0.79074035447465        0.40609936073291       -1.83269997758903
H            2.08968275094021        1.55533895673012       -1.51186752296841
H            2.83694969673875       -0.80296926709766       -1.18373664486909
H            2.93990970489161        0.12517378367418        0.31615788273885
H            0.65515741444786       -1.74155631640510       -0.46159072369781
H            1.91256648371041       -2.09633163005246        0.72944611300754
H           -0.11808015165795       -1.30721151310000        1.88235582664978
H            1.18881121711128       -0.14088143799414        2.07930291323354
23
 energy: -28.352740659811 gnorm: 0.000287686444 xtb: 6.7.1 (edcfbbe)
C           -2.57718507892805       -0.70860288892061        0.62701904317661
C           -1.46989862253828       -0.01502706275220       -0.11675471708310
O           -1.51032969373409        0.12556482703663       -1.32304421001175
C           -0.35023293073094        0.53502152956137        0.74882578740360
C            0.55008122916570        1.51735030029045       -0.01015245171551
C            1.42773776981985        0.82141018986312       -1.04919849149621
C            2.24854138077944       -0.29697367651654       -0.41585700934353
C            1.32621395897684       -1.29502379158120        0.27649838997930
C            0.50794568647924       -0.58937949229885        1.35251326736207
H           -2.18260014092027       -1.44000765575623        1.32484861744313
H           -3.13157245746655        0.03479265850364        1.19578668013313
H           -3.24994309678081       -1.19042837100502       -0.07728596155508
H           -0.83661546274200        1.06668011725164        1.57431792223487
H           -0.07207636107694        2.26459311108257       -0.50765910807294
H            1.18734789472873        2.03148506904655        0.71266552915186
H            0.79220811423608        0.40671655262536       -1.83310842077103
H            2.09033240855575        1.55655706350653       -1.51071898622595
H            2.83802742991480       -0.80159548856320       -1.18339875115437
H            2.93990637652282        0.12560735830307        0.31712843592917
H            0.65612459396369       -1.74145291008334       -0.46257372304132
H            1.91331196330750       -2.09670435423087        0.72856768913779
H           -0.11774116342336       -1.30817660843418        1.88153862723340
H            1.18895552351016       -0.14169571260233        2.07913019356813
23
 energy: -28.352741870794 gnorm: 0.000196522971 xtb: 6.7.1 (edcfbbe)
C           -2.57853983143634       -0.70681931344495        0.62774874886012
C           -1.46970171164022       -0.01678605620777       -0.11674245182996
O           -1.50821289415201        0.11964433083325       -1.32353404296916
C           -0.35019148477488        0.53424840965607        0.74852944118100
C            0.54940841808402        1.51707129709514       -0.01058495759312
C            1.42800115176925        0.82150787458464       -1.04906457963854
C            2.24940591061932       -0.29607418884310       -0.41517338235870
C            1.32696106312466       -1.29495426790287        0.27572174253375
C            0.50819462073845       -0.59027397357271        1.35186468450525
H           -2.18539259632342       -1.43953565735454        1.32511263013252
H           -3.13037009005570        0.03779434414926        1.19738266827618
H           -3.25303882558465       -1.18682893219186       -0.07610873489216
H           -0.83630171915323        1.06554430037390        1.57437186725781
H           -0.07333454283423        2.26354251440891       -0.50859909899499
H            1.18595701510499        2.03225529521371        0.71221014378054
H            0.79309812454234        0.40605545898754       -1.83308404294156
H            2.09017635276844        1.55704189732065       -1.51048587697559
H            2.84058538305445       -0.79978640498706       -1.18205874403278
H            2.93929419260660        0.12705576499542        0.31895553884310
H            0.65734948142889       -1.74092782990375       -0.46408095796876
H            1.91393561867954       -2.09693100351128        0.72739810849735
H           -0.11762871260112       -1.30937928100253        1.88037633788425
H            1.18888439765415       -0.14275381436972        2.07893331072575
23
 energy: -28.352742958783 gnorm: 0.000176602478 xtb: 6.7.1 (edcfbbe)
C           -2.57993243252877       -0.70511022949454        0.62869902931492
C           -1.46989821432210       -0.01822546679443       -0.11669085131058
O           -1.50732951454219        0.11481383939622       -1.32383222085760
C           -0.35040794448139        0.53346653927992        0.74800163394855
C            0.54887783161746        1.51642134892785       -0.01121728735824
C            1.42840074750785        0.82150731962921       -1.04925626656236
C            2.25045669005424       -0.29492723671563       -0.41427643376949
C            1.32805452937299       -1.29485457239063        0.27507180322581
C            0.50826782538964       -0.59124152720642        1.35100408790024
H           -2.18805997429642       -1.43926237165598        1.32533687527654
H           -3.12926166293729        0.04050563907124        1.19943090446873
H           -3.25630133564317       -1.18320809967038       -0.07465908614991
H           -0.83617419865002        1.06458860598467        1.57415257005471
H           -0.07399307366898        2.26265519243780       -0.50940691018764
H            1.18497138554123        2.03195499274432        0.71173639566349
H            0.79413163005277        0.40495619329619       -1.83319966841901
H            2.08991426397939        1.55750227023367       -1.51088108414879
H            2.84369821532110       -0.79778222871912       -1.18014221029413
H            2.93848401161941        0.12914444310693        0.32108716317585
H            0.65921962659268       -1.74035676845807       -0.46570449637078
H            1.91487780934437       -2.09710690142733        0.72648021826086
H           -0.11774981479168       -1.31082034446715        1.87858357926270
H            1.18829292108820       -0.14390987278198        2.07877060715841
23
 energy: -28.352743639663 gnorm: 0.000123718586 xtb: 6.7.1 (edcfbbe)
C           -2.58105255247878       -0.70370178687774        0.62945612735215
C           -1.46998686649815       -0.01939640931388       -0.11690783747454
O           -1.50654925137820        0.11108853823716       -1.32441098892128
C           -0.35057462606853        0.53269178798744        0.74747115733978
C            0.54851016153216        1.51597892332881       -0.01155241004171
C            1.42849169371988        0.82139121143743       -1.04938039377855
C            2.25135236906463       -0.29400865380148       -0.41370197391548
C            1.32903985963817       -1.29468766069933        0.27463476767642
C            0.50821599427152       -0.59207153544540        1.35041215989505
H           -2.19013532148031       -1.43891717447344        1.32552364531469
H           -3.12827640625856        0.04283800777174        1.20097238490140
H           -3.25903733597283       -1.18030650192159       -0.07334506232789
H           -0.83614224366285        1.06378058561478        1.57373599011047
H           -0.07441513756418        2.26215980632299       -0.50974253998250
H            1.18438865771994        2.03144346821507        0.71163991608765
H            0.79469206912692        0.40394570132096       -1.83324900778354
H            2.08943891620428        1.55780245660140       -1.51113361910471
H            2.84600611835086       -0.79628653003986       -1.17884239924110
H            2.93803825778060        0.13095943216336        0.32237851901524
H            0.66097739022192       -1.74015362909313       -0.46683734431144
H            1.91597148063013       -2.09682273189344        0.72607307632752
H           -0.11791516358621       -1.31222939593183        1.87703869925307
H            1.18750125830689       -0.14478714518368        2.07885548589158
23
 energy: -28.352744039900 gnorm: 0.000088047086 xtb: 6.7.1 (edcfbbe)
C           -2.58192581443362       -0.70275418315095        0.62986644380026
C           -1.47019442975741       -0.02006326474544       -0.11704516930961
O           -1.50636059552223        0.10900630929956       -1.32464894044464
C           -0.35074792626359        0.53210778963053        0.74712491580342
C            0.54826285719623        1.51561028986915       -0.01177192417763
C            1.42862343154196        0.82138849228828       -1.04949857452786
C            2.25198710440662       -0.29339486435376       -0.41340272302919
C            1.32994634407303       -1.29462659173300        0.27451497615521
C            0.50815471179186       -0.59263653023501        1.34999372080116
H           -2.19146617753228       -1.43859205813689        1.32551572757180
H           -3.12758621923681        0.04451178180290        1.20188464573260
H           -3.26107126652203       -1.17837652922087       -0.07249249020257
H           -0.83626449066652        1.06308794491940        1.57347160408998
H           -0.07475116277974        2.26174904203173       -0.50988553568344
H            1.18399574352586        2.03103450532187        0.71155278056563
H            0.79506028377003        0.40340621663709       -1.83326694534132
H            2.08915227208788        1.55808352352732       -1.51141589839780
H            2.84733189714679       -0.79537442923545       -1.17818711063613
H            2.93800429272153        0.13213077749346        0.32295402351716
H            0.66249663790958       -1.74042184603292       -0.46729025841829
H            1.91711545947990       -2.09643146091342        0.72621812067602
H           -0.11804396635527       -1.31329204552811        1.87584947080215
H            1.18682033503750       -0.14544210520912        2.07904749293535
23
 energy: -28.352744327558 gnorm: 0.000052675110 xtb: 6.7.1 (edcfbbe)
C           -2.58261659385969       -0.70190912740209        0.63010711588482
C           -1.47023225948810       -0.02064452858202       -0.11721856711464
O           -1.50581723297746        0.10713414356239       -1.32499683191304
C           -0.35085388791885        0.53162992613972        0.74696451764864
C            0.54802221110023        1.51535697902649       -0.01183212628107
C            1.42858446092050        0.82142251390972       -1.04956432309859
C            2.25238940676245       -0.29295472209039       -0.41333388536562
C            1.33072893337775       -1.29459750851895        0.27450798044801
C            0.50815312881379       -0.59308393334511        1.34975128029639
H           -2.19268220731377       -1.43814322863243        1.32564978874370
H           -3.12718296903474        0.04602835367311        1.20227320623178
H           -3.26251702337665       -1.17685308051324       -0.07196724626777
H           -0.83641691080610        1.06247959786414        1.57336194818408
H           -0.07507837353692        2.26149099350238       -0.50983180225793
H            1.18361892816575        2.03073587897829        0.71162938075486
H            0.79518075017882        0.40312901662017       -1.83327737622100
H            2.08880754392426        1.55833425751592       -1.51156360232828
H            2.84799611086913       -0.79473558856485       -1.17804076775226
H            2.93815728361671        0.13288944154561        0.32306285558592
H            0.66379886308274       -1.74093420705326       -0.46743850759237
H            1.91827528664427       -2.09595724955599        0.72652022343261
H           -0.11808415989109       -1.31415824480152        1.87500578712436
H            1.18630803236629       -0.14594891895175        2.07931930413968
23
 energy: -28.352744554193 gnorm: 0.000048443412 xtb: 6.7.1 (edcfbbe)