 Entering Gaussian System
 *********************************************
 Gaussian 98:
 frequency output generated by the xtb code
 *********************************************
                         Standard orientation:
 --------------------------------------------------------------------
  Center     Atomic     Atomic              Coordinates (Angstroms)
  Number     Number      Type              X           Y           Z
 --------------------------------------------------------------------
    1          6             0        2.069531   -1.029579    0.000343
    2          6             0        2.330582    0.340797    0.000109
    3          6             0        1.301205    1.255363   -0.000142
    4          6             0       -0.028412    0.824305   -0.000166
    5          6             0       -0.300348   -0.563723    0.000073
    6          6             0        0.769937   -1.472901    0.000325
    7          6             0       -1.656796   -1.045961    0.000061
    8          8             0       -2.662328   -0.342701   -0.000134
    9          8             0       -0.996987    1.744407   -0.000404
   10          1             0        2.885836   -1.733345    0.000528
   11          1             0        3.350952    0.690625    0.000121
   12          1             0        1.488747    2.317018   -0.000318
   13          1             0        0.546962   -2.529073    0.000495
   14          1             0       -1.762923   -2.143247    0.000256
   15          1             0       -1.876948    1.301501   -0.000386
 --------------------------------------------------------------------
     1 basis functions        1 primitive gaussians
     1 alpha electrons        1 beta electrons
 
 Harmonic frequencies (cm**-1), IR intensities (km*mol⁻¹),
 Raman scattering activities (A**4/amu), Raman depolarization ratios,
 reduced masses (AMU), force constants (mDyne/A) and normal coordinates:
                      1                      2                      3
                        a                      a                      a 
 Frequencies --   123.7903               188.8008               253.2033
 Red. masses --    13.1506                10.0031                14.0922
 Frc consts  --     0.0000                 0.0000                 0.0000
 IR Inten    --     1.2584                 4.3872                16.3883
 Raman Activ --     0.0000                 0.0000                 0.0000
 Depolar     --     0.0000                 0.0000                 0.0000
 Atom AN      X      Y      Z        X      Y      Z        X      Y      Z
   1   6    -0.00  -0.00   0.01    -0.00   0.00   0.39     0.09   0.06   0.00
   2   6    -0.00   0.00   0.36     0.00  -0.00  -0.04    -0.07   0.10   0.00
   3   6    -0.00   0.00   0.21     0.00  -0.00  -0.37    -0.15  -0.01  -0.00
   4   6     0.00  -0.00  -0.17     0.00  -0.00  -0.10    -0.08  -0.19  -0.00
   5   6     0.00  -0.00  -0.28     0.00  -0.00  -0.20     0.07  -0.22  -0.00
   6   6     0.00  -0.00  -0.32    -0.00   0.00   0.08     0.15  -0.14  -0.00
   7   6     0.00  -0.00  -0.01     0.00  -0.00  -0.45    -0.02   0.12   0.00
   8   8    -0.00   0.00   0.58    -0.00   0.00   0.33     0.29   0.65  -0.00
   9   8     0.00  -0.00  -0.43    -0.00   0.00   0.30    -0.23  -0.40   0.00
  10   1    -0.00  -0.00   0.01    -0.00   0.00   0.24     0.05   0.05   0.00
  11   1    -0.00   0.00   0.21     0.00  -0.00  -0.02    -0.03   0.06   0.00
  12   1    -0.00   0.00   0.12     0.00  -0.00  -0.17    -0.08   0.00  -0.00
  13   1     0.00  -0.00  -0.15    -0.00   0.00   0.05     0.08  -0.05  -0.00
  14   1     0.00  -0.00  -0.04     0.00  -0.00  -0.38    -0.14   0.05   0.00
  15   1    -0.00   0.00  -0.07    -0.00   0.00   0.14    -0.04  -0.16   0.00
                      4                      5                      6
                        a                      a                      a 
 Frequencies --   271.0829               401.1865               403.1742
 Red. masses --     9.6438                12.2787                 9.3794
 Frc consts  --     0.0000                 0.0000                 0.0000
 IR Inten    --     2.7617                 6.3272                 0.1018
 Raman Activ --     0.0000                 0.0000                 0.0000
 Depolar     --     0.0000                 0.0000                 0.0000
 Atom AN      X      Y      Z        X      Y      Z        X      Y      Z
   1   6    -0.00   0.00   0.20     0.09   0.27  -0.00    -0.00  -0.00  -0.02
   2   6     0.00   0.00   0.21     0.17   0.26   0.00    -0.00  -0.00   0.33
   3   6     0.00  -0.00  -0.28    -0.04  -0.05  -0.00     0.00  -0.00  -0.40
   4   6     0.00  -0.00  -0.27     0.05  -0.32   0.00    -0.00   0.00   0.20
   5   6     0.00  -0.00  -0.32    -0.19  -0.27   0.00     0.00   0.00   0.57
   6   6    -0.00  -0.00  -0.28     0.13   0.03  -0.00    -0.00  -0.00  -0.33
   7   6    -0.00   0.00   0.38    -0.37  -0.09  -0.00     0.00   0.00   0.02
   8   8    -0.00  -0.00  -0.20    -0.34   0.05  -0.00     0.00  -0.00  -0.05
   9   8     0.00   0.00   0.36     0.48   0.03  -0.00    -0.00  -0.00  -0.09
  10   1    -0.00   0.00   0.16     0.03   0.08  -0.00    -0.00  -0.00  -0.08
  11   1    -0.00   0.00   0.17     0.04   0.10   0.00    -0.00  -0.00   0.16
  12   1     0.00  -0.00  -0.09    -0.13   0.01  -0.00     0.00  -0.00  -0.30
  13   1    -0.00  -0.00  -0.12     0.14  -0.01  -0.00    -0.00  -0.00  -0.29
  14   1     0.00   0.00   0.45    -0.15  -0.02  -0.00     0.00  -0.00  -0.19
  15   1     0.00   0.00   0.04     0.06   0.13   0.00    -0.00  -0.00   0.02
                      7                      8                      9
                        a                      a                      a 
 Frequencies --   431.2281               498.9250               540.6040
 Red. masses --    12.9488                 9.3216                12.0759
 Frc consts  --     0.0000                 0.0000                 0.0000
 IR Inten    --    13.7678                 0.9977                 4.9775
 Raman Activ --     0.0000                 0.0000                 0.0000
 Depolar     --     0.0000                 0.0000                 0.0000
 Atom AN      X      Y      Z        X      Y      Z        X      Y      Z
   1   6    -0.00   0.05  -0.00    -0.00   0.00   0.46     0.48  -0.16   0.00
   2   6     0.25   0.01   0.00     0.00  -0.00  -0.34     0.26  -0.16   0.00
   3   6     0.31   0.12   0.00    -0.00   0.00   0.15    -0.05  -0.41   0.00
   4   6     0.28   0.05  -0.00    -0.00   0.00   0.48    -0.25   0.07  -0.00
   5   6    -0.00   0.14  -0.00     0.00  -0.00  -0.10    -0.03   0.05  -0.00
   6   6    -0.04   0.11  -0.00     0.00  -0.00  -0.35     0.28   0.27  -0.00
   7   6    -0.12   0.27  -0.00    -0.00   0.00   0.06    -0.13   0.06  -0.00
   8   8    -0.44  -0.07   0.00    -0.00   0.00  -0.01    -0.18   0.05  -0.00
   9   8    -0.19  -0.53   0.00    -0.00  -0.00  -0.17    -0.33   0.19  -0.00
  10   1    -0.03  -0.02  -0.00    -0.00   0.00   0.20     0.09  -0.09   0.00
  11   1     0.09  -0.05   0.00     0.00  -0.00  -0.33     0.03   0.07  -0.00
  12   1     0.11   0.03   0.00     0.00  -0.00  -0.09     0.03  -0.12   0.00
  13   1    -0.01   0.03   0.00     0.00  -0.00  -0.26     0.06   0.08  -0.00
  14   1     0.02   0.07  -0.00    -0.00   0.00   0.12    -0.05   0.02  -0.00
  15   1     0.01  -0.27   0.00     0.00  -0.00  -0.13    -0.08   0.04  -0.00
                     10                     11                     12
                        a                      a                      a 
 Frequencies --   642.0961               666.6102               691.5113
 Red. masses --    11.7970                 3.6182                 9.4392
 Frc consts  --     0.0000                 0.0000                 0.0000
 IR Inten    --    42.8190               155.8150                69.5873
 Raman Activ --     0.0000                 0.0000                 0.0000
 Depolar     --     0.0000                 0.0000                 0.0000
 Atom AN      X      Y      Z        X      Y      Z        X      Y      Z
   1   6     0.20  -0.17   0.00    -0.00  -0.00  -0.14    -0.00   0.00   0.21
   2   6    -0.35  -0.02  -0.00     0.00   0.00   0.17     0.00  -0.00  -0.24
   3   6    -0.14   0.17  -0.00     0.00  -0.00  -0.17    -0.00   0.00   0.21
   4   6    -0.01   0.01  -0.00     0.00   0.00   0.23     0.00  -0.00  -0.56
   5   6     0.30  -0.07   0.00     0.00  -0.00  -0.18    -0.00   0.00   0.44
   6   6     0.26  -0.40   0.00    -0.00   0.00   0.16     0.00  -0.00  -0.24
   7   6     0.06   0.42  -0.00    -0.00   0.00  -0.06    -0.00   0.00   0.03
   8   8    -0.39  -0.10  -0.00    -0.00   0.00   0.09    -0.00   0.00   0.02
   9   8     0.07   0.10  -0.00    -0.00  -0.00   0.17    -0.00  -0.00   0.19
  10   1     0.16   0.07   0.00    -0.00  -0.00  -0.08    -0.00   0.00   0.10
  11   1    -0.11   0.03  -0.00     0.00  -0.00  -0.01     0.00  -0.00   0.01
  12   1    -0.01   0.04  -0.00     0.00  -0.00  -0.13    -0.00   0.00   0.19
  13   1     0.05  -0.11   0.00    -0.00   0.00   0.03     0.00  -0.00  -0.04
  14   1     0.07   0.10  -0.00    -0.00   0.00   0.04     0.00  -0.00  -0.15
  15   1    -0.01   0.09  -0.00     0.00  -0.00  -0.87     0.00  -0.00  -0.42
                     13                     14                     15
                        a                      a                      a 
 Frequencies --   772.3604               788.8933               848.2302
 Red. masses --     3.6751                11.4441                11.2923
 Frc consts  --     0.0000                 0.0000                 0.0000
 IR Inten    --    46.2280                47.2827                27.6641
 Raman Activ --     0.0000                 0.0000                 0.0000
 Depolar     --     0.0000                 0.0000                 0.0000
 Atom AN      X      Y      Z        X      Y      Z        X      Y      Z
   1   6     0.00  -0.00  -0.17    -0.04   0.02  -0.00     0.31  -0.28   0.00
   2   6     0.00  -0.00  -0.17    -0.15  -0.01  -0.00    -0.45  -0.16   0.00
   3   6     0.00  -0.00  -0.18    -0.30  -0.34   0.00    -0.02   0.31  -0.00
   4   6    -0.00   0.00   0.29    -0.09  -0.21   0.00     0.13   0.08  -0.00
   5   6    -0.00  -0.00   0.02     0.01   0.21  -0.00    -0.12   0.09  -0.00
   6   6     0.00  -0.00  -0.22    -0.08   0.37  -0.00     0.11   0.37  -0.00
   7   6    -0.00   0.00   0.11     0.28   0.35  -0.00    -0.21  -0.29   0.00
   8   8     0.00  -0.00  -0.04     0.02  -0.09   0.00     0.02   0.08  -0.00
   9   8    -0.00   0.00  -0.06     0.33  -0.30   0.00     0.21  -0.18   0.00
  10   1    -0.00   0.00   0.53    -0.06  -0.04   0.00     0.11  -0.05   0.00
  11   1    -0.00   0.00   0.42    -0.08   0.10  -0.00    -0.14   0.00  -0.00
  12   1    -0.00   0.00   0.32    -0.18  -0.08   0.00     0.09   0.07  -0.00
  13   1    -0.00   0.00   0.42    -0.10   0.12  -0.00    -0.06   0.12   0.00
  14   1    -0.00  -0.00  -0.13     0.19   0.08  -0.00    -0.11  -0.07   0.00
  15   1    -0.00  -0.00  -0.05     0.04   0.02  -0.00     0.07  -0.09  -0.00
                     16                     17                     18
                        a                      a                      a 
 Frequencies --   877.6178               906.6563               923.7771
 Red. masses --     3.5481                 4.5042                 4.6730
 Frc consts  --     0.0000                 0.0000                 0.0000
 IR Inten    --     2.0035                 0.6580                 0.2426
 Raman Activ --     0.0000                 0.0000                 0.0000
 Depolar     --     0.0000                 0.0000                 0.0000
 Atom AN      X      Y      Z        X      Y      Z        X      Y      Z
   1   6     0.00   0.00   0.17     0.00  -0.00  -0.27     0.00  -0.00  -0.22
   2   6    -0.00  -0.00  -0.16     0.00  -0.00  -0.13    -0.00   0.00   0.14
   3   6     0.00  -0.00  -0.33    -0.00   0.00   0.14     0.00   0.00   0.01
   4   6    -0.00   0.00   0.10     0.00  -0.00  -0.05     0.00  -0.00  -0.07
   5   6    -0.00  -0.00  -0.02    -0.00   0.00   0.15     0.00  -0.00  -0.16
   6   6    -0.00   0.00   0.23    -0.00   0.00   0.23    -0.00   0.00   0.21
   7   6    -0.00  -0.00  -0.04     0.00  -0.00  -0.34    -0.00   0.00   0.42
   8   8     0.00   0.00   0.01    -0.00   0.00   0.09     0.00  -0.00  -0.11
   9   8     0.00  -0.00  -0.03    -0.00   0.00   0.01     0.00  -0.00   0.00
  10   1     0.00  -0.00  -0.25    -0.00   0.00   0.50    -0.00   0.00   0.40
  11   1    -0.00   0.00   0.22    -0.00   0.00   0.22     0.00  -0.00  -0.30
  12   1    -0.00   0.00   0.66     0.00  -0.00  -0.20    -0.00   0.00   0.07
  13   1     0.00  -0.00  -0.47     0.00  -0.00  -0.42     0.00  -0.00  -0.39
  14   1    -0.00   0.00   0.05    -0.00   0.00   0.40     0.00  -0.00  -0.51
  15   1    -0.00   0.00  -0.02    -0.00   0.00   0.01    -0.00   0.00  -0.01
                     19                     20                     21
                        a                      a                      a 
 Frequencies --   929.0105              1072.7023              1112.2949
 Red. masses --     4.2832                 6.3106                 5.2121
 Frc consts  --     0.0000                 0.0000                 0.0000
 IR Inten    --     0.2545                12.6830                88.6422
 Raman Activ --     0.0000                 0.0000                 0.0000
 Depolar     --     0.0000                 0.0000                 0.0000
 Atom AN      X      Y      Z        X      Y      Z        X      Y      Z
   1   6     0.00  -0.00  -0.11     0.18  -0.39   0.00     0.10  -0.03   0.00
   2   6    -0.00   0.00   0.35     0.30   0.20  -0.00     0.08   0.14  -0.00
   3   6     0.00  -0.00  -0.22    -0.02   0.34  -0.00    -0.14  -0.24   0.00
   4   6    -0.00   0.00  -0.03    -0.06  -0.15   0.00     0.12   0.26  -0.00
   5   6    -0.00   0.00   0.18    -0.05   0.02  -0.00     0.04   0.19  -0.00
   6   6     0.00  -0.00  -0.12    -0.11  -0.06   0.00    -0.15  -0.28   0.00
   7   6     0.00  -0.00  -0.25     0.03   0.04  -0.00    -0.07  -0.14   0.00
   8   8    -0.00   0.00   0.06     0.04  -0.02   0.00    -0.03   0.03   0.00
   9   8    -0.00   0.00  -0.01    -0.04  -0.01  -0.00     0.10   0.07   0.00
  10   1    -0.00   0.00   0.22    -0.09  -0.28   0.00     0.16   0.14  -0.00
  11   1     0.00  -0.00  -0.62     0.09   0.08  -0.00    -0.12   0.43  -0.00
  12   1    -0.00   0.00   0.41    -0.48   0.19  -0.00    -0.12  -0.05   0.00
  13   1    -0.00   0.00   0.14    -0.35   0.04  -0.00    -0.28  -0.03  -0.00
  14   1    -0.00   0.00   0.30     0.01   0.01   0.00    -0.07  -0.03  -0.00
  15   1     0.00  -0.00   0.02    -0.08   0.16  -0.00     0.24  -0.46   0.00
                     22                     23                     24
                        a                      a                      a 
 Frequencies --  1159.5587              1169.7578              1231.9713
 Red. masses --     3.1645                 1.7060                 6.9422
 Frc consts  --     0.0000                 0.0000                 0.0000
 IR Inten    --   306.7309                22.5388                90.7507
 Raman Activ --     0.0000                 0.0000                 0.0000
 Depolar     --     0.0000                 0.0000                 0.0000
 Atom AN      X      Y      Z        X      Y      Z        X      Y      Z
   1   6     0.04  -0.03   0.00    -0.04  -0.10   0.00     0.08  -0.22   0.00
   2   6     0.05   0.17  -0.00     0.00   0.07  -0.00     0.06   0.03  -0.00
   3   6     0.11  -0.01   0.00    -0.05   0.08  -0.00     0.12   0.06  -0.00
   4   6    -0.17  -0.00  -0.00     0.02   0.07  -0.00    -0.14   0.07  -0.00
   5   6    -0.04   0.06  -0.00    -0.06  -0.13   0.00    -0.59   0.13  -0.00
   6   6    -0.09  -0.13   0.00     0.01  -0.00   0.00    -0.09  -0.14   0.00
   7   6    -0.02  -0.02   0.00     0.06   0.05  -0.00     0.11   0.08  -0.00
   8   8     0.04  -0.00  -0.00    -0.01  -0.00   0.00     0.08   0.01   0.00
   9   8     0.05  -0.25   0.00     0.03   0.05  -0.00     0.06  -0.07   0.00
  10   1     0.08   0.07  -0.00    -0.44  -0.52   0.00     0.30   0.25  -0.00
  11   1    -0.10   0.38  -0.00    -0.15   0.45  -0.00     0.01   0.04  -0.00
  12   1     0.56  -0.10   0.00     0.19  -0.01   0.00    -0.08   0.04  -0.00
  13   1    -0.29   0.02  -0.00     0.42  -0.09   0.00     0.43  -0.14   0.00
  14   1    -0.01  -0.01   0.00     0.05   0.01  -0.00     0.32  -0.00   0.00
  15   1    -0.22   0.45  -0.00     0.07  -0.14   0.00     0.00  -0.02  -0.00
                     25                     26                     27
                        a                      a                      a 
 Frequencies --  1249.0850              1262.7433              1353.0009
 Red. masses --    10.0609                 5.8412                10.5176
 Frc consts  --     0.0000                 0.0000                 0.0000
 IR Inten    --   315.9080                37.5206                26.8994
 Raman Activ --     0.0000                 0.0000                 0.0000
 Depolar     --     0.0000                 0.0000                 0.0000
 Atom AN      X      Y      Z        X      Y      Z        X      Y      Z
   1   6     0.09   0.02   0.00    -0.07   0.03  -0.00    -0.27  -0.15   0.00
   2   6    -0.09  -0.05   0.00    -0.09  -0.22   0.00    -0.20   0.27  -0.00
   3   6     0.11   0.08  -0.00     0.14  -0.11   0.00     0.36  -0.13   0.00
   4   6     0.26  -0.40   0.00     0.44  -0.07   0.00    -0.08  -0.36   0.00
   5   6    -0.24  -0.40   0.00     0.17   0.12  -0.00     0.06   0.33  -0.00
   6   6    -0.12   0.17  -0.00    -0.12   0.07  -0.00     0.39  -0.03   0.00
   7   6     0.13   0.24  -0.00    -0.13  -0.06   0.00    -0.12  -0.16   0.00
   8   8     0.07  -0.08   0.00     0.04   0.01  -0.00    -0.07   0.13  -0.00
   9   8    -0.22   0.32  -0.00    -0.21  -0.01  -0.00    -0.09   0.13  -0.00
  10   1     0.12   0.12  -0.00     0.07   0.12  -0.00    -0.08  -0.04   0.00
  11   1    -0.09   0.18  -0.00    -0.18   0.39  -0.00    -0.04   0.03  -0.00
  12   1     0.18  -0.01   0.00    -0.37   0.04  -0.00    -0.02  -0.02   0.00
  13   1    -0.26   0.09  -0.00     0.24  -0.04   0.00    -0.09   0.04  -0.00
  14   1     0.11   0.05  -0.00    -0.02  -0.02   0.00     0.33  -0.07   0.00
  15   1     0.08  -0.20   0.00    -0.20   0.36  -0.00     0.05  -0.12   0.00
                     28                     29                     30
                        a                      a                      a 
 Frequencies --  1369.3946              1435.8484              1441.5408
 Red. masses --     5.2362                 9.5118                 9.5408
 Frc consts  --     0.0000                 0.0000                 0.0000
 IR Inten    --    66.2611               139.5566               146.7814
 Raman Activ --     0.0000                 0.0000                 0.0000
 Depolar     --     0.0000                 0.0000                 0.0000
 Atom AN      X      Y      Z        X      Y      Z        X      Y      Z
   1   6     0.23   0.20  -0.00     0.23  -0.08   0.00     0.19   0.30  -0.00
   2   6     0.04  -0.07   0.00    -0.06   0.31  -0.00    -0.28   0.05  -0.00
   3   6    -0.29   0.00  -0.00    -0.26  -0.08  -0.00     0.20  -0.22   0.00
   4   6     0.22   0.07   0.00     0.33  -0.34   0.00     0.20   0.24  -0.00
   5   6     0.06  -0.06   0.00    -0.04   0.42  -0.00    -0.47  -0.01  -0.00
   6   6    -0.14  -0.09   0.00    -0.20  -0.13   0.00     0.26  -0.24   0.00
   7   6    -0.20  -0.14   0.00    -0.10   0.06  -0.00     0.09   0.09  -0.00
   8   8    -0.05   0.19  -0.00     0.15  -0.11   0.00     0.08  -0.07   0.00
   9   8    -0.03  -0.02   0.00    -0.12   0.09  -0.00    -0.04  -0.07   0.00
  10   1    -0.08  -0.12   0.00    -0.00  -0.11   0.00    -0.21  -0.22   0.00
  11   1     0.05  -0.13   0.00     0.10  -0.24   0.00    -0.04  -0.11   0.00
  12   1     0.08  -0.03   0.00     0.23  -0.08   0.00    -0.18  -0.02  -0.00
  13   1    -0.10  -0.02  -0.00     0.19  -0.09   0.00    -0.24  -0.01  -0.00
  14   1     0.74  -0.12   0.00    -0.25   0.04  -0.00    -0.10   0.03  -0.00
  15   1    -0.04   0.09  -0.00    -0.01   0.02   0.00    -0.08   0.13  -0.00
                     31                     32                     33
                        a                      a                      a 
 Frequencies --  1544.1690              1597.2855              1632.9376
 Red. masses --    11.4169                11.4617                13.0895
 Frc consts  --     0.0000                 0.0000                 0.0000
 IR Inten    --   185.3624               274.4822               889.2466
 Raman Activ --     0.0000                 0.0000                 0.0000
 Depolar     --     0.0000                 0.0000                 0.0000
 Atom AN      X      Y      Z        X      Y      Z        X      Y      Z
   1   6     0.19   0.40  -0.00     0.35   0.08   0.00    -0.13  -0.10   0.00
   2   6     0.07  -0.50   0.00    -0.28   0.23  -0.00     0.02   0.07  -0.00
   3   6     0.08   0.25  -0.00     0.47  -0.15   0.00    -0.01  -0.03   0.00
   4   6    -0.31  -0.32   0.00    -0.29   0.01  -0.00    -0.03   0.17  -0.00
   5   6    -0.02   0.36  -0.00     0.27  -0.14   0.00     0.06  -0.12   0.00
   6   6    -0.01  -0.19   0.00    -0.51   0.04  -0.00     0.14   0.04   0.00
   7   6    -0.15   0.06  -0.00    -0.07   0.02  -0.00    -0.65   0.38  -0.00
   8   8     0.12  -0.08   0.00     0.01  -0.01   0.00     0.46  -0.31   0.00
   9   8     0.05   0.03  -0.00     0.03  -0.00   0.00     0.03  -0.04   0.00
  10   1    -0.09  -0.06   0.00    -0.00  -0.09   0.00     0.01   0.02  -0.00
  11   1    -0.07   0.13  -0.00    -0.02  -0.09   0.00     0.01   0.01  -0.00
  12   1    -0.01   0.07  -0.00    -0.11  -0.00  -0.00    -0.02  -0.00  -0.00
  13   1    -0.04  -0.04   0.00     0.11  -0.05   0.00    -0.02   0.02  -0.00
  14   1    -0.03   0.02  -0.00     0.05  -0.00   0.00     0.10   0.04   0.00
  15   1     0.07  -0.12   0.00     0.03  -0.06   0.00     0.04  -0.04   0.00
                     34                     35                     36
                        a                      a                      a 
 Frequencies --  2814.1574              3086.8084              3097.7107
 Red. masses --     1.7014                 1.8064                 1.7893
 Frc consts  --     0.0000                 0.0000                 0.0000
 IR Inten    --   200.7292                21.0780                10.2635
 Raman Activ --     0.0000                 0.0000                 0.0000
 Depolar     --     0.0000                 0.0000                 0.0000
 Atom AN      X      Y      Z        X      Y      Z        X      Y      Z
   1   6     0.00   0.00   0.00    -0.04   0.04  -0.00     0.07  -0.06   0.00
   2   6     0.00  -0.00   0.00     0.00   0.00  -0.00    -0.23  -0.08  -0.00
   3   6     0.00   0.00  -0.00     0.00  -0.00   0.00     0.01   0.07  -0.00
   4   6     0.00  -0.00   0.00     0.00   0.00  -0.00     0.00   0.00  -0.00
   5   6     0.00   0.02  -0.00    -0.01  -0.01   0.00    -0.00  -0.00  -0.00
   6   6    -0.00  -0.00   0.00    -0.06  -0.26   0.00    -0.00  -0.03   0.00
   7   6     0.04   0.24  -0.00    -0.00   0.00  -0.00    -0.00  -0.00   0.00
   8   8    -0.01   0.02  -0.00     0.00  -0.00   0.00     0.00   0.00  -0.00
   9   8    -0.01  -0.00  -0.00    -0.00  -0.00   0.00    -0.00  -0.00   0.00
  10   1    -0.00   0.00  -0.00     0.18  -0.16   0.00    -0.25   0.21  -0.00
  11   1    -0.00  -0.00   0.00    -0.01  -0.01   0.00     0.81   0.28   0.00
  12   1     0.00  -0.00   0.00    -0.00   0.00  -0.00    -0.05  -0.28   0.00
  13   1     0.01   0.00  -0.00     0.19   0.91  -0.00     0.02   0.09  -0.00
  14   1    -0.10  -0.96   0.00     0.00   0.00  -0.00     0.00   0.00  -0.00
  15   1     0.02   0.00   0.00     0.02   0.01  -0.00     0.01   0.00  -0.00
                     37                     38                     39
                        a                      a                      a 
 Frequencies --  3109.8307              3113.2127              3118.7941
 Red. masses --     1.8548                 1.9028                 1.8899
 Frc consts  --     0.0000                 0.0000                 0.0000
 IR Inten    --    83.8439               308.7853               123.7934
 Raman Activ --     0.0000                 0.0000                 0.0000
 Depolar     --     0.0000                 0.0000                 0.0000
 Atom AN      X      Y      Z        X      Y      Z        X      Y      Z
   1   6     0.15  -0.12   0.00     0.12  -0.10   0.00     0.05  -0.04   0.00
   2   6     0.02   0.01  -0.00     0.10   0.04   0.00     0.08   0.02   0.00
   3   6    -0.03  -0.17   0.00     0.02   0.10  -0.00     0.02   0.16  -0.00
   4   6     0.01  -0.01   0.00    -0.02   0.01  -0.00     0.01  -0.00   0.00
   5   6    -0.00   0.00  -0.00    -0.01  -0.00   0.00     0.01   0.00  -0.00
   6   6    -0.01  -0.05   0.00    -0.01  -0.04   0.00    -0.01  -0.02   0.00
   7   6    -0.01   0.00  -0.00     0.01  -0.01   0.00    -0.01   0.01  -0.00
   8   8     0.00  -0.00   0.00    -0.00   0.01  -0.00     0.00  -0.01   0.00
   9   8     0.06   0.03  -0.00    -0.14  -0.07   0.00     0.15   0.08  -0.00
  10   1    -0.50   0.43  -0.00    -0.39   0.34  -0.00    -0.17   0.15  -0.00
  11   1    -0.06  -0.02  -0.00    -0.32  -0.11  -0.00    -0.26  -0.09  -0.00
  12   1     0.11   0.61  -0.00    -0.06  -0.35   0.00    -0.10  -0.56   0.00
  13   1     0.03   0.17  -0.00     0.02   0.11  -0.00     0.01   0.07  -0.00
  14   1     0.00  -0.01   0.00    -0.00   0.02  -0.00     0.00  -0.01   0.00
  15   1    -0.24  -0.10   0.00     0.58   0.26  -0.00    -0.63  -0.28   0.00
