15
 energy: -26.161602665962 gnorm: 0.033534985741 xtb: 6.7.1 (edcfbbe)
C            2.07490373303174       -1.03434478776528        0.00035053088410
C            2.33133979363244        0.34307818150063        0.00012111864421
C            1.30090347014225        1.27178714326798       -0.00010221785143
C           -0.02197096942613        0.82994805590158       -0.00012868816888
C           -0.30069887897754       -0.55899665011364       -0.00003863199325
C            0.76616598941896       -1.47553309798358        0.00028310667777
C           -1.65833249324491       -1.04677601397333       -0.00042853889139
O           -2.65901850918557       -0.31284395672419       -0.00003984319190
O           -1.01805210925399        1.74660577277525       -0.00039721297422
H            2.89595555756616       -1.74199442143409        0.00055680642325
H            3.35748467800069        0.69680723821794        0.00017476792071
H            1.50396363468055        2.33730901366714       -0.00027733643940
H            0.53503082996545       -2.53707228309547        0.00043266264916
H           -1.78092237013642       -2.14417692918560        0.00065937478368
H           -1.86773082716881        1.23971731084802       -0.00039006016364
15
 energy: -26.162510503447 gnorm: 0.014545445651 xtb: 6.7.1 (edcfbbe)
C            2.07049613042621       -1.02967963370536        0.00036428362968
C            2.32881657836610        0.34088010422527        0.00007384937606
C            1.30053269370592        1.26164058022337       -0.00020646900653
C           -0.02439104983204        0.82680941763950       -0.00021190402098
C           -0.29973394697615       -0.56090007677361        0.00023251190553
C            0.76870191064457       -1.47241146165241        0.00041602457041
C           -1.65581699674268       -1.04257231799429        0.00072118795879
O           -2.65515551205559       -0.32293337598832       -0.00029288323142
O           -1.00950581215357        1.74263848886722       -0.00040677645279
H            2.88827839766615       -1.73315651019863        0.00056401402639
H            3.35057136774120        0.69209898369223        0.00002763269466
H            1.49875860865039        2.32223320698386       -0.00040084640769
H            0.54336507493718       -2.52960472096253        0.00063852421198
H           -1.77511631008165       -2.13629897192314       -0.00049301160066
H           -1.87077960525118        1.25477086347020       -0.00025029934465
15
 energy: -26.162724368735 gnorm: 0.004789075586 xtb: 6.7.1 (edcfbbe)
C            2.06935790115633       -1.02831650522521        0.00031092692581
C            2.32954905093515        0.34056808570378        0.00023469087303
C            1.30083433384252        1.25606688340635        0.00004328944523
C           -0.02715638868218        0.82503566158878       -0.00004461354286
C           -0.29931097283783       -0.56321071886911       -0.00040589142487
C            0.77045598481398       -1.47232597635725        0.00003316999957
C           -1.65590568283558       -1.04113818115853       -0.00175627736482
O           -2.65682251159852       -0.33135267080612        0.00043123245897
O           -1.00225566307498        1.74082525527552       -0.00041852611166
H            2.88560153851613       -1.73078795677378        0.00054740524793
H            3.34917235271965        0.69084038209238        0.00042680053681
H            1.49294606958113        2.31578804564778       -0.00010046374846
H            0.54803042926227       -2.52773659187405        0.00011068230631
H           -1.77030687707882       -2.13543283759431        0.00208581438944
H           -1.87516803567440        1.27469170084716       -0.00072240168166
15
 energy: -26.162762687443 gnorm: 0.003401781714 xtb: 6.7.1 (edcfbbe)
C            2.06952986417082       -1.02875727229416        0.00044284754662
C            2.33047393411086        0.34086824851685       -0.00010832581444
C            1.30112381361072        1.25496754142720       -0.00051738036521
C           -0.02841478541353        0.82460820990279       -0.00041931948049
C           -0.29938893443242       -0.56414415908634        0.00096951972282
C            0.77075472237627       -1.47297310321045        0.00086555684124
C           -1.65636346241920       -1.04214160293660        0.00364236199827
O           -2.65934368548269       -0.33583833359707       -0.00097650138882
O           -0.99908846245507        1.74122263403066       -0.00042212933659
H            2.88564189030457       -1.73182994556992        0.00060997484518
H            3.35007702295476        0.69095430716087       -0.00040388767750
H            1.48992366657631        2.31570613570525       -0.00078807574916
H            0.54864147191195       -2.52855340661693        0.00124974189217
H           -1.76731545443974       -2.13812905144377       -0.00364667094752
H           -1.87723007232874        1.28755437391499        0.00027812622223
15
 energy: -26.162779136742 gnorm: 0.003179230285 xtb: 6.7.1 (edcfbbe)
C            2.06982011161451       -1.02952017553430        0.00029682194119
C            2.33115249267610        0.34117273710514        0.00026011526909
C            1.30135806244300        1.25482399231832        0.00008348390899
C           -0.02919919799128        0.82440400897759       -0.00001427128518
C           -0.29969860620926       -0.56460702208466       -0.00050930099612
C            0.77062338385090       -1.47356358601384       -0.00001664178379
C           -1.65675880152762       -1.04407854210851       -0.00226475323393
O           -2.66183710669807       -0.34006991165774        0.00036857591974
O           -0.99680599959337        1.74242374030991       -0.00040154576541
H            2.88609893806854       -1.73340204521030        0.00051695433719
H            3.35123249060049        0.69112503700262        0.00048521013942
H            1.48765599470581        2.31683418794949       -0.00003587552391
H            0.54821781083303       -2.52970262346090        0.00000963371622
H           -1.76441554065895       -2.14174958991539        0.00271413406228
H           -1.87842250306898        1.29942436822595       -0.00071670239701
15
 energy: -26.162786317265 gnorm: 0.001370365155 xtb: 6.7.1 (edcfbbe)
C            2.06975882882374       -1.02957701320830        0.00033945336833
C            2.33077335833095        0.34104859395636        0.00012367007440
C            1.30126785025467        1.25533303341365       -0.00011263780545
C           -0.02875534961654        0.82447162496357       -0.00013431838890
C           -0.29991716749128       -0.56418093500575        0.00003236548979
C            0.77032228109349       -1.47331400713069        0.00029835104265
C           -1.65663922582367       -1.04477483513013       -0.00014070365642
O           -2.66154755509580       -0.34016430508703       -0.00010476394001
O           -0.99742352818069        1.74308392527229       -0.00039215413396
H            2.88617518760234       -1.73337524684939        0.00053737444480
H            3.35109019526056        0.69097277641581        0.00015323818410
H            1.48839313873955        2.31722282240383       -0.00029992630211
H            0.54757985071883       -2.52956400536045        0.00046836050458
H           -1.76448808472836       -2.14214839466741        0.00042691768052
H           -1.87756825084293        1.29848054191702       -0.00041938825353
15
 energy: -26.162788034168 gnorm: 0.000424408638 xtb: 6.7.1 (edcfbbe)
C            2.06961910487830       -1.02962026368620        0.00035777929116
C            2.33046314815135        0.34085188324193        0.00008664136739
C            1.30119086265559        1.25551553856293       -0.00017421765865
C           -0.02840701187734        0.82434643267775       -0.00018524687729
C           -0.30028200269402       -0.56377469437199        0.00017818225974
C            0.77000868480293       -1.47297087143776        0.00039141258306
C           -1.65665672724502       -1.04591566056199        0.00044774028235
O           -2.66189478078689       -0.34191302369298       -0.00026854671337
O           -0.99727495635000        1.74416174850953       -0.00038978568011
H            2.88606544715943       -1.73330895099477        0.00053741421428
H            3.35093823739287        0.69065911098411        0.00005816005671
H            1.48871544027763        2.31724700460693       -0.00035702777236
H            0.54698616553413       -2.52922785632674        0.00058769518085
H           -1.76355554485820       -2.14312726531818       -0.00017596826408
H           -1.87689453799590        1.30059144371079       -0.00031839396088
15
 energy: -26.162788291182 gnorm: 0.000102436456 xtb: 6.7.1 (edcfbbe)
C            2.06956096297351       -1.02958037367807        0.00033994663909
C            2.33054410194030        0.34081274033649        0.00011366544969
C            1.30119589816322        1.25536677272437       -0.00012816431517
C           -0.02842606085901        0.82428292965712       -0.00015086230016
C           -0.30033828960078       -0.56375448816156        0.00006855218541
C            0.76998241162683       -1.47291105244097        0.00031660482504
C           -1.65675765505241       -1.04598999811200        0.00003167037513
O           -2.66223225805822       -0.34260846935869       -0.00015209903929
O           -0.99699610453629        1.74434757672678       -0.00039627136014
H            2.88590960159587       -1.73328557916994        0.00053960299650
H            3.35093429828331        0.69061891478150        0.00013190203140
H            1.48866310574844        2.31703066565890       -0.00031078283114
H            0.54700573084473       -2.52908782925734        0.00049802921634
H           -1.76305745396675       -2.14323747552077        0.00026808083064
H           -1.87696676005791        1.30151024171755       -0.00039403639459
15
 energy: -26.162788302624 gnorm: 0.000028026533 xtb: 6.7.1 (edcfbbe)
C            2.06953571052657       -1.02956782317657        0.00034818919722
C            2.33058005168929        0.34080872075699        0.00011746930148
C            1.30119813922575        1.25537017614906       -0.00013479647145
C           -0.02841650081302        0.82430503921391       -0.00016483249270
C           -0.30034492303874       -0.56372449882233        0.00007080385881
C            0.76994464992223       -1.47289672779279        0.00032474205586
C           -1.65679031738714       -1.04596963405010        0.00005371969209
O           -2.66232637153974       -0.34271518002061       -0.00014402541701
O           -0.99699569548374        1.74440124089929       -0.00040400555890
H            2.88584473615112       -1.73332935413733        0.00053513541580
H            3.35094790710766        0.69064230859205        0.00013347564974
H            1.48873490127375        2.31702524496221       -0.00030829735033
H            0.54697539859060       -2.52907001131919        0.00049273502828
H           -1.76291177302850       -2.14325564166293        0.00024574802954
H           -1.87695438415123        1.30149071631170       -0.00039022262966
