      -----------------------------------------------------------      
     |                   =====================                   |     
     |                           x T B                           |     
     |                   =====================                   |     
     |                         S. Grimme                         |     
     |          Mulliken Center for Theoretical Chemistry        |     
     |                    University of Bonn                     |     
      -----------------------------------------------------------      

   * xtb version 6.7.1 (edcfbbe) compiled by 'albert@albert-system' on 2024-07-22

   xtb is free software: you can redistribute it and/or modify it under
   the terms of the GNU Lesser General Public License as published by
   the Free Software Foundation, either version 3 of the License, or
   (at your option) any later version.
   
   xtb is distributed in the hope that it will be useful,
   but WITHOUT ANY WARRANTY; without even the implied warranty of
   MERCHANTABILITY or FITNESS FOR A PARTICULAR PURPOSE.  See the
   GNU Lesser General Public License for more details.
   
   Cite this work as:
   * C. Bannwarth, E. Caldeweyher, S. Ehlert, A. Hansen, P. Pracht,
     J. Seibert, S. Spicher, S. Grimme, WIREs Comput. Mol. Sci., 2020, 11,
     e01493. DOI: 10.1002/wcms.1493
   
   for GFN2-xTB:
   * C. Bannwarth, S. Ehlert and S. Grimme., J. Chem. Theory Comput., 2019,
     15, 1652-1671. DOI: 10.1021/acs.jctc.8b01176
   for GFN1-xTB:
   * S. Grimme, C. Bannwarth, P. Shushkov, J. Chem. Theory Comput., 2017,
     13, 1989-2009. DOI: 10.1021/acs.jctc.7b00118
   for GFN0-xTB:
   * P. Pracht, E. Caldeweyher, S. Ehlert, S. Grimme, ChemRxiv, 2019, preprint.
     DOI: 10.26434/chemrxiv.8326202.v1
   for GFN-FF:
   * S. Spicher and S. Grimme, Angew. Chem. Int. Ed., 2020, 59, 15665-15673.
     DOI: 10.1002/anie.202004239
   
   for ALPB and GBSA implicit solvation:
   * S. Ehlert, M. Stahn, S. Spicher, S. Grimme, J. Chem. Theory Comput.,
     2021, 17, 4250-4261. DOI: 10.1021/acs.jctc.1c00471
   
   for ddCOSMO and CPCM-X implicit solvation:
   * M. Stahn, S. Ehlert, S. Grimme, J. Phys. Chem. A,
     2023, XX, XXXX-XXXX. DOI: 10.1021/acs.jpca.3c04382
   
   for DFT-D4:
   * E. Caldeweyher, C. Bannwarth and S. Grimme, J. Chem. Phys., 2017,
     147, 034112. DOI: 10.1063/1.4993215
   * E. Caldeweyher, S. Ehlert, A. Hansen, H. Neugebauer, S. Spicher,
     C. Bannwarth and S. Grimme, J. Chem. Phys., 2019, 150, 154122.
     DOI: 10.1063/1.5090222
   * E. Caldeweyher, J.-M. Mewes, S. Ehlert and S. Grimme, Phys. Chem. Chem. Phys.
     2020, 22, 8499-8512. DOI: 10.1039/D0CP00502A
   
   for sTDA-xTB:
   * S. Grimme and C. Bannwarth, J. Chem. Phys., 2016, 145, 054103.
     DOI: 10.1063/1.4959605
   
   in the mass-spec context:
   * V. Asgeirsson, C. Bauer and S. Grimme, Chem. Sci., 2017, 8, 4879.
     DOI: 10.1039/c7sc00601b
   * J. Koopman and S. Grimme, ACS Omega 2019, 4, 12, 15120-15133.
     DOI: 10.1021/acsomega.9b02011
   
   for metadynamics refer to:
   * S. Grimme, J. Chem. Theory Comput., 2019, 155, 2847-2862
     DOI: 10.1021/acs.jctc.9b00143
   
   for SPH calculations refer to:
   * S. Spicher and S. Grimme, J. Chem. Theory Comput., 2021, 17, 1701-1714
     DOI: 10.1021/acs.jctc.0c01306
   
   for ONIOM refer to:
   * C. Plett, A. Katbashev, S. Ehlert, S. Grimme, M. Bursch,
     Phys. Chem. Chem. Phys., 2023, 25, 17860-17868. DOI: 10.1039/D3CP02178E
   
   for DIPRO refer to:
   * J. Kohn, N. Gildemeister, S. Grimme, D. Fazzi, A. Hansen,
     J. Chem. Phys., 2023, just accepted.
   
   for PTB refer to:
   * S. Grimme, M. Mueller, A. Hansen, J. Chem. Phys., 2023, 158, 124111.
     DOI: 10.1063/5.0137838
   
   with help from (in alphabetical order)
   P. Atkinson, C. Bannwarth, F. Bohle, G. Brandenburg, E. Caldeweyher
   M. Checinski, S. Dohm, S. Ehlert, S. Ehrlich, I. Gerasimov, C. Hölzer
   A. Katbashev, J. Kohn, J. Koopman, C. Lavigne, S. Lehtola, F. März, M. Müller,
   F. Musil, H. Neugebauer, J. Pisarek, C. Plett, P. Pracht, F. Pultar,
   J. Seibert, P. Shushkov, S. Spicher, M. Stahn, M. Steiner, T. Strunk,
   J. Stückrath, T. Rose, and J. Unsleber
   
 * started run on 2025/04/06 at 18:00:42.039     
   ID    Z sym.   atoms
    1    6 C      1, 2, 4, 6, 8, 10
    2    1 H      3, 5, 7, 9, 11, 18-24
    3    8 O      12-17

           -------------------------------------------------
          |                Calculation Setup                |
           -------------------------------------------------

          program call               : /srv/scratch/z5358697/.xtb/bin/xtb gas.coord --gfn2 --sp --chrg 0 --norestart --parallel 1
          hostname                   : k155
          coordinate file            : gas.coord
          omp threads                :                     1


           -------------------------------------------------
          |                 G F N 2 - x T B                 |
           -------------------------------------------------

        Reference                      10.1021/acs.jctc.8b01176
      * Hamiltonian:
        H0-scaling (s, p, d)           1.850000    2.230000    2.230000
        zeta-weighting                 0.500000
      * Dispersion:
        s8                             2.700000
        a1                             0.520000
        a2                             5.000000
        s9                             5.000000
      * Repulsion:
        kExp                           1.500000    1.000000
        rExp                           1.000000
      * Coulomb:
        alpha                          2.000000
        third order                    shell-resolved
        anisotropic                    true
        a3                             3.000000
        a5                             4.000000
        cn-shift                       1.200000
        cn-exp                         4.000000
        max-rad                        5.000000


          ...................................................
          :                      SETUP                      :
          :.................................................:
          :  # basis functions                  60          :
          :  # atomic orbitals                  60          :
          :  # shells                           36          :
          :  # electrons                        72          :
          :  max. iterations                   250          :
          :  Hamiltonian                  GFN2-xTB          :
          :  restarted?                      false          :
          :  GBSA solvation                  false          :
          :  PC potential                    false          :
          :  electronic temp.          300.0000000     K    :
          :  accuracy                    1.0000000          :
          :  -> integral cutoff          0.2500000E+02      :
          :  -> integral neglect         0.1000000E-07      :
          :  -> SCF convergence          0.1000000E-05 Eh   :
          :  -> wf. convergence          0.1000000E-03 e    :
          :  Broyden damping             0.4000000          :
          :  net charge                          0          :
          :  unpaired electrons                  0          :
          ...................................................

 iter      E             dE          RMSdq      gap      omega  full diag
   1    -43.6195013 -0.436195E+02  0.474E+00    9.99       0.0  T
   2    -43.6586719 -0.391706E-01  0.260E+00    9.85       1.0  T
   3    -43.6598172 -0.114530E-02  0.738E-01    9.97       1.0  T
   4    -43.6608285 -0.101130E-02  0.149E-01    9.96       1.0  T
   5    -43.6608972 -0.686861E-04  0.677E-02    9.98       1.0  T
   6    -43.6609068 -0.963492E-05  0.190E-02    9.99       1.1  T
   7    -43.6609076 -0.815537E-06  0.638E-03    9.99       3.2  T
   8    -43.6609079 -0.264653E-06  0.195E-03    9.99      10.5  T
   9    -43.6609079 -0.497846E-08  0.714E-04    9.99      28.6  T
  10    -43.6609079 -0.318947E-08  0.212E-04    9.99      96.4  T

   *** convergence criteria satisfied after 10 iterations ***

         #    Occupation            Energy/Eh            Energy/eV
      -------------------------------------------------------------
         1        2.0000           -0.7383392             -20.0912
       ...           ...                  ...                  ...
        30        2.0000           -0.4740114             -12.8985
        31        2.0000           -0.4594526             -12.5023
        32        2.0000           -0.4560315             -12.4092
        33        2.0000           -0.4408616             -11.9965
        34        2.0000           -0.4287575             -11.6671
        35        2.0000           -0.4181080             -11.3773
        36        2.0000           -0.4112084             -11.1895 (HOMO)
        37                         -0.0442315              -1.2036 (LUMO)
        38                         -0.0146901              -0.3997
        39                          0.0006144               0.0167
        40                          0.0248350               0.6758
        41                          0.0446560               1.2152
       ...                                ...                  ...
        60                          0.2725035               7.4152
      -------------------------------------------------------------
                  HL-Gap            0.3669769 Eh            9.9859 eV
             Fermi-level           -0.2277199 Eh           -6.1966 eV

 SCC (total)                   0 d,  0 h,  0 min,  0.032 sec
 SCC setup                      ...        0 min,  0.000 sec (  0.586%)
 Dispersion                     ...        0 min,  0.000 sec (  0.449%)
 classical contributions        ...        0 min,  0.000 sec (  0.086%)
 integral evaluation            ...        0 min,  0.003 sec (  8.472%)
 iterations                     ...        0 min,  0.021 sec ( 67.173%)
 molecular gradient             ...        0 min,  0.007 sec ( 22.761%)
 printout                       ...        0 min,  0.000 sec (  0.428%)

         :::::::::::::::::::::::::::::::::::::::::::::::::::::
         ::                     SUMMARY                     ::
         :::::::::::::::::::::::::::::::::::::::::::::::::::::
         :: total energy             -43.358224453831 Eh    ::
         :: gradient norm              0.012840525586 Eh/a0 ::
         :: HOMO-LUMO gap              9.985948497581 eV    ::
         ::.................................................::
         :: SCC energy               -43.660769482969 Eh    ::
         :: -> isotropic ES            0.133212824447 Eh    ::
         :: -> anisotropic ES         -0.002266787511 Eh    ::
         :: -> anisotropic XC         -0.010222464684 Eh    ::
         :: -> dispersion             -0.018873253949 Eh    ::
         :: repulsion energy           0.302545029138 Eh    ::
         :: add. restraining           0.000000000000 Eh    ::
         :: total charge              -0.000000000000 e     ::
         :::::::::::::::::::::::::::::::::::::::::::::::::::::

           -------------------------------------------------
          |                Property Printout                |
           -------------------------------------------------

    * Orbital Energies and Occupations

         #    Occupation            Energy/Eh            Energy/eV
      -------------------------------------------------------------
         1        2.0000           -0.7383392             -20.0912
       ...           ...                  ...                  ...
        24        2.0000           -0.5200669             -14.1517
        25        2.0000           -0.5160505             -14.0424
        26        2.0000           -0.5111813             -13.9100
        27        2.0000           -0.5063191             -13.7776
        28        2.0000           -0.4973463             -13.5335
        29        2.0000           -0.4854866             -13.2108
        30        2.0000           -0.4740114             -12.8985
        31        2.0000           -0.4594526             -12.5023
        32        2.0000           -0.4560315             -12.4092
        33        2.0000           -0.4408616             -11.9965
        34        2.0000           -0.4287575             -11.6671
        35        2.0000           -0.4181080             -11.3773
        36        2.0000           -0.4112084             -11.1895 (HOMO)
        37                         -0.0442315              -1.2036 (LUMO)
        38                         -0.0146901              -0.3997
        39                          0.0006144               0.0167
        40                          0.0248350               0.6758
        41                          0.0446560               1.2152
        42                          0.0525704               1.4305
        43                          0.0579160               1.5760
        44                          0.0896293               2.4389
        45                          0.0906347               2.4663
        46                          0.1055912               2.8733
        47                          0.1069995               2.9116
       ...                                ...                  ...
        60                          0.2725035               7.4152
      -------------------------------------------------------------
                  HL-Gap            0.3669769 Eh            9.9859 eV
             Fermi-level           -0.2277199 Eh           -6.1966 eV

     #   Z          covCN         q      C6AA      α(0)
     1   6 C        3.675     0.074    19.556     6.336
     2   6 C        3.749     0.085    19.228     6.254
     3   1 H        0.923     0.030     2.593     2.518
     4   6 C        3.727     0.090    19.181     6.253
     5   1 H        0.924     0.065     2.144     2.290
     6   6 C        3.728     0.095    19.098     6.239
     7   1 H        0.922     0.006     2.962     2.691
     8   6 C        3.726     0.071    19.486     6.303
     9   1 H        0.924     0.060     2.196     2.318
    10   6 C        3.627     0.235    17.313     5.994
    11   1 H        0.922     0.025     2.652     2.547
    12   8 O        1.701    -0.344    19.785     6.005
    13   8 O        1.657    -0.412    21.091     6.200
    14   8 O        1.655    -0.432    21.479     6.256
    15   8 O        1.655    -0.435    21.549     6.266
    16   8 O        1.655    -0.428    21.392     6.244
    17   8 O        1.655    -0.437    21.589     6.272
    18   1 H        0.924     0.070     2.086     2.259
    19   1 H        0.924     0.037     2.496     2.471
    20   1 H        0.804     0.320     0.664     1.280
    21   1 H        0.805     0.298     0.727     1.339
    22   1 H        0.804     0.312     0.686     1.301
    23   1 H        0.805     0.303     0.713     1.326
    24   1 H        0.804     0.313     0.685     1.300

 Mol. C6AA /au·bohr⁶  :       4711.189792
 Mol. C8AA /au·bohr⁸  :     100022.831349
 Mol. α(0) /au        :         98.261616


Wiberg/Mayer (AO) data.
largest (>0.10) Wiberg bond orders for each atom

 ---------------------------------------------------------------------------
     #   Z sym  total        # sym  WBO       # sym  WBO       # sym  WBO
 ---------------------------------------------------------------------------
     1   6 C    3.961 --    17 O    1.020     2 C    0.973    18 H    0.968
                            19 H    0.967
     2   6 C    3.941 --     1 C    0.973    12 O    0.967     4 C    0.958
                             3 H    0.957
     3   1 H    0.999 --     2 C    0.957
     4   6 C    3.958 --    16 O    1.002     6 C    0.972     2 C    0.958
                             5 H    0.956
     5   1 H    0.996 --     4 C    0.956
     6   6 C    3.967 --    15 O    1.005     4 C    0.972     8 C    0.960
                             7 H    0.952
     7   1 H    1.000 --     6 C    0.952
     8   6 C    3.957 --    14 O    1.003     6 C    0.960     9 H    0.957
                            10 C    0.945
     9   1 H    0.996 --     8 C    0.957
    10   6 C    3.936 --    13 O    1.030    12 O    0.958    11 H    0.946
                             8 C    0.945
    11   1 H    0.999 --    10 C    0.946
    12   8 O    2.070 --     2 C    0.967    10 C    0.958
    13   8 O    2.003 --    10 C    1.030    20 H    0.878
    14   8 O    1.981 --     8 C    1.003    21 H    0.892
    15   8 O    1.962 --     6 C    1.005    22 H    0.881
    16   8 O    1.991 --     4 C    1.002    23 H    0.889
    17   8 O    1.961 --     1 C    1.020    24 H    0.873
    18   1 H    0.995 --     1 C    0.968
    19   1 H    0.999 --     1 C    0.967
    20   1 H    0.898 --    13 O    0.878
    21   1 H    0.911 --    14 O    0.892
    22   1 H    0.902 --    15 O    0.881
    23   1 H    0.908 --    16 O    0.889
    24   1 H    0.902 --    17 O    0.873
 ---------------------------------------------------------------------------

Topologies differ in total number of bonds
Writing topology from bond orders to xtbtopo.mol

molecular dipole:
                 x           y           z       tot (Debye)
 q only:        0.580       0.214       0.268
   full:        0.945       0.316       0.540       2.882
molecular quadrupole (traceless):
                xx          xy          yy          xz          yz          zz
 q only:       -4.686      -0.750      -2.843       1.329       6.512       7.529
  q+dip:      -11.364       0.676      -4.692       2.563       7.966      16.055
   full:       -9.895      -0.033      -4.377       2.433       8.504      14.272


           -------------------------------------------------
          | TOTAL ENERGY              -43.358224453831 Eh   |
          | GRADIENT NORM               0.012840525586 Eh/α |
          | HOMO-LUMO GAP               9.985948497581 eV   |
           -------------------------------------------------

------------------------------------------------------------------------
 * finished run on 2025/04/06 at 18:00:42.104     
------------------------------------------------------------------------
 total:
 * wall-time:     0 d,  0 h,  0 min,  0.064 sec
 *  cpu-time:     0 d,  0 h,  0 min,  0.027 sec
 * ratio c/w:     0.418 speedup
 SCF:
 * wall-time:     0 d,  0 h,  0 min,  0.032 sec
 *  cpu-time:     0 d,  0 h,  0 min,  0.019 sec
 * ratio c/w:     0.593 speedup

