      -----------------------------------------------------------      
     |                   =====================                   |     
     |                           x T B                           |     
     |                   =====================                   |     
     |                         S. Grimme                         |     
     |          Mulliken Center for Theoretical Chemistry        |     
     |                    University of Bonn                     |     
      -----------------------------------------------------------      

   * xtb version 6.7.1 (edcfbbe) compiled by 'albert@albert-system' on 2024-07-22

   xtb is free software: you can redistribute it and/or modify it under
   the terms of the GNU Lesser General Public License as published by
   the Free Software Foundation, either version 3 of the License, or
   (at your option) any later version.
   
   xtb is distributed in the hope that it will be useful,
   but WITHOUT ANY WARRANTY; without even the implied warranty of
   MERCHANTABILITY or FITNESS FOR A PARTICULAR PURPOSE.  See the
   GNU Lesser General Public License for more details.
   
   Cite this work as:
   * C. Bannwarth, E. Caldeweyher, S. Ehlert, A. Hansen, P. Pracht,
     J. Seibert, S. Spicher, S. Grimme, WIREs Comput. Mol. Sci., 2020, 11,
     e01493. DOI: 10.1002/wcms.1493
   
   for GFN2-xTB:
   * C. Bannwarth, S. Ehlert and S. Grimme., J. Chem. Theory Comput., 2019,
     15, 1652-1671. DOI: 10.1021/acs.jctc.8b01176
   for GFN1-xTB:
   * S. Grimme, C. Bannwarth, P. Shushkov, J. Chem. Theory Comput., 2017,
     13, 1989-2009. DOI: 10.1021/acs.jctc.7b00118
   for GFN0-xTB:
   * P. Pracht, E. Caldeweyher, S. Ehlert, S. Grimme, ChemRxiv, 2019, preprint.
     DOI: 10.26434/chemrxiv.8326202.v1
   for GFN-FF:
   * S. Spicher and S. Grimme, Angew. Chem. Int. Ed., 2020, 59, 15665-15673.
     DOI: 10.1002/anie.202004239
   
   for ALPB and GBSA implicit solvation:
   * S. Ehlert, M. Stahn, S. Spicher, S. Grimme, J. Chem. Theory Comput.,
     2021, 17, 4250-4261. DOI: 10.1021/acs.jctc.1c00471
   
   for ddCOSMO and CPCM-X implicit solvation:
   * M. Stahn, S. Ehlert, S. Grimme, J. Phys. Chem. A,
     2023, XX, XXXX-XXXX. DOI: 10.1021/acs.jpca.3c04382
   
   for DFT-D4:
   * E. Caldeweyher, C. Bannwarth and S. Grimme, J. Chem. Phys., 2017,
     147, 034112. DOI: 10.1063/1.4993215
   * E. Caldeweyher, S. Ehlert, A. Hansen, H. Neugebauer, S. Spicher,
     C. Bannwarth and S. Grimme, J. Chem. Phys., 2019, 150, 154122.
     DOI: 10.1063/1.5090222
   * E. Caldeweyher, J.-M. Mewes, S. Ehlert and S. Grimme, Phys. Chem. Chem. Phys.
     2020, 22, 8499-8512. DOI: 10.1039/D0CP00502A
   
   for sTDA-xTB:
   * S. Grimme and C. Bannwarth, J. Chem. Phys., 2016, 145, 054103.
     DOI: 10.1063/1.4959605
   
   in the mass-spec context:
   * V. Asgeirsson, C. Bauer and S. Grimme, Chem. Sci., 2017, 8, 4879.
     DOI: 10.1039/c7sc00601b
   * J. Koopman and S. Grimme, ACS Omega 2019, 4, 12, 15120-15133.
     DOI: 10.1021/acsomega.9b02011
   
   for metadynamics refer to:
   * S. Grimme, J. Chem. Theory Comput., 2019, 155, 2847-2862
     DOI: 10.1021/acs.jctc.9b00143
   
   for SPH calculations refer to:
   * S. Spicher and S. Grimme, J. Chem. Theory Comput., 2021, 17, 1701-1714
     DOI: 10.1021/acs.jctc.0c01306
   
   for ONIOM refer to:
   * C. Plett, A. Katbashev, S. Ehlert, S. Grimme, M. Bursch,
     Phys. Chem. Chem. Phys., 2023, 25, 17860-17868. DOI: 10.1039/D3CP02178E
   
   for DIPRO refer to:
   * J. Kohn, N. Gildemeister, S. Grimme, D. Fazzi, A. Hansen,
     J. Chem. Phys., 2023, just accepted.
   
   for PTB refer to:
   * S. Grimme, M. Mueller, A. Hansen, J. Chem. Phys., 2023, 158, 124111.
     DOI: 10.1063/5.0137838
   
   with help from (in alphabetical order)
   P. Atkinson, C. Bannwarth, F. Bohle, G. Brandenburg, E. Caldeweyher
   M. Checinski, S. Dohm, S. Ehlert, S. Ehrlich, I. Gerasimov, C. Hölzer
   A. Katbashev, J. Kohn, J. Koopman, C. Lavigne, S. Lehtola, F. März, M. Müller,
   F. Musil, H. Neugebauer, J. Pisarek, C. Plett, P. Pracht, F. Pultar,
   J. Seibert, P. Shushkov, S. Spicher, M. Stahn, M. Steiner, T. Strunk,
   J. Stückrath, T. Rose, and J. Unsleber
   
 * started run on 2025/04/06 at 19:15:06.468     
   ID    Z sym.   atoms
    1    6 C      1, 2, 4, 6, 8, 10
    2    1 H      3, 5, 7, 9, 11, 18-24
    3    8 O      12-17

           -------------------------------------------------
          |                Calculation Setup                |
           -------------------------------------------------

          program call               : /srv/scratch/z5358697/.xtb/bin/xtb xtb_rrho.coord --gfn2 --ohess vtight --chrg 0 --enso --norestart -I rrho-xcontrol-inp --parallel 1 --alpb water
          hostname                   : k155
          coordinate file            : xtb_rrho.coord
          omp threads                :                     1


           -------------------------------------------------
          |                 G F N 2 - x T B                 |
           -------------------------------------------------

        Reference                      10.1021/acs.jctc.8b01176
      * Hamiltonian:
        H0-scaling (s, p, d)           1.850000    2.230000    2.230000
        zeta-weighting                 0.500000
      * Dispersion:
        s8                             2.700000
        a1                             0.520000
        a2                             5.000000
        s9                             5.000000
      * Repulsion:
        kExp                           1.500000    1.000000
        rExp                           1.000000
      * Coulomb:
        alpha                          2.000000
        third order                    shell-resolved
        anisotropic                    true
        a3                             3.000000
        a5                             4.000000
        cn-shift                       1.200000
        cn-exp                         4.000000
        max-rad                        5.000000

      * Solvation model:               ALPB
        Solvent                        water
        Parameter file                 internal GFN2-xTB/ALPB
        Dielectric constant                8.0200E+01
        Reference state                gsolv [1 M gas/solution]
        Free energy shift                  1.0808E-03 Eh       6.7819E-01 kcal/mol
        Temperature                        2.9815E+02 K
        Density                            1.0000E+00 kg/L
        Solvent mass                       1.8000E+01 g/mol
        Interaction kernel             P16
        Born radius scaling (c1)           1.4744E+00
        Born radii integrator          GBOBC
        Born offset                        0.0000E+00 a0       0.0000E+00 AA
        H-bond correction              true
        Ion screening                  false
        Surface tension                    1.0000E-05 Eh       1.5569E+01 dyn/cm
        Grid points                               974 per atom

          ...................................................
          :                      SETUP                      :
          :.................................................:
          :  # basis functions                  60          :
          :  # atomic orbitals                  60          :
          :  # shells                           36          :
          :  # electrons                        72          :
          :  max. iterations                   250          :
          :  Hamiltonian                  GFN2-xTB          :
          :  restarted?                      false          :
          :  GBSA solvation                   true          :
          :  PC potential                    false          :
          :  electronic temp.          300.0000000     K    :
          :  accuracy                    1.0000000          :
          :  -> integral cutoff          0.2500000E+02      :
          :  -> integral neglect         0.1000000E-07      :
          :  -> SCF convergence          0.1000000E-05 Eh   :
          :  -> wf. convergence          0.1000000E-03 e    :
          :  Broyden damping             0.4000000          :
          :  net charge                          0          :
          :  unpaired electrons                  0          :
          ...................................................

 iter      E             dE          RMSdq      gap      omega  full diag
   1    -43.6332091 -0.436332E+02  0.495E+00    9.89       0.0  T
   2    -43.6813794 -0.481703E-01  0.260E+00    9.70       1.0  T
   3    -43.6837327 -0.235332E-02  0.718E-01    9.76       1.0  T
   4    -43.6843585 -0.625787E-03  0.200E-01    9.76       1.0  T
   5    -43.6844355 -0.769766E-04  0.895E-02    9.78       1.0  T
   6    -43.6844562 -0.207300E-04  0.243E-02    9.78       1.0  T
   7    -43.6844572 -0.992843E-06  0.716E-03    9.78       2.8  T
   8    -43.6844576 -0.358273E-06  0.226E-03    9.78       9.0  T
   9    -43.6844576 -0.905191E-08  0.967E-04    9.78      21.1  T
  10    -43.6844576 -0.556975E-08  0.318E-04    9.78      64.3  T

   *** convergence criteria satisfied after 10 iterations ***

         #    Occupation            Energy/Eh            Energy/eV
      -------------------------------------------------------------
         1        2.0000           -0.7276285             -19.7998
       ...           ...                  ...                  ...
        30        2.0000           -0.4650807             -12.6555
        31        2.0000           -0.4488153             -12.2129
        32        2.0000           -0.4443945             -12.0926
        33        2.0000           -0.4330395             -11.7836
        34        2.0000           -0.4272951             -11.6273
        35        2.0000           -0.4249779             -11.5642
        36        2.0000           -0.4135616             -11.2536 (HOMO)
        37                         -0.0541833              -1.4744 (LUMO)
        38                         -0.0158502              -0.4313
        39                         -0.0053135              -0.1446
        40                          0.0115088               0.3132
        41                          0.0378365               1.0296
       ...                                ...                  ...
        60                          0.2839515               7.7267
      -------------------------------------------------------------
                  HL-Gap            0.3593783 Eh            9.7792 eV
             Fermi-level           -0.2338725 Eh           -6.3640 eV

 SCC (total)                   0 d,  0 h,  0 min,  0.053 sec
 SCC setup                      ...        0 min,  0.001 sec (  2.382%)
 Dispersion                     ...        0 min,  0.000 sec (  0.230%)
 classical contributions        ...        0 min,  0.000 sec (  0.042%)
 integral evaluation            ...        0 min,  0.002 sec (  4.215%)
 iterations                     ...        0 min,  0.043 sec ( 81.412%)
 molecular gradient             ...        0 min,  0.006 sec ( 11.483%)
 printout                       ...        0 min,  0.000 sec (  0.215%)

         :::::::::::::::::::::::::::::::::::::::::::::::::::::
         ::                     SUMMARY                     ::
         :::::::::::::::::::::::::::::::::::::::::::::::::::::
         :: total energy             -43.383197099166 Eh    ::
         :: total w/o Gsasa/hb       -43.361900767553 Eh    ::
         :: gradient norm              0.057825282031 Eh/a0 ::
         :: HOMO-LUMO gap              9.779181634974 eV    ::
         ::.................................................::
         :: SCC energy               -43.684323488135 Eh    ::
         :: -> isotropic ES            0.176106612402 Eh    ::
         :: -> anisotropic ES         -0.005774686181 Eh    ::
         :: -> anisotropic XC         -0.008222483964 Eh    ::
         :: -> dispersion             -0.018664501055 Eh    ::
         :: -> Gsolv                  -0.041592026038 Eh    ::
         ::    -> Gelec               -0.020295694425 Eh    ::
         ::    -> Gsasa                0.005403248536 Eh    ::
         ::    -> Ghb                 -0.027780339846 Eh    ::
         ::    -> Gshift               0.001080759698 Eh    ::
         :: repulsion energy           0.301126388970 Eh    ::
         :: add. restraining           0.000000000000 Eh    ::
         :: total charge               0.000000000000 e     ::
         :::::::::::::::::::::::::::::::::::::::::::::::::::::

      ----------------------------------------------------------- 
     |                   =====================                   |
     |                        A N C O P T                        |
     |                   =====================                   |
     |               Approximate Normal Coordinate               |
     |                Rational Function Optimizer                |
      ----------------------------------------------------------- 
      ----------------------------------------------------------- 
     |                   =====================                   |
     |                        A N C O P T                        |
     |                   =====================                   |
     |               Approximate Normal Coordinate               |
     |                Rational Function Optimizer                |
      ----------------------------------------------------------- 

          ...................................................
          :                      SETUP                      :
          :.................................................:
          :   optimization level         verytight          :
          :   max. optcycles                   480          :
          :   ANC micro-cycles                  20          :
          :   degrees of freedom                66          :
          :.................................................:
          :   RF solver                   davidson          :
          :   write xtbopt.log                true          :
          :   linear?                        false          :
          :   energy convergence         0.1000000E-06 Eh   :
          :   grad. convergence          0.2000000E-03 Eh/α :
          :   maxmium RF displ.          1.0000000          :
          :   Hlow (freq-cutoff)         0.1000000E-01      :
          :   Hmax (freq-cutoff)         5.0000000          :
          :   S6 in model hess.         20.0000000          :
          ...................................................

generating ANC from exact Hessian ...
Using Lindh-Hessian (1995)
 Shifting diagonal of input Hessian by   7.426231497751396E-003
 Lowest  eigenvalues of input Hessian
    0.000000    0.000000    0.000000    0.000000    0.000000    0.000000
    0.010000    0.011701    0.013100    0.013388    0.016737    0.020939
    0.022228    0.023697    0.024896    0.029362    0.032128    0.035110
 Highest eigenvalues
    1.409103    1.436040    1.452125    1.463888    1.485889    1.572197
 

........................................................................
.............................. CYCLE    1 ..............................
........................................................................

 iter      E             dE          RMSdq      gap      omega  full diag
   1    -43.6844576 -0.436845E+02  0.117E-04    9.78       0.0  T
   2    -43.6844576 -0.623075E-10  0.738E-05    9.78     276.5  T
   3    -43.6844576 -0.118163E-10  0.370E-05    9.78     552.0  T
     SCC iter.                  ...        0 min,  0.002 sec
     gradient                   ...        0 min,  0.006 sec
 * total energy  :   -43.3831971 Eh     change       -0.5140421E-09 Eh
   gradient norm :     0.0578262 Eh/α   predicted     0.0000000E+00 (-100.00%)
   displ. norm   :     0.1331768 α      lambda       -0.3752844E-02
   maximum displ.:     0.0495958 α      in ANC's #5, #9, #20, ...

........................................................................
.............................. CYCLE    2 ..............................
........................................................................

 iter      E             dE          RMSdq      gap      omega  full diag
   1    -43.6900108 -0.436900E+02  0.116E-01   10.03       0.0  T
   2    -43.6900260 -0.151587E-04  0.700E-02   10.03       1.0  T
   3    -43.6900268 -0.842329E-06  0.156E-02   10.04       1.3  T
   4    -43.6900286 -0.179737E-05  0.450E-03   10.04       4.5  T
   5    -43.6900287 -0.493455E-07  0.202E-03   10.04      10.1  T
   6    -43.6900287 -0.127112E-07  0.979E-04   10.04      20.8  T
   7    -43.6900287 -0.249198E-08  0.158E-04   10.04     129.0  T
     SCC iter.                  ...        0 min,  0.004 sec
     gradient                   ...        0 min,  0.006 sec
 * total energy  :   -43.3859105 Eh     change       -0.2713367E-02 Eh
   gradient norm :     0.0296546 Eh/α   predicted    -0.1909740E-02 ( -29.62%)
   displ. norm   :     0.1694240 α      lambda       -0.1924357E-02
   maximum displ.:     0.0964188 α      in ANC's #5, #9, #12, ...

........................................................................
.............................. CYCLE    3 ..............................
........................................................................

 iter      E             dE          RMSdq      gap      omega  full diag
   1    -43.6923218 -0.436923E+02  0.934E-02   10.32       0.0  T
   2    -43.6923365 -0.147173E-04  0.568E-02   10.32       1.0  T
   3    -43.6923374 -0.953550E-06  0.167E-02   10.32       1.2  T
   4    -43.6923389 -0.142953E-05  0.422E-03   10.32       4.8  T
   5    -43.6923389 -0.477796E-07  0.193E-03   10.32      10.6  T
   6    -43.6923389 -0.110589E-07  0.946E-04   10.32      21.6  T
   7    -43.6923389 -0.202361E-08  0.141E-04   10.32     145.3  T
     SCC iter.                  ...        0 min,  0.004 sec
     gradient                   ...        0 min,  0.006 sec
 * total energy  :   -43.3869923 Eh     change       -0.1081861E-02 Eh
   gradient norm :     0.0058973 Eh/α   predicted    -0.9898907E-03 (  -8.50%)
   displ. norm   :     0.0979730 α      lambda       -0.2198294E-03
   maximum displ.:     0.0649084 α      in ANC's #5, #1, #10, ...

........................................................................
.............................. CYCLE    4 ..............................
........................................................................

 iter      E             dE          RMSdq      gap      omega  full diag
   1    -43.6917119 -0.436917E+02  0.378E-02   10.36       0.0  T
   2    -43.6917123 -0.357524E-06  0.227E-02   10.36       1.0  T
   3    -43.6917123 -0.206897E-07  0.238E-03   10.36       8.6  T
   4    -43.6917123 -0.645479E-07  0.805E-04   10.36      25.4  T
   5    -43.6917124 -0.766875E-09  0.292E-04   10.36      69.9  T
     SCC iter.                  ...        0 min,  0.003 sec
     gradient                   ...        0 min,  0.006 sec
 * total energy  :   -43.3871637 Eh     change       -0.1713591E-03 Eh
   gradient norm :     0.0059901 Eh/α   predicted    -0.1109764E-03 ( -35.24%)
   displ. norm   :     0.1831842 α      lambda       -0.2769616E-03
   maximum displ.:     0.1205274 α      in ANC's #5, #1, #2, ...

........................................................................
.............................. CYCLE    5 ..............................
........................................................................

 iter      E             dE          RMSdq      gap      omega  full diag
   1    -43.6904540 -0.436905E+02  0.629E-02   10.38       0.0  T
   2    -43.6904545 -0.496778E-06  0.381E-02   10.38       1.0  T
   3    -43.6904547 -0.213816E-06  0.226E-03   10.38       9.0  T
   4    -43.6904547 -0.166240E-07  0.131E-03   10.38      15.6  T
   5    -43.6904547 -0.216460E-08  0.364E-04   10.38      56.1  T
   6    -43.6904547 -0.501608E-09  0.138E-04   10.38     147.6  T
     SCC iter.                  ...        0 min,  0.003 sec
     gradient                   ...        0 min,  0.006 sec
 * total energy  :   -43.3873467 Eh     change       -0.1830058E-03 Eh
   gradient norm :     0.0071883 Eh/α   predicted    -0.1431350E-03 ( -21.79%)
   displ. norm   :     0.1295314 α      lambda       -0.1302055E-03
   maximum displ.:     0.0782246 α      in ANC's #5, #1, #2, ...

........................................................................
.............................. CYCLE    6 ..............................
........................................................................

 iter      E             dE          RMSdq      gap      omega  full diag
   1    -43.6904110 -0.436904E+02  0.419E-02   10.37       0.0  T
   2    -43.6904113 -0.278642E-06  0.256E-02   10.37       1.0  T
   3    -43.6904114 -0.106046E-06  0.177E-03   10.37      11.6  T
   4    -43.6904114 -0.156060E-07  0.987E-04   10.37      20.7  T
   5    -43.6904115 -0.121559E-08  0.284E-04   10.37      71.8  T
     SCC iter.                  ...        0 min,  0.003 sec
     gradient                   ...        0 min,  0.006 sec
 * total energy  :   -43.3874463 Eh     change       -0.9965278E-04 Eh
   gradient norm :     0.0060286 Eh/α   predicted    -0.6626021E-04 ( -33.51%)
   displ. norm   :     0.1554976 α      lambda       -0.1450975E-03
   maximum displ.:     0.0815698 α      in ANC's #1, #5, #2, ...

........................................................................
.............................. CYCLE    7 ..............................
........................................................................

 iter      E             dE          RMSdq      gap      omega  full diag
   1    -43.6912983 -0.436913E+02  0.507E-02   10.35       0.0  T
   2    -43.6912987 -0.411560E-06  0.309E-02   10.35       1.0  T
   3    -43.6912988 -0.138369E-06  0.226E-03   10.35       9.0  T
   4    -43.6912989 -0.323451E-07  0.122E-03   10.35      16.7  T
   5    -43.6912989 -0.170819E-08  0.331E-04   10.35      61.7  T
   6    -43.6912989 -0.364885E-09  0.134E-04   10.35     152.6  T
     SCC iter.                  ...        0 min,  0.003 sec
     gradient                   ...        0 min,  0.006 sec
 * total energy  :   -43.3875436 Eh     change       -0.9724312E-04 Eh
   gradient norm :     0.0031798 Eh/α   predicted    -0.7433427E-04 ( -23.56%)
   displ. norm   :     0.0913625 α      lambda       -0.5000467E-04
   maximum displ.:     0.0603262 α      in ANC's #1, #2, #5, ...

........................................................................
.............................. CYCLE    8 ..............................
........................................................................

 iter      E             dE          RMSdq      gap      omega  full diag
   1    -43.6921637 -0.436922E+02  0.287E-02   10.34       0.0  T
   2    -43.6921638 -0.838958E-07  0.174E-02   10.34       1.2  T
   3    -43.6921639 -0.369808E-07  0.101E-03   10.34      20.2  T
   4    -43.6921639 -0.322814E-08  0.583E-04   10.34      35.0  T
   5    -43.6921639 -0.374946E-09  0.134E-04   10.34     151.9  T
     SCC iter.                  ...        0 min,  0.003 sec
     gradient                   ...        0 min,  0.006 sec
 * total energy  :   -43.3875777 Eh     change       -0.3411108E-04 Eh
   gradient norm :     0.0018379 Eh/α   predicted    -0.2522449E-04 ( -26.05%)
   displ. norm   :     0.0966978 α      lambda       -0.2147956E-04
   maximum displ.:     0.0742470 α      in ANC's #1, #2, #9, ...

........................................................................
.............................. CYCLE    9 ..............................
........................................................................

 iter      E             dE          RMSdq      gap      omega  full diag
   1    -43.6928296 -0.436928E+02  0.281E-02   10.35       0.0  T
   2    -43.6928297 -0.110614E-06  0.170E-02   10.35       1.2  T
   3    -43.6928297 -0.314680E-07  0.111E-03   10.35      18.4  T
   4    -43.6928297 -0.802981E-08  0.584E-04   10.35      34.9  T
   5    -43.6928297 -0.640043E-09  0.234E-04   10.35      87.1  T
     SCC iter.                  ...        0 min,  0.003 sec
     gradient                   ...        0 min,  0.006 sec
 * total energy  :   -43.3875979 Eh     change       -0.2019401E-04 Eh
   gradient norm :     0.0015965 Eh/α   predicted    -0.1078565E-04 ( -46.59%)
   displ. norm   :     0.0623456 α      lambda       -0.1181493E-04
   maximum displ.:     0.0494291 α      in ANC's #1, #2, #4, ...

........................................................................
.............................. CYCLE   10 ..............................
........................................................................

 iter      E             dE          RMSdq      gap      omega  full diag
   1    -43.6925503 -0.436926E+02  0.184E-02   10.36       0.0  T
   2    -43.6925504 -0.527987E-07  0.112E-02   10.36       1.8  T
   3    -43.6925504 -0.149768E-07  0.773E-04   10.36      26.4  T
   4    -43.6925504 -0.397878E-08  0.390E-04   10.36      52.4  T
     SCC iter.                  ...        0 min,  0.002 sec
     gradient                   ...        0 min,  0.006 sec
 * total energy  :   -43.3876122 Eh     change       -0.1429864E-04 Eh
   gradient norm :     0.0012725 Eh/α   predicted    -0.5918261E-05 ( -58.61%)
   displ. norm   :     0.0900738 α      lambda       -0.1654151E-04
   maximum displ.:     0.0645364 α      in ANC's #1, #5, #2, ...

........................................................................
.............................. CYCLE   11 ..............................
........................................................................

 iter      E             dE          RMSdq      gap      omega  full diag
   1    -43.6927381 -0.436927E+02  0.304E-02   10.36       0.0  T
   2    -43.6927382 -0.141713E-06  0.185E-02   10.36       1.1  T
   3    -43.6927383 -0.732873E-07  0.139E-03   10.36      14.6  T
   4    -43.6927383 -0.614498E-08  0.778E-04   10.36      26.2  T
   5    -43.6927383 -0.153348E-08  0.262E-04   10.36      78.0  T
     SCC iter.                  ...        0 min,  0.003 sec
     gradient                   ...        0 min,  0.006 sec
 * total energy  :   -43.3876197 Eh     change       -0.7538367E-05 Eh
   gradient norm :     0.0031099 Eh/α   predicted    -0.8304470E-05 (  10.16%)
   displ. norm   :     0.0455956 α      lambda       -0.1469405E-04
   maximum displ.:     0.0343352 α      in ANC's #1, #2, #3, ...

........................................................................
.............................. CYCLE   12 ..............................
........................................................................

 iter      E             dE          RMSdq      gap      omega  full diag
   1    -43.6921415 -0.436921E+02  0.138E-02   10.37       0.0  T
   2    -43.6921415 -0.246207E-07  0.833E-03   10.37       2.5  T
   3    -43.6921415 -0.107634E-07  0.522E-04   10.37      39.1  T
   4    -43.6921415 -0.767365E-09  0.308E-04   10.37      66.3  T
     SCC iter.                  ...        0 min,  0.002 sec
     gradient                   ...        0 min,  0.006 sec
 * total energy  :   -43.3876276 Eh     change       -0.7825124E-05 Eh
   gradient norm :     0.0008974 Eh/α   predicted    -0.7363166E-05 (  -5.90%)
   displ. norm   :     0.0143605 α      lambda       -0.2004790E-05
   maximum displ.:     0.0081827 α      in ANC's #1, #5, #10, ...

........................................................................
.............................. CYCLE   13 ..............................
........................................................................

 iter      E             dE          RMSdq      gap      omega  full diag
   1    -43.6922211 -0.436922E+02  0.500E-03   10.36       0.0  T
   2    -43.6922211 -0.913777E-08  0.304E-03   10.36       6.7  T
   3    -43.6922211 -0.211624E-08  0.348E-04   10.36      58.6  T
   4    -43.6922211 -0.892094E-09  0.164E-04   10.36     124.6  T
     SCC iter.                  ...        0 min,  0.002 sec
     gradient                   ...        0 min,  0.006 sec
 * total energy  :   -43.3876298 Eh     change       -0.2224635E-05 Eh
   gradient norm :     0.0004632 Eh/α   predicted    -0.1009985E-05 ( -54.60%)
   displ. norm   :     0.0301956 α      lambda       -0.3105991E-05
   maximum displ.:     0.0203688 α      in ANC's #1, #5, #2, ...

........................................................................
.............................. CYCLE   14 ..............................
........................................................................

 iter      E             dE          RMSdq      gap      omega  full diag
   1    -43.6925100 -0.436925E+02  0.101E-02   10.36       0.0  T
   2    -43.6925100 -0.240350E-07  0.612E-03   10.36       3.3  T
   3    -43.6925100 -0.491516E-08  0.496E-04   10.36      41.2  T
   4    -43.6925100 -0.157486E-08  0.240E-04   10.36      85.0  T
     SCC iter.                  ...        0 min,  0.002 sec
     gradient                   ...        0 min,  0.006 sec
 * total energy  :   -43.3876324 Eh     change       -0.2608989E-05 Eh
   gradient norm :     0.0008585 Eh/α   predicted    -0.1558245E-05 ( -40.27%)
   displ. norm   :     0.0286904 α      lambda       -0.2072778E-05
   maximum displ.:     0.0244965 α      in ANC's #1, #6, #2, ...

........................................................................
.............................. CYCLE   15 ..............................
........................................................................

 iter      E             dE          RMSdq      gap      omega  full diag
   1    -43.6924795 -0.436925E+02  0.950E-03   10.36       0.0  T
   2    -43.6924795 -0.159628E-07  0.576E-03   10.36       3.5  T
   3    -43.6924795 -0.711987E-08  0.458E-04   10.36      44.6  T
   4    -43.6924795 -0.862542E-09  0.272E-04   10.36      74.9  T
     SCC iter.                  ...        0 min,  0.002 sec
     gradient                   ...        0 min,  0.006 sec
 * total energy  :   -43.3876345 Eh     change       -0.2154703E-05 Eh
   gradient norm :     0.0005791 Eh/α   predicted    -0.1039834E-05 ( -51.74%)
   displ. norm   :     0.0309341 α      lambda       -0.1637869E-05
   maximum displ.:     0.0272711 α      in ANC's #1, #6, #13, ...

........................................................................
.............................. CYCLE   16 ..............................
........................................................................

 iter      E             dE          RMSdq      gap      omega  full diag
   1    -43.6923443 -0.436923E+02  0.101E-02   10.36       0.0  T
   2    -43.6923443 -0.131290E-07  0.615E-03   10.36       3.3  T
   3    -43.6923444 -0.558031E-08  0.448E-04   10.36      45.6  T
   4    -43.6923444 -0.112998E-08  0.261E-04   10.36      78.2  T
     SCC iter.                  ...        0 min,  0.002 sec
     gradient                   ...        0 min,  0.006 sec
 * total energy  :   -43.3876364 Eh     change       -0.1826338E-05 Eh
   gradient norm :     0.0003689 Eh/α   predicted    -0.8201670E-06 ( -55.09%)
   displ. norm   :     0.0205049 α      lambda       -0.7520931E-06
   maximum displ.:     0.0178616 α      in ANC's #1, #2, #13, ...

........................................................................
.............................. CYCLE   17 ..............................
........................................................................

 iter      E             dE          RMSdq      gap      omega  full diag
   1    -43.6923376 -0.436923E+02  0.650E-03   10.36       0.0  T
   2    -43.6923377 -0.712583E-08  0.394E-03   10.36       5.2  T
   3    -43.6923377 -0.216106E-08  0.344E-04   10.36      59.3  T
   4    -43.6923377 -0.944041E-09  0.181E-04   10.36     112.6  T
     SCC iter.                  ...        0 min,  0.002 sec
     gradient                   ...        0 min,  0.006 sec
 * total energy  :   -43.3876371 Eh     change       -0.7682772E-06 Eh
   gradient norm :     0.0001366 Eh/α   predicted    -0.3772818E-06 ( -50.89%)
   displ. norm   :     0.0107824 α      lambda       -0.2093621E-06
   maximum displ.:     0.0094102 α      in ANC's #1, #2, #5, ...

........................................................................
.............................. CYCLE   18 ..............................
........................................................................

 iter      E             dE          RMSdq      gap      omega  full diag
   1    -43.6923302 -0.436923E+02  0.300E-03   10.36       0.0  T
   2    -43.6923302 -0.968505E-09  0.182E-03   10.36      11.2  T
   3    -43.6923302 -0.424961E-09  0.127E-04   10.36     160.7  T
   4    -43.6923302 -0.103043E-09  0.749E-05   10.36     272.5  T
     SCC iter.                  ...        0 min,  0.002 sec
     gradient                   ...        0 min,  0.006 sec
 * total energy  :   -43.3876374 Eh     change       -0.2382732E-06 Eh
   gradient norm :     0.0001022 Eh/α   predicted    -0.1069942E-06 ( -55.10%)
   displ. norm   :     0.0107824 α      lambda        0.0000000E+00
   maximum displ.:     0.0094102 α      in ANC's #1, #2, #5, ...

........................................................................
.............................. CYCLE   19 ..............................
........................................................................

 iter      E             dE          RMSdq      gap      omega  full diag
   1    -43.6923209 -0.436923E+02  0.301E-03   10.36       0.0  T
   2    -43.6923210 -0.906944E-09  0.182E-03   10.36      11.2  T
   3    -43.6923210 -0.402132E-09  0.120E-04   10.36     169.6  T
   4    -43.6923210 -0.836948E-10  0.714E-05   10.36     285.9  T
     SCC iter.                  ...        0 min,  0.002 sec
     gradient                   ...        0 min,  0.006 sec
 * total energy  :   -43.3876374 Eh     change       -0.6476543E-07 Eh
   gradient norm :     0.0001826 Eh/α   predicted    -0.2973847E-08 ( -95.41%)
   displ. norm   :     0.0045756 α      lambda        0.2838134E-07
   maximum displ.:     0.0041251 α      in ANC's #1, #2, #4, ...

   *** GEOMETRY OPTIMIZATION CONVERGED AFTER 19 ITERATIONS ***

------------------------------------------------------------------------
 total energy gain   :        -0.0044403 Eh       -2.7864 kcal/mol
 total RMSD          :         0.2251190 a0        0.1191 Å
 total power (kW/mol):        -0.6135852 (step)  -46.9911 (real)
------------------------------------------------------------------------

 ANCopt (total)                0 d,  0 h,  0 min,  0.248 sec
 optimizer setup                ...        0 min,  0.000 sec (  0.117%)
 model hessian                  ...        0 min,  0.010 sec (  4.062%)
 ANC generation                 ...        0 min,  0.000 sec (  0.150%)
 coordinate transformation      ...        0 min,  0.000 sec (  0.037%)
 single point calculation       ...        0 min,  0.230 sec ( 92.588%)
 optimization log               ...        0 min,  0.006 sec (  2.432%)
 hessian update                 ...        0 min,  0.000 sec (  0.042%)
 rational function              ...        0 min,  0.001 sec (  0.322%)

================
 final structure:
================
$coord
       -4.86892744675200       -1.30977584445139       -0.50612813729038      C
       -2.24056376912835       -0.53924293025019        0.44606261022962      C
       -2.27240621975393       -0.38852879655799        2.52212357188300      H
       -1.35453844672294        1.99454147119160       -0.67142755639694      C
       -1.29017467850769        1.82805013873988       -2.73990430048954      H
        1.32713420419333        2.53580186487129        0.28809211428092      C
        1.23801646138289        2.79482157442163        2.35223096124780      H
        3.10551266873892        0.32467993129463       -0.28827988085399      C
        3.40541547465644        0.21135843553742       -2.34129653514628      H
        1.94596147392818       -2.18775564128650        0.58198569024808      C
        1.96156041119656       -2.20611998376518        2.67801872733138      H
       -0.55786946333287       -2.49292029888387       -0.28630975602587      O
        3.37477809541766       -4.11906110032633       -0.41444718337264      O
        5.41071189313920        0.60818890036537        0.98731054012319      O
        2.35813361427544        4.69951223913470       -0.85803238239074      O
       -2.85923180386468        4.05051432640226        0.08716774082418      O
       -5.73907677059731       -3.53682687973971        0.63753018806881      O
       -4.78940101583099       -1.52693724682681       -2.56677607307844      H
       -6.23814958042044        0.14588787744746       -0.00201908440067      H
        2.72052118207671       -5.74484313133297        0.12438902211373      H
        6.17037572875563        2.18766638905917        0.45096238848804      H
        1.20572429212424        6.09834411717281       -0.59250952431487      H
       -4.41427030654684        4.09856357462379       -0.86963171183393      H
       -4.54781158407386       -4.87669255092859        0.27815091929997      H
$end
 
 Bond Distances (Angstroems)
 ---------------------------
C1-C2=1.5345         C1-O17=1.4026        C1-H18=1.0973        C1-H19=1.0907        C2-C1=1.5345         C2-H3=1.1016         
C2-C4=1.5386         C2-O12=1.4184        H3-C2=1.1016         C4-C2=1.5386         C4-H5=1.0987         C4-C6=1.5342         
C4-O16=1.4067        H5-C4=1.0987         C6-C4=1.5342         C6-H7=1.1019         C6-C8=1.5322         C6-O15=1.4059        
H7-C6=1.1019         C8-C6=1.5322         C8-H9=1.0996         C8-C10=1.5350        C8-O14=1.4022        H9-C8=1.0996         
C10-C8=1.5350        C10-H11=1.1092       C10-O12=1.4116       C10-O13=1.3763       H11-C10=1.1092       O12-C2=1.4184        
O12-C10=1.4116       O13-C10=1.3763       O13-H20=0.9702       O14-C8=1.4022        O14-H21=0.9699       O15-C6=1.4059        
O15-H22=0.9693       O16-C4=1.4067        O16-H23=0.9665       O17-C1=1.4026        O17-H24=0.9676       H18-C1=1.0973        
H19-C1=1.0907        H20-O13=0.9702       H21-O14=0.9699       H22-O15=0.9693       H23-O16=0.9665       H24-O17=0.9676       
 C  H  Rav=1.0998 sigma=0.0052  Rmin=1.0907  Rmax=1.1092     7
 C  C  Rav=1.5349 sigma=0.0021  Rmin=1.5322  Rmax=1.5386     5
 O  H  Rav=0.9687 sigma=0.0014  Rmin=0.9665  Rmax=0.9702     5
 O  C  Rav=1.4034 sigma=0.0122  Rmin=1.3763  Rmax=1.4184     7
 
 selected bond angles (degree)
 --------------------
O17-C1-C2=112.28               H18-C1-C2=108.63               H18-C1-O17=110.70              H19-C1-C2=109.52               
H19-C1-O17=105.65              H19-C1-H18=110.03              H3-C2-C1=109.44                C4-C2-C1=112.43                
C4-C2-H3=108.96                O12-C2-C1=106.60               O12-C2-H3=109.56               O12-C2-C4=109.81               
H5-C4-C2=108.81                C6-C4-C2=108.50                C6-C4-H5=108.42                O16-C4-C2=113.07               
O16-C4-H5=111.34               O16-C4-C6=106.54               H7-C6-C4=108.16                C8-C6-C4=111.08                
C8-C6-H7=108.58                O15-C6-C4=111.61               O15-C6-H7=110.06               O15-C6-C8=107.32               
H9-C8-C6=109.08                C10-C8-C6=110.87               C10-C8-H9=107.87               O14-C8-C6=110.90               
O14-C8-H9=110.85               O14-C8-C10=107.22              H11-C10-C8=107.73              O12-C10-C8=112.13              
O12-C10-H11=109.36             O13-C10-C8=107.98              O13-C10-H11=111.87             O13-C10-O12=107.82             
 
 selected dihedral angles (degree)
 ---------------------------------
H3-C2-C1-O17=305.02           H3-C2-C1-H18=182.26           H3-C2-C1-H19= 62.06           C4-C2-C1-O17=183.79           
C4-C2-C1-H18= 61.03           C4-C2-C1-H19=300.83           O12-C2-C1-O17= 63.42          O12-C2-C1-H18=300.66          
O12-C2-C1-H19=180.47          H5-C4-C2-C1=300.45            H5-C4-C2-H3=178.95            H5-C4-C2-O12= 58.95           
C6-C4-C2-C1=182.67            C6-C4-C2-H3= 61.17            C6-C4-C2-O12=301.16           O16-C4-C2-C1= 64.71           
O16-C4-C2-H3=303.21           O16-C4-C2-O12=183.20          H7-C6-C4-C2=295.26            H7-C6-C4-H5=177.24            
H7-C6-C4-O16= 57.30           C8-C6-C4-C2= 54.33            C8-C6-C4-H5=296.30            C8-C6-C4-O16=176.37           
O15-C6-C4-C2=174.06           O15-C6-C4-H5= 56.03           O15-C6-C4-O16=296.09          H9-C8-C6-C4= 68.63            
H9-C8-C6-H7=187.45            H9-C8-C6-O15=306.38           C10-C8-C6-C4=309.99           C10-C8-C6-H7= 68.80           
C10-C8-C6-O15=187.74          O14-C8-C6-C4=190.99           O14-C8-C6-H7=309.81           O14-C8-C6-O15= 68.75          
H11-C10-C8-C6=289.44          H11-C10-C8-H9=170.07          H11-C10-C8-O14= 50.63         O12-C10-C8-C6= 49.82          
O12-C10-C8-H9=290.44          O12-C10-C8-O14=171.01         O13-C10-C8-C6=168.45          O13-C10-C8-H9= 49.07          
O13-C10-C8-O14=289.64         
           -------------------------------------------------
          |                Final Singlepoint                |
           -------------------------------------------------

          ...................................................
          :                      SETUP                      :
          :.................................................:
          :  # basis functions                  60          :
          :  # atomic orbitals                  60          :
          :  # shells                           36          :
          :  # electrons                        72          :
          :  max. iterations                   250          :
          :  Hamiltonian                  GFN2-xTB          :
          :  restarted?                      false          :
          :  GBSA solvation                   true          :
          :  PC potential                    false          :
          :  electronic temp.          300.0000000     K    :
          :  accuracy                    1.0000000          :
          :  -> integral cutoff          0.2500000E+02      :
          :  -> integral neglect         0.1000000E-07      :
          :  -> SCF convergence          0.1000000E-05 Eh   :
          :  -> wf. convergence          0.1000000E-03 e    :
          :  Broyden damping             0.4000000          :
          :  net charge                          0          :
          :  unpaired electrons                  0          :
          ...................................................

 iter      E             dE          RMSdq      gap      omega  full diag
   1    -43.6923210 -0.436923E+02  0.254E-05   10.36       0.0  T
   2    -43.6923210 -0.182609E-11  0.172E-05   10.36    1185.7  T
   3    -43.6923210 -0.959233E-12  0.633E-06   10.36    3226.2  T

   *** convergence criteria satisfied after 3 iterations ***

         #    Occupation            Energy/Eh            Energy/eV
      -------------------------------------------------------------
         1        2.0000           -0.7316437             -19.9090
       ...           ...                  ...                  ...
        30        2.0000           -0.4632466             -12.6056
        31        2.0000           -0.4536364             -12.3441
        32        2.0000           -0.4378748             -11.9152
        33        2.0000           -0.4297601             -11.6944
        34        2.0000           -0.4241353             -11.5413
        35        2.0000           -0.4204810             -11.4419
        36        2.0000           -0.4112288             -11.1901 (HOMO)
        37                         -0.0305696              -0.8318 (LUMO)
        38                          0.0006186               0.0168
        39                          0.0119165               0.3243
        40                          0.0252396               0.6868
        41                          0.0472360               1.2854
       ...                                ...                  ...
        60                          0.2884914               7.8503
      -------------------------------------------------------------
                  HL-Gap            0.3806593 Eh           10.3583 eV
             Fermi-level           -0.2208992 Eh           -6.0110 eV

 SCC (total)                   0 d,  0 h,  0 min,  0.011 sec
 SCC setup                      ...        0 min,  0.001 sec ( 10.393%)
 Dispersion                     ...        0 min,  0.000 sec (  0.611%)
 classical contributions        ...        0 min,  0.000 sec (  0.177%)
 integral evaluation            ...        0 min,  0.002 sec ( 18.159%)
 iterations                     ...        0 min,  0.002 sec ( 15.165%)
 molecular gradient             ...        0 min,  0.006 sec ( 54.544%)
 printout                       ...        0 min,  0.000 sec (  0.858%)

         :::::::::::::::::::::::::::::::::::::::::::::::::::::
         ::                     SUMMARY                     ::
         :::::::::::::::::::::::::::::::::::::::::::::::::::::
         :: total energy             -43.387637442025 Eh    ::
         :: total w/o Gsasa/hb       -43.366189325049 Eh    ::
         :: gradient norm              0.000182280972 Eh/a0 ::
         :: HOMO-LUMO gap             10.358266035941 eV    ::
         ::.................................................::
         :: SCC energy               -43.692183650834 Eh    ::
         :: -> isotropic ES            0.171744889045 Eh    ::
         :: -> anisotropic ES         -0.008180496413 Eh    ::
         :: -> anisotropic XC         -0.010590957226 Eh    ::
         :: -> dispersion             -0.018794583996 Eh    ::
         :: -> Gsolv                  -0.040853673831 Eh    ::
         ::    -> Gelec               -0.019405556856 Eh    ::
         ::    -> Gsasa                0.005190035520 Eh    ::
         ::    -> Ghb                 -0.027718912193 Eh    ::
         ::    -> Gshift               0.001080759698 Eh    ::
         :: repulsion energy           0.304546208810 Eh    ::
         :: add. restraining           0.000000000000 Eh    ::
         :: total charge              -0.000000000000 e     ::
         :::::::::::::::::::::::::::::::::::::::::::::::::::::

           ------------------------------------------------- 
          |                Numerical Hessian                |
           ------------------------------------------------- 
step length          :   0.00500
SCC accuracy         :   0.30000
Hessian scale factor :   1.00000
frozen atoms in %    :   0.00000    0
RMS gradient         :   0.00018
estimated CPU  time      0.03 min
estimated wall time      0.03 min

writing file <hessian>.

 projected vibrational frequencies (cm⁻¹)
eigval :       -0.00     0.00     0.00     0.00     0.00     0.00
eigval :       51.97    78.05    92.27   134.16   161.80   221.33
eigval :      232.73   262.79   274.70   284.13   311.39   318.82
eigval :      348.71   368.54   384.90   395.32   406.32   440.04
eigval :      481.56   521.98   581.30   605.63   609.32   884.04
eigval :      972.26   996.72  1023.10  1034.78  1055.56  1058.81
eigval :     1078.78  1082.17  1090.31  1100.24  1129.17  1132.12
eigval :     1152.33  1168.84  1181.95  1192.12  1205.98  1226.94
eigval :     1253.77  1270.40  1281.52  1294.11  1298.92  1306.41
eigval :     1321.73  1336.33  1337.33  1343.23  1362.32  1440.16
eigval :     2767.28  2856.84  2861.82  2888.76  2896.15  2900.69
eigval :     2995.91  3445.44  3453.91  3460.67  3494.54  3498.75
           -------------------------------------------------
          |                Property Printout                |
           -------------------------------------------------

    * Orbital Energies and Occupations

         #    Occupation            Energy/Eh            Energy/eV
      -------------------------------------------------------------
         1        2.0000           -0.7316437             -19.9090
       ...           ...                  ...                  ...
        24        2.0000           -0.5229141             -14.2292
        25        2.0000           -0.5133120             -13.9679
        26        2.0000           -0.4981908             -13.5565
        27        2.0000           -0.4925004             -13.4016
        28        2.0000           -0.4782876             -13.0149
        29        2.0000           -0.4724074             -12.8549
        30        2.0000           -0.4632466             -12.6056
        31        2.0000           -0.4536364             -12.3441
        32        2.0000           -0.4378748             -11.9152
        33        2.0000           -0.4297601             -11.6944
        34        2.0000           -0.4241353             -11.5413
        35        2.0000           -0.4204810             -11.4419
        36        2.0000           -0.4112288             -11.1901 (HOMO)
        37                         -0.0305695              -0.8318 (LUMO)
        38                          0.0006185               0.0168
        39                          0.0119165               0.3243
        40                          0.0252397               0.6868
        41                          0.0472361               1.2854
        42                          0.0675708               1.8387
        43                          0.0817483               2.2245
        44                          0.0863946               2.3509
        45                          0.1060962               2.8870
        46                          0.1154546               3.1417
        47                          0.1277471               3.4762
       ...                                ...                  ...
        60                          0.2884914               7.8503
      -------------------------------------------------------------
                  HL-Gap            0.3806593 Eh           10.3583 eV
             Fermi-level           -0.2208992 Eh           -6.0110 eV

     #   Z          covCN         q      C6AA      α(0)
     1   6 C        3.676     0.068    19.657     6.352
     2   6 C        3.746     0.086    19.214     6.253
     3   1 H        0.923     0.038     2.474     2.460
     4   6 C        3.726     0.088    19.221     6.260
     5   1 H        0.923     0.038     2.472     2.459
     6   6 C        3.731     0.100    19.021     6.226
     7   1 H        0.923     0.032     2.553     2.499
     8   6 C        3.728     0.098    19.059     6.233
     9   1 H        0.923     0.043     2.408     2.427
    10   6 C        3.623     0.250    17.128     5.965
    11   1 H        0.922     0.006     2.948     2.685
    12   8 O        1.701    -0.366    20.182     6.065
    13   8 O        1.658    -0.488    22.642     6.424
    14   8 O        1.656    -0.500    22.901     6.460
    15   8 O        1.656    -0.501    22.913     6.462
    16   8 O        1.656    -0.496    22.798     6.446
    17   8 O        1.655    -0.495    22.787     6.444
    18   1 H        0.924     0.048     2.340     2.392
    19   1 H        0.924     0.073     2.050     2.239
    20   1 H        0.804     0.397     0.490     1.100
    21   1 H        0.804     0.378     0.527     1.141
    22   1 H        0.804     0.373     0.538     1.152
    23   1 H        0.805     0.368     0.549     1.164
    24   1 H        0.805     0.361     0.562     1.178

 Mol. C6AA /au·bohr⁶  :       4744.870678
 Mol. C8AA /au·bohr⁸  :     100987.995227
 Mol. α(0) /au        :         98.483265


Wiberg/Mayer (AO) data.
largest (>0.10) Wiberg bond orders for each atom

 ---------------------------------------------------------------------------
     #   Z sym  total        # sym  WBO       # sym  WBO       # sym  WBO
 ---------------------------------------------------------------------------
     1   6 C    3.958 --    17 O    1.011     2 C    0.977    19 H    0.967
                            18 H    0.967
     2   6 C    3.938 --     1 C    0.977     4 C    0.960    12 O    0.958
                             3 H    0.957
     3   1 H    0.999 --     2 C    0.957
     4   6 C    3.960 --    16 O    1.000     6 C    0.968     2 C    0.960
                             5 H    0.960
     5   1 H    0.999 --     4 C    0.960
     6   6 C    3.963 --    15 O    1.000     8 C    0.970     4 C    0.968
                             7 H    0.957
     7   1 H    0.999 --     6 C    0.957
     8   6 C    3.963 --    14 O    1.004     6 C    0.970    10 C    0.961
                             9 H    0.957
     9   1 H    0.998 --     8 C    0.957
    10   6 C    3.934 --    13 O    1.028     8 C    0.961    12 O    0.951
                            11 H    0.945
    11   1 H    1.000 --    10 C    0.945
    12   8 O    2.057 --     2 C    0.958    10 C    0.951
    13   8 O    1.942 --    10 C    1.028    20 H    0.825
    14   8 O    1.917 --     8 C    1.004    21 H    0.842
    15   8 O    1.919 --     6 C    1.000    22 H    0.843
    16   8 O    1.927 --     4 C    1.000    23 H    0.849
    17   8 O    1.926 --     1 C    1.011    24 H    0.855
    18   1 H    0.998 --     1 C    0.967
    19   1 H    0.994 --     1 C    0.967
    20   1 H    0.842 --    13 O    0.825
    21   1 H    0.857 --    14 O    0.842
    22   1 H    0.861 --    15 O    0.843
    23   1 H    0.864 --    16 O    0.849
    24   1 H    0.869 --    17 O    0.855
 ---------------------------------------------------------------------------

Topologies differ in total number of bonds
Writing topology from bond orders to xtbtopo.mol

molecular dipole:
                 x           y           z       tot (Debye)
 q only:       -0.827       0.427      -0.386
   full:       -0.989       0.500      -0.416       3.009
molecular quadrupole (traceless):
                xx          xy          yy          xz          yz          zz
 q only:       -7.454      -3.306      10.813       5.198      -2.588      -3.359
  q+dip:      -12.951      -3.652      10.635       6.578      -3.052       2.316
   full:      -11.995      -3.890      11.946       6.592      -3.281       0.050

           -------------------------------------------------
          |                Geometry Summary                 |
           -------------------------------------------------

      molecular mass/u    :      180.1561339
   center of mass at/Å    :       -0.0004538      -0.0005254      -0.0001715
  moments of inertia/u·Å² :        0.4322796E+03   0.6452786E+03   0.1026697E+04
rotational constants/cm⁻¹ :        0.3899706E-01   0.2612458E-01   0.1641929E-01

 * 24 selected distances

     #   Z          #   Z                                           value/Å
     1   6 C        2   6 C                                       1.5344940
     2   6 C        3   1 H                                       1.1016243
     2   6 C        4   6 C                                       1.5386131 (max)
     4   6 C        5   1 H                                       1.0986589
     4   6 C        6   6 C                                       1.5341586
     6   6 C        7   1 H                                       1.1018714
     6   6 C        8   6 C                                       1.5322304
     8   6 C        9   1 H                                       1.0995765
     8   6 C       10   6 C                                       1.5350021
    10   6 C       11   1 H                                       1.1092463
     2   6 C       12   8 O                                       1.4184206
    10   6 C       12   8 O                                       1.4116473
    10   6 C       13   8 O                                       1.3763021
     8   6 C       14   8 O                                       1.4022151
     6   6 C       15   8 O                                       1.4058800
     4   6 C       16   8 O                                       1.4067153
     1   6 C       17   8 O                                       1.4025564
     1   6 C       18   1 H                                       1.0972939
     1   6 C       19   1 H                                       1.0906512
    13   8 O       20   1 H                                       0.9702236
    14   8 O       21   1 H                                       0.9699269
    15   8 O       22   1 H                                       0.9693164
    16   8 O       23   1 H                                       0.9665157 (min)
    17   8 O       24   1 H                                       0.9676142

 * 4 distinct bonds (by element types)

   Z      Z             #   av. dist./Å        max./Å        min./Å
   1 H    6 C           7     1.0998461     1.1092463     1.0906512
   6 C    6 C           5     1.5348996     1.5386131     1.5322304
   1 H    8 O           5     0.9687194     0.9702236     0.9665157
   6 C    8 O           7     1.4033910     1.4184206     1.3763021

           -------------------------------------------------
          |               Frequency Printout                |
           -------------------------------------------------
 projected vibrational frequencies (cm⁻¹)
eigval :       -0.00     0.00     0.00     0.00     0.00     0.00
eigval :       51.97    78.05    92.27   134.16   161.80   221.33
eigval :      232.73   262.79   274.70   284.13   311.39   318.82
eigval :      348.71   368.54   384.90   395.32   406.32   440.04
eigval :      481.56   521.98   581.30   605.63   609.32   884.04
eigval :      972.26   996.72  1023.10  1034.78  1055.56  1058.81
eigval :     1078.78  1082.17  1090.31  1100.24  1129.17  1132.12
eigval :     1152.33  1168.84  1181.95  1192.12  1205.98  1226.94
eigval :     1253.77  1270.40  1281.52  1294.11  1298.92  1306.41
eigval :     1321.73  1336.33  1337.33  1343.23  1362.32  1440.16
eigval :     2767.28  2856.84  2861.82  2888.76  2896.15  2900.69
eigval :     2995.91  3445.44  3453.91  3460.67  3494.54  3498.75
 reduced masses (amu)
   1: 13.46   2: 13.82   3: 13.37   4: 13.79   5: 13.48   6: 13.54   7: 13.83   8: 13.06
   9: 12.98  10: 13.97  11: 10.29  12: 12.52  13: 11.70  14:  5.76  15: 12.38  16:  3.52
  17:  9.50  18: 10.50  19:  4.21  20: 11.13  21:  5.11  22:  5.62  23: 11.94  24: 11.44
  25: 11.60  26: 10.76  27: 11.51  28: 11.22  29: 12.53  30:  6.94  31:  8.59  32:  9.52
  33:  9.89  34:  9.91  35:  8.86  36: 11.68  37:  9.73  38:  9.30  39: 10.99  40: 10.87
  41: 12.07  42:  7.70  43:  5.98  44:  6.61  45:  4.57  46:  3.76  47:  3.72  48:  4.27
  49:  4.57  50:  3.03  51:  4.26  52:  2.83  53:  2.99  54:  3.64  55:  4.00  56:  5.14
  57:  4.18  58:  3.67  59:  5.51  60:  1.77  61:  1.66  62:  1.71  63:  1.69  64:  1.73
  65:  1.74  66:  1.74  67:  1.72  68:  1.87  69:  1.87  70:  1.87  71:  1.87  72:  1.88
 IR intensities (km·mol⁻¹)
   1:  0.09   2:  0.52   3:  0.02   4:  0.32   5:  0.09   6:  0.10   7:  4.47   8:  3.24
   9:  2.50  10:  3.46  11:  5.12  12: 31.93  13: 79.61  14:153.47  15: 32.91  16:122.00
  17: 55.76  18: 61.27  19:144.04  20: 39.12  21:314.07  22: 84.25  23: 52.02  24: 87.51
  25: 21.59  26: 62.55  27: 13.72  28: 26.61  29: 14.42  30: 34.41  31:145.25  32: 14.66
  33:185.11  34: 36.36  35: 25.67  36:327.68  37:356.63  38:161.07  39: 22.87  40: 64.17
  41: 99.06  42: 64.03  43: 45.92  44: 38.12  45: 45.62  46: 77.05  47: 12.74  48:174.35
  49: 72.56  50: 17.47  51: 34.25  52: 40.84  53: 24.25  54: 61.90  55:  1.60  56: 15.43
  57: 23.67  58:  9.10  59: 33.41  60:  2.01  61:141.44  62: 21.96  63: 88.75  64: 52.42
  65: 60.62  66:192.74  67: 26.24  68:118.27  69:131.57  70:119.49  71: 99.95  72: 92.44
 Raman intensities (Ä⁴*amu⁻¹)
   1:  0.00   2:  0.00   3:  0.00   4:  0.00   5:  0.00   6:  0.00   7:  0.00   8:  0.00
   9:  0.00  10:  0.00  11:  0.00  12:  0.00  13:  0.00  14:  0.00  15:  0.00  16:  0.00
  17:  0.00  18:  0.00  19:  0.00  20:  0.00  21:  0.00  22:  0.00  23:  0.00  24:  0.00
  25:  0.00  26:  0.00  27:  0.00  28:  0.00  29:  0.00  30:  0.00  31:  0.00  32:  0.00
  33:  0.00  34:  0.00  35:  0.00  36:  0.00  37:  0.00  38:  0.00  39:  0.00  40:  0.00
  41:  0.00  42:  0.00  43:  0.00  44:  0.00  45:  0.00  46:  0.00  47:  0.00  48:  0.00
  49:  0.00  50:  0.00  51:  0.00  52:  0.00  53:  0.00  54:  0.00  55:  0.00  56:  0.00
  57:  0.00  58:  0.00  59:  0.00  60:  0.00  61:  0.00  62:  0.00  63:  0.00  64:  0.00
  65:  0.00  66:  0.00  67:  0.00  68:  0.00  69:  0.00  70:  0.00  71:  0.00  72:  0.00
 output can be read by thermo (or use thermo option).
 writing <g98.out> molden fake output.
 recommended (thermochemical) frequency scaling factor: 1.0
           -------------------------------------------------
          |             Thermodynamic Functions             |
           -------------------------------------------------

Molecule has no symmetry elements
It seems to be the C1 point group
c1  symmetry found (for desy threshold:  0.10E+00) used in thermo

          ...................................................
          :                      SETUP                      :
          :.................................................:
          :  # frequencies                          66      :
          :  # imaginary freq.                       0      :
          :  linear?                             false      :
          :  only rotor calc.                    false      :
          :  symmetry                               c1      :
          :  rotational number                       1      :
          :  scaling factor                  1.0000000      :
          :  rotor cutoff                    0.0000000 cm⁻¹ :
          :  imag. cutoff                 -100.0000000 cm⁻¹ :
          :.................................................:

    mode    ω/cm⁻¹     T·S(HO)/kcal·mol⁻¹    T·S(FR)/kcal·mol⁻¹   T·S(vib)
   ------------------------------------------------------------------------
       1     51.97    -1.41355 (100.00%)    -1.04498 (  0.00%)    -1.41355
       2     78.05    -1.17454 (100.00%)    -0.92455 (  0.00%)    -1.17454
       3     92.27    -1.07671 (100.00%)    -0.87496 (  0.00%)    -1.07671
       4    134.16    -0.86033 (100.00%)    -0.76411 (  0.00%)    -0.86033
       5    161.80    -0.75390 (100.00%)    -0.70861 (  0.00%)    -0.75390
       6    221.33    -0.58084 (100.00%)    -0.61581 (  0.00%)    -0.58084
       7    232.73    -0.55391 (100.00%)    -0.60095 (  0.00%)    -0.55391
       8    262.79    -0.48991 (100.00%)    -0.56496 (  0.00%)    -0.48991
       9    274.70    -0.46704 (100.00%)    -0.55183 (  0.00%)    -0.46704
      10    284.13    -0.44982 (100.00%)    -0.54183 (  0.00%)    -0.44982
   ------------------------------------------------------------------------

   temp. (K)  partition function   enthalpy   heat capacity  entropy
                                   cal/mol     cal/K/mol   cal/K/mol   J/K/mol
 298.15  VIB  0.643E+04             6491.349     43.566     39.198
         ROT  0.129E+07              888.752      2.981     30.946
         INT  0.831E+10             7380.101     46.547     70.144
         TR   0.234E+28             1481.254      4.968     41.454
         TOT                        8861.3550    51.5147   111.5982   466.9270

       T/K    H(0)-H(T)+PV         H(T)/Eh          T*S/Eh         G(T)/Eh
   ------------------------------------------------------------------------
    298.15    0.141215E-01    0.200250E+00    0.530239E-01    0.147226E+00
   ------------------------------------------------------------------------

         :::::::::::::::::::::::::::::::::::::::::::::::::::::
         ::                  THERMODYNAMIC                  ::
         :::::::::::::::::::::::::::::::::::::::::::::::::::::
         :: total free energy         -43.240411381935 Eh   ::
         ::.................................................::
         :: total energy              -43.387637442465 Eh   ::
         :: zero point energy           0.186128515338 Eh   ::
         :: G(RRHO) w/o ZPVE           -0.038902454808 Eh   ::
         :: G(RRHO) contrib.            0.147226060530 Eh   ::
         :::::::::::::::::::::::::::::::::::::::::::::::::::::

optimized geometry written to: xtbopt.coord


           -------------------------------------------------
          | TOTAL ENERGY              -43.387637442465 Eh   |
          | TOTAL ENTHALPY            -43.187387459093 Eh   |
          | TOTAL FREE ENERGY         -43.240411381935 Eh   |
          | GRADIENT NORM               0.000182225767 Eh/α |
          | HOMO-LUMO GAP              10.358266150801 eV   |
           -------------------------------------------------

------------------------------------------------------------------------
 * finished run on 2025/04/06 at 19:15:08.679     
------------------------------------------------------------------------
 total:
 * wall-time:     0 d,  0 h,  0 min,  2.210 sec
 *  cpu-time:     0 d,  0 h,  0 min,  2.092 sec
 * ratio c/w:     0.947 speedup
 SCF:
 * wall-time:     0 d,  0 h,  0 min,  0.053 sec
 *  cpu-time:     0 d,  0 h,  0 min,  0.018 sec
 * ratio c/w:     0.336 speedup
 ANC optimizer:
 * wall-time:     0 d,  0 h,  0 min,  0.269 sec
 *  cpu-time:     0 d,  0 h,  0 min,  0.256 sec
 * ratio c/w:     0.951 speedup
 analytical hessian:
 * wall-time:     0 d,  0 h,  0 min,  1.820 sec
 *  cpu-time:     0 d,  0 h,  0 min,  1.806 sec
 * ratio c/w:     0.992 speedup

