      -----------------------------------------------------------      
     |                   =====================                   |     
     |                           x T B                           |     
     |                   =====================                   |     
     |                         S. Grimme                         |     
     |          Mulliken Center for Theoretical Chemistry        |     
     |                    University of Bonn                     |     
      -----------------------------------------------------------      

   * xtb version 6.7.1 (edcfbbe) compiled by 'albert@albert-system' on 2024-07-22

   xtb is free software: you can redistribute it and/or modify it under
   the terms of the GNU Lesser General Public License as published by
   the Free Software Foundation, either version 3 of the License, or
   (at your option) any later version.
   
   xtb is distributed in the hope that it will be useful,
   but WITHOUT ANY WARRANTY; without even the implied warranty of
   MERCHANTABILITY or FITNESS FOR A PARTICULAR PURPOSE.  See the
   GNU Lesser General Public License for more details.
   
   Cite this work as:
   * C. Bannwarth, E. Caldeweyher, S. Ehlert, A. Hansen, P. Pracht,
     J. Seibert, S. Spicher, S. Grimme, WIREs Comput. Mol. Sci., 2020, 11,
     e01493. DOI: 10.1002/wcms.1493
   
   for GFN2-xTB:
   * C. Bannwarth, S. Ehlert and S. Grimme., J. Chem. Theory Comput., 2019,
     15, 1652-1671. DOI: 10.1021/acs.jctc.8b01176
   for GFN1-xTB:
   * S. Grimme, C. Bannwarth, P. Shushkov, J. Chem. Theory Comput., 2017,
     13, 1989-2009. DOI: 10.1021/acs.jctc.7b00118
   for GFN0-xTB:
   * P. Pracht, E. Caldeweyher, S. Ehlert, S. Grimme, ChemRxiv, 2019, preprint.
     DOI: 10.26434/chemrxiv.8326202.v1
   for GFN-FF:
   * S. Spicher and S. Grimme, Angew. Chem. Int. Ed., 2020, 59, 15665-15673.
     DOI: 10.1002/anie.202004239
   
   for ALPB and GBSA implicit solvation:
   * S. Ehlert, M. Stahn, S. Spicher, S. Grimme, J. Chem. Theory Comput.,
     2021, 17, 4250-4261. DOI: 10.1021/acs.jctc.1c00471
   
   for ddCOSMO and CPCM-X implicit solvation:
   * M. Stahn, S. Ehlert, S. Grimme, J. Phys. Chem. A,
     2023, XX, XXXX-XXXX. DOI: 10.1021/acs.jpca.3c04382
   
   for DFT-D4:
   * E. Caldeweyher, C. Bannwarth and S. Grimme, J. Chem. Phys., 2017,
     147, 034112. DOI: 10.1063/1.4993215
   * E. Caldeweyher, S. Ehlert, A. Hansen, H. Neugebauer, S. Spicher,
     C. Bannwarth and S. Grimme, J. Chem. Phys., 2019, 150, 154122.
     DOI: 10.1063/1.5090222
   * E. Caldeweyher, J.-M. Mewes, S. Ehlert and S. Grimme, Phys. Chem. Chem. Phys.
     2020, 22, 8499-8512. DOI: 10.1039/D0CP00502A
   
   for sTDA-xTB:
   * S. Grimme and C. Bannwarth, J. Chem. Phys., 2016, 145, 054103.
     DOI: 10.1063/1.4959605
   
   in the mass-spec context:
   * V. Asgeirsson, C. Bauer and S. Grimme, Chem. Sci., 2017, 8, 4879.
     DOI: 10.1039/c7sc00601b
   * J. Koopman and S. Grimme, ACS Omega 2019, 4, 12, 15120-15133.
     DOI: 10.1021/acsomega.9b02011
   
   for metadynamics refer to:
   * S. Grimme, J. Chem. Theory Comput., 2019, 155, 2847-2862
     DOI: 10.1021/acs.jctc.9b00143
   
   for SPH calculations refer to:
   * S. Spicher and S. Grimme, J. Chem. Theory Comput., 2021, 17, 1701-1714
     DOI: 10.1021/acs.jctc.0c01306
   
   for ONIOM refer to:
   * C. Plett, A. Katbashev, S. Ehlert, S. Grimme, M. Bursch,
     Phys. Chem. Chem. Phys., 2023, 25, 17860-17868. DOI: 10.1039/D3CP02178E
   
   for DIPRO refer to:
   * J. Kohn, N. Gildemeister, S. Grimme, D. Fazzi, A. Hansen,
     J. Chem. Phys., 2023, just accepted.
   
   for PTB refer to:
   * S. Grimme, M. Mueller, A. Hansen, J. Chem. Phys., 2023, 158, 124111.
     DOI: 10.1063/5.0137838
   
   with help from (in alphabetical order)
   P. Atkinson, C. Bannwarth, F. Bohle, G. Brandenburg, E. Caldeweyher
   M. Checinski, S. Dohm, S. Ehlert, S. Ehrlich, I. Gerasimov, C. Hölzer
   A. Katbashev, J. Kohn, J. Koopman, C. Lavigne, S. Lehtola, F. März, M. Müller,
   F. Musil, H. Neugebauer, J. Pisarek, C. Plett, P. Pracht, F. Pultar,
   J. Seibert, P. Shushkov, S. Spicher, M. Stahn, M. Steiner, T. Strunk,
   J. Stückrath, T. Rose, and J. Unsleber
   
 * started run on 2025/04/04 at 18:54:21.446     
   ID    Z sym.   atoms
    1    6 C      1-5
    2    1 H      6-15

           -------------------------------------------------
          |                Calculation Setup                |
           -------------------------------------------------

          program call               : /srv/scratch/z5358697/.xtb/bin/xtb gas.coord --gfn2 --sp --chrg 0 --norestart --parallel 1
          hostname                   : k139
          coordinate file            : gas.coord
          omp threads                :                     1


           -------------------------------------------------
          |                 G F N 2 - x T B                 |
           -------------------------------------------------

        Reference                      10.1021/acs.jctc.8b01176
      * Hamiltonian:
        H0-scaling (s, p, d)           1.850000    2.230000    2.230000
        zeta-weighting                 0.500000
      * Dispersion:
        s8                             2.700000
        a1                             0.520000
        a2                             5.000000
        s9                             5.000000
      * Repulsion:
        kExp                           1.500000    1.000000
        rExp                           1.000000
      * Coulomb:
        alpha                          2.000000
        third order                    shell-resolved
        anisotropic                    true
        a3                             3.000000
        a5                             4.000000
        cn-shift                       1.200000
        cn-exp                         4.000000
        max-rad                        5.000000


          ...................................................
          :                      SETUP                      :
          :.................................................:
          :  # basis functions                  30          :
          :  # atomic orbitals                  30          :
          :  # shells                           20          :
          :  # electrons                        30          :
          :  max. iterations                   250          :
          :  Hamiltonian                  GFN2-xTB          :
          :  restarted?                      false          :
          :  GBSA solvation                  false          :
          :  PC potential                    false          :
          :  electronic temp.          300.0000000     K    :
          :  accuracy                    1.0000000          :
          :  -> integral cutoff          0.2500000E+02      :
          :  -> integral neglect         0.1000000E-07      :
          :  -> SCF convergence          0.1000000E-05 Eh   :
          :  -> wf. convergence          0.1000000E-03 e    :
          :  Broyden damping             0.4000000          :
          :  net charge                          0          :
          :  unpaired electrons                  0          :
          ...................................................

 iter      E             dE          RMSdq      gap      omega  full diag
   1    -16.0060447 -0.160060E+02  0.323E+00    5.53       0.0  T
   2    -16.0386230 -0.325782E-01  0.188E+00    5.48       1.0  T
   3    -16.0371898  0.143314E-02  0.912E-01    5.46       1.0  T
   4    -16.0381578 -0.967999E-03  0.536E-01    5.42       1.0  T
   5    -16.0407493 -0.259144E-02  0.709E-02    5.43       1.0  T
   6    -16.0407598 -0.105298E-04  0.376E-02    5.43       1.0  T
   7    -16.0407607 -0.940666E-06  0.909E-03    5.43       2.8  T
   8    -16.0407609 -0.163497E-06  0.152E-03    5.43      17.0  T
   9    -16.0407609 -0.232566E-08  0.265E-04    5.43      97.4  T
  10    -16.0407609 -0.338574E-10  0.769E-05    5.43     335.8  T

   *** convergence criteria satisfied after 10 iterations ***

         #    Occupation            Energy/Eh            Energy/eV
      -------------------------------------------------------------
         1        2.0000           -0.6252207             -17.0131
       ...           ...                  ...                  ...
         9        2.0000           -0.4682876             -12.7428
        10        2.0000           -0.4583496             -12.4723
        11        2.0000           -0.4512253             -12.2785
        12        2.0000           -0.4409903             -12.0000
        13        2.0000           -0.4274350             -11.6311
        14        2.0000           -0.4179630             -11.3734
        15        2.0000           -0.3948898             -10.7455 (HOMO)
        16                         -0.1952325              -5.3125 (LUMO)
        17                          0.0973430               2.6488
        18                          0.1071981               2.9170
        19                          0.1166248               3.1735
        20                          0.1492000               4.0599
       ...                                ...                  ...
        30                          0.6320545              17.1991
      -------------------------------------------------------------
                  HL-Gap            0.1996573 Eh            5.4330 eV
             Fermi-level           -0.2950612 Eh           -8.0290 eV

 SCC (total)                   0 d,  0 h,  0 min,  0.019 sec
 SCC setup                      ...        0 min,  0.000 sec (  0.831%)
 Dispersion                     ...        0 min,  0.000 sec (  0.330%)
 classical contributions        ...        0 min,  0.000 sec (  0.085%)
 integral evaluation            ...        0 min,  0.001 sec (  4.103%)
 iterations                     ...        0 min,  0.016 sec ( 83.405%)
 molecular gradient             ...        0 min,  0.002 sec ( 10.608%)
 printout                       ...        0 min,  0.000 sec (  0.582%)

         :::::::::::::::::::::::::::::::::::::::::::::::::::::
         ::                     SUMMARY                     ::
         :::::::::::::::::::::::::::::::::::::::::::::::::::::
         :: total energy             -15.770928673132 Eh    ::
         :: gradient norm              0.001386731757 Eh/a0 ::
         :: HOMO-LUMO gap              5.432952655519 eV    ::
         ::.................................................::
         :: SCC energy               -16.040745097416 Eh    ::
         :: -> isotropic ES            0.003278769820 Eh    ::
         :: -> anisotropic ES          0.004977646216 Eh    ::
         :: -> anisotropic XC          0.012141948437 Eh    ::
         :: -> dispersion             -0.008082821422 Eh    ::
         :: repulsion energy           0.269816424283 Eh    ::
         :: add. restraining           0.000000000000 Eh    ::
         :: total charge              -0.000000000000 e     ::
         :::::::::::::::::::::::::::::::::::::::::::::::::::::

           -------------------------------------------------
          |                Property Printout                |
           -------------------------------------------------

    * Orbital Energies and Occupations

         #    Occupation            Energy/Eh            Energy/eV
      -------------------------------------------------------------
         1        2.0000           -0.6252207             -17.0131
       ...           ...                  ...                  ...
         3        2.0000           -0.5867983             -15.9676
         4        2.0000           -0.5650373             -15.3754
         5        2.0000           -0.5309039             -14.4466
         6        2.0000           -0.5154647             -14.0265
         7        2.0000           -0.4994244             -13.5900
         8        2.0000           -0.4886241             -13.2961
         9        2.0000           -0.4682876             -12.7428
        10        2.0000           -0.4583496             -12.4723
        11        2.0000           -0.4512253             -12.2785
        12        2.0000           -0.4409903             -12.0000
        13        2.0000           -0.4274350             -11.6311
        14        2.0000           -0.4179630             -11.3734
        15        2.0000           -0.3948898             -10.7455 (HOMO)
        16                         -0.1952325              -5.3125 (LUMO)
        17                          0.0973430               2.6488
        18                          0.1071981               2.9170
        19                          0.1166248               3.1735
        20                          0.1492000               4.0599
        21                          0.1515276               4.1233
        22                          0.1726926               4.6992
        23                          0.2067573               5.6262
        24                          0.2218979               6.0381
        25                          0.2346826               6.3860
        26                          0.2576908               7.0121
       ...                                ...                  ...
        30                          0.6320545              17.1991
      -------------------------------------------------------------
                  HL-Gap            0.1996573 Eh            5.4330 eV
             Fermi-level           -0.2950612 Eh           -8.0290 eV

     #   Z          covCN         q      C6AA      α(0)
     1   6 C        3.758    -0.102    22.505     6.763
     2   6 C        3.852    -0.008    20.687     6.469
     3   6 C        3.755    -0.105    22.568     6.774
     4   6 C        2.891    -0.031    28.761     8.793
     5   6 C        2.835    -0.096    30.392     9.034
     6   1 H        0.925     0.035     2.512     2.478
     7   1 H        0.925     0.034     2.533     2.489
     8   1 H        0.925     0.036     2.504     2.475
     9   1 H        0.923     0.034     2.536     2.491
    10   1 H        0.925     0.036     2.503     2.474
    11   1 H        0.925     0.039     2.467     2.456
    12   1 H        0.925     0.033     2.540     2.492
    13   1 H        0.925     0.027     2.632     2.537
    14   1 H        0.926     0.030     2.585     2.514
    15   1 H        0.926     0.039     2.469     2.457

 Mol. C6AA /au·bohr⁶  :       1661.232309
 Mol. C8AA /au·bohr⁸  :      35722.604163
 Mol. α(0) /au        :         62.696998


Wiberg/Mayer (AO) data.
largest (>0.10) Wiberg bond orders for each atom

 ---------------------------------------------------------------------------
     #   Z sym  total        # sym  WBO       # sym  WBO       # sym  WBO
 ---------------------------------------------------------------------------
     1   6 C    3.997 --     2 C    0.992     8 H    0.988     7 H    0.987
                             6 H    0.986
     2   6 C    3.997 --     4 C    1.013     3 C    1.010     1 C    0.992
                             9 H    0.954
     3   6 C    3.997 --     2 C    1.010    12 H    0.987    10 H    0.986
                            11 H    0.986
     4   6 C    3.991 --     5 C    1.979     2 C    1.013    13 H    0.966
     5   6 C    3.992 --     4 C    1.979    14 H    0.977    15 H    0.974
     6   1 H    0.998 --     1 C    0.986
     7   1 H    0.999 --     1 C    0.987
     8   1 H    0.999 --     1 C    0.988
     9   1 H    0.999 --     2 C    0.954
    10   1 H    0.999 --     3 C    0.986
    11   1 H    0.999 --     3 C    0.986
    12   1 H    0.999 --     3 C    0.987
    13   1 H    0.999 --     4 C    0.966
    14   1 H    0.999 --     5 C    0.977
    15   1 H    0.999 --     5 C    0.974
 ---------------------------------------------------------------------------

Topologies differ in total number of bonds
Writing topology from bond orders to xtbtopo.mol

molecular dipole:
                 x           y           z       tot (Debye)
 q only:        0.151      -0.004      -0.017
   full:        0.158      -0.025      -0.027       0.413
molecular quadrupole (traceless):
                xx          xy          yy          xz          yz          zz
 q only:       -0.173      -0.029       0.371      -0.046       0.269      -0.198
  q+dip:        0.318       0.121       0.276      -0.779       1.306      -0.595
   full:       -0.010       0.128       0.294      -0.334       0.677      -0.284


           -------------------------------------------------
          | TOTAL ENERGY              -15.770928673132 Eh   |
          | GRADIENT NORM               0.001386731757 Eh/α |
          | HOMO-LUMO GAP               5.432952655519 eV   |
           -------------------------------------------------

------------------------------------------------------------------------
 * finished run on 2025/04/04 at 18:54:21.547     
------------------------------------------------------------------------
 total:
 * wall-time:     0 d,  0 h,  0 min,  0.100 sec
 *  cpu-time:     0 d,  0 h,  0 min,  0.015 sec
 * ratio c/w:     0.146 speedup
 SCF:
 * wall-time:     0 d,  0 h,  0 min,  0.019 sec
 *  cpu-time:     0 d,  0 h,  0 min,  0.007 sec
 * ratio c/w:     0.374 speedup

