      -----------------------------------------------------------      
     |                   =====================                   |     
     |                           x T B                           |     
     |                   =====================                   |     
     |                         S. Grimme                         |     
     |          Mulliken Center for Theoretical Chemistry        |     
     |                    University of Bonn                     |     
      -----------------------------------------------------------      

   * xtb version 6.7.1 (edcfbbe) compiled by 'albert@albert-system' on 2024-07-22

   xtb is free software: you can redistribute it and/or modify it under
   the terms of the GNU Lesser General Public License as published by
   the Free Software Foundation, either version 3 of the License, or
   (at your option) any later version.
   
   xtb is distributed in the hope that it will be useful,
   but WITHOUT ANY WARRANTY; without even the implied warranty of
   MERCHANTABILITY or FITNESS FOR A PARTICULAR PURPOSE.  See the
   GNU Lesser General Public License for more details.
   
   Cite this work as:
   * C. Bannwarth, E. Caldeweyher, S. Ehlert, A. Hansen, P. Pracht,
     J. Seibert, S. Spicher, S. Grimme, WIREs Comput. Mol. Sci., 2020, 11,
     e01493. DOI: 10.1002/wcms.1493
   
   for GFN2-xTB:
   * C. Bannwarth, S. Ehlert and S. Grimme., J. Chem. Theory Comput., 2019,
     15, 1652-1671. DOI: 10.1021/acs.jctc.8b01176
   for GFN1-xTB:
   * S. Grimme, C. Bannwarth, P. Shushkov, J. Chem. Theory Comput., 2017,
     13, 1989-2009. DOI: 10.1021/acs.jctc.7b00118
   for GFN0-xTB:
   * P. Pracht, E. Caldeweyher, S. Ehlert, S. Grimme, ChemRxiv, 2019, preprint.
     DOI: 10.26434/chemrxiv.8326202.v1
   for GFN-FF:
   * S. Spicher and S. Grimme, Angew. Chem. Int. Ed., 2020, 59, 15665-15673.
     DOI: 10.1002/anie.202004239
   
   for ALPB and GBSA implicit solvation:
   * S. Ehlert, M. Stahn, S. Spicher, S. Grimme, J. Chem. Theory Comput.,
     2021, 17, 4250-4261. DOI: 10.1021/acs.jctc.1c00471
   
   for ddCOSMO and CPCM-X implicit solvation:
   * M. Stahn, S. Ehlert, S. Grimme, J. Phys. Chem. A,
     2023, XX, XXXX-XXXX. DOI: 10.1021/acs.jpca.3c04382
   
   for DFT-D4:
   * E. Caldeweyher, C. Bannwarth and S. Grimme, J. Chem. Phys., 2017,
     147, 034112. DOI: 10.1063/1.4993215
   * E. Caldeweyher, S. Ehlert, A. Hansen, H. Neugebauer, S. Spicher,
     C. Bannwarth and S. Grimme, J. Chem. Phys., 2019, 150, 154122.
     DOI: 10.1063/1.5090222
   * E. Caldeweyher, J.-M. Mewes, S. Ehlert and S. Grimme, Phys. Chem. Chem. Phys.
     2020, 22, 8499-8512. DOI: 10.1039/D0CP00502A
   
   for sTDA-xTB:
   * S. Grimme and C. Bannwarth, J. Chem. Phys., 2016, 145, 054103.
     DOI: 10.1063/1.4959605
   
   in the mass-spec context:
   * V. Asgeirsson, C. Bauer and S. Grimme, Chem. Sci., 2017, 8, 4879.
     DOI: 10.1039/c7sc00601b
   * J. Koopman and S. Grimme, ACS Omega 2019, 4, 12, 15120-15133.
     DOI: 10.1021/acsomega.9b02011
   
   for metadynamics refer to:
   * S. Grimme, J. Chem. Theory Comput., 2019, 155, 2847-2862
     DOI: 10.1021/acs.jctc.9b00143
   
   for SPH calculations refer to:
   * S. Spicher and S. Grimme, J. Chem. Theory Comput., 2021, 17, 1701-1714
     DOI: 10.1021/acs.jctc.0c01306
   
   for ONIOM refer to:
   * C. Plett, A. Katbashev, S. Ehlert, S. Grimme, M. Bursch,
     Phys. Chem. Chem. Phys., 2023, 25, 17860-17868. DOI: 10.1039/D3CP02178E
   
   for DIPRO refer to:
   * J. Kohn, N. Gildemeister, S. Grimme, D. Fazzi, A. Hansen,
     J. Chem. Phys., 2023, just accepted.
   
   for PTB refer to:
   * S. Grimme, M. Mueller, A. Hansen, J. Chem. Phys., 2023, 158, 124111.
     DOI: 10.1063/5.0137838
   
   with help from (in alphabetical order)
   P. Atkinson, C. Bannwarth, F. Bohle, G. Brandenburg, E. Caldeweyher
   M. Checinski, S. Dohm, S. Ehlert, S. Ehrlich, I. Gerasimov, C. Hölzer
   A. Katbashev, J. Kohn, J. Koopman, C. Lavigne, S. Lehtola, F. März, M. Müller,
   F. Musil, H. Neugebauer, J. Pisarek, C. Plett, P. Pracht, F. Pultar,
   J. Seibert, P. Shushkov, S. Spicher, M. Stahn, M. Steiner, T. Strunk,
   J. Stückrath, T. Rose, and J. Unsleber
   
 * started run on 2025/04/06 at 19:15:08.661     
   ID    Z sym.   atoms
    1    6 C      1, 2, 4, 6, 8, 10
    2    1 H      3, 5, 7, 9, 11, 18-24
    3    8 O      12-17

           -------------------------------------------------
          |                Calculation Setup                |
           -------------------------------------------------

          program call               : /srv/scratch/z5358697/.xtb/bin/xtb xtb_rrho.coord --gfn2 --ohess vtight --chrg 0 --enso --norestart -I rrho-xcontrol-inp --parallel 1 --alpb water
          hostname                   : k155
          coordinate file            : xtb_rrho.coord
          omp threads                :                     1


           -------------------------------------------------
          |                 G F N 2 - x T B                 |
           -------------------------------------------------

        Reference                      10.1021/acs.jctc.8b01176
      * Hamiltonian:
        H0-scaling (s, p, d)           1.850000    2.230000    2.230000
        zeta-weighting                 0.500000
      * Dispersion:
        s8                             2.700000
        a1                             0.520000
        a2                             5.000000
        s9                             5.000000
      * Repulsion:
        kExp                           1.500000    1.000000
        rExp                           1.000000
      * Coulomb:
        alpha                          2.000000
        third order                    shell-resolved
        anisotropic                    true
        a3                             3.000000
        a5                             4.000000
        cn-shift                       1.200000
        cn-exp                         4.000000
        max-rad                        5.000000

      * Solvation model:               ALPB
        Solvent                        water
        Parameter file                 internal GFN2-xTB/ALPB
        Dielectric constant                8.0200E+01
        Reference state                gsolv [1 M gas/solution]
        Free energy shift                  1.0808E-03 Eh       6.7819E-01 kcal/mol
        Temperature                        2.9815E+02 K
        Density                            1.0000E+00 kg/L
        Solvent mass                       1.8000E+01 g/mol
        Interaction kernel             P16
        Born radius scaling (c1)           1.4744E+00
        Born radii integrator          GBOBC
        Born offset                        0.0000E+00 a0       0.0000E+00 AA
        H-bond correction              true
        Ion screening                  false
        Surface tension                    1.0000E-05 Eh       1.5569E+01 dyn/cm
        Grid points                               974 per atom

          ...................................................
          :                      SETUP                      :
          :.................................................:
          :  # basis functions                  60          :
          :  # atomic orbitals                  60          :
          :  # shells                           36          :
          :  # electrons                        72          :
          :  max. iterations                   250          :
          :  Hamiltonian                  GFN2-xTB          :
          :  restarted?                      false          :
          :  GBSA solvation                   true          :
          :  PC potential                    false          :
          :  electronic temp.          300.0000000     K    :
          :  accuracy                    1.0000000          :
          :  -> integral cutoff          0.2500000E+02      :
          :  -> integral neglect         0.1000000E-07      :
          :  -> SCF convergence          0.1000000E-05 Eh   :
          :  -> wf. convergence          0.1000000E-03 e    :
          :  Broyden damping             0.4000000          :
          :  net charge                          0          :
          :  unpaired electrons                  0          :
          ...................................................

 iter      E             dE          RMSdq      gap      omega  full diag
   1    -43.6410436 -0.436410E+02  0.496E+00   10.02       0.0  T
   2    -43.6856396 -0.445960E-01  0.262E+00    9.85       1.0  T
   3    -43.6878871 -0.224744E-02  0.706E-01    9.94       1.0  T
   4    -43.6885755 -0.688396E-03  0.200E-01    9.93       1.0  T
   5    -43.6886563 -0.808659E-04  0.908E-02    9.95       1.0  T
   6    -43.6886768 -0.204838E-04  0.251E-02    9.96       1.0  T
   7    -43.6886781 -0.124125E-05  0.838E-03    9.96       2.4  T
   8    -43.6886785 -0.397733E-06  0.273E-03    9.96       7.5  T
   9    -43.6886785 -0.162140E-07  0.112E-03    9.96      18.2  T
  10    -43.6886785 -0.584543E-08  0.389E-04    9.96      52.5  T
  11    -43.6886785 -0.503555E-09  0.121E-04    9.96     168.1  T

   *** convergence criteria satisfied after 11 iterations ***

         #    Occupation            Energy/Eh            Energy/eV
      -------------------------------------------------------------
         1        2.0000           -0.7278282             -19.8052
       ...           ...                  ...                  ...
        30        2.0000           -0.4602426             -12.5238
        31        2.0000           -0.4526049             -12.3160
        32        2.0000           -0.4424658             -12.0401
        33        2.0000           -0.4310170             -11.7286
        34        2.0000           -0.4221614             -11.4876
        35        2.0000           -0.4197418             -11.4218
        36        2.0000           -0.4151744             -11.2975 (HOMO)
        37                         -0.0492693              -1.3407 (LUMO)
        38                         -0.0185298              -0.5042
        39                         -0.0019709              -0.0536
        40                          0.0255832               0.6962
        41                          0.0358592               0.9758
       ...                                ...                  ...
        60                          0.2812693               7.6537
      -------------------------------------------------------------
                  HL-Gap            0.3659051 Eh            9.9568 eV
             Fermi-level           -0.2322219 Eh           -6.3191 eV

 SCC (total)                   0 d,  0 h,  0 min,  0.033 sec
 SCC setup                      ...        0 min,  0.001 sec (  3.767%)
 Dispersion                     ...        0 min,  0.000 sec (  0.372%)
 classical contributions        ...        0 min,  0.000 sec (  0.069%)
 integral evaluation            ...        0 min,  0.002 sec (  6.876%)
 iterations                     ...        0 min,  0.022 sec ( 66.056%)
 molecular gradient             ...        0 min,  0.007 sec ( 22.473%)
 printout                       ...        0 min,  0.000 sec (  0.346%)

         :::::::::::::::::::::::::::::::::::::::::::::::::::::
         ::                     SUMMARY                     ::
         :::::::::::::::::::::::::::::::::::::::::::::::::::::
         :: total energy             -43.387144986521 Eh    ::
         :: total w/o Gsasa/hb       -43.364975939402 Eh    ::
         :: gradient norm              0.057943427176 Eh/a0 ::
         :: HOMO-LUMO gap              9.956783822234 eV    ::
         ::.................................................::
         :: SCC energy               -43.688525342895 Eh    ::
         :: -> isotropic ES            0.172667134911 Eh    ::
         :: -> anisotropic ES         -0.006571571413 Eh    ::
         :: -> anisotropic XC         -0.008286416313 Eh    ::
         :: -> dispersion             -0.018872023335 Eh    ::
         :: -> Gsolv                  -0.039781711297 Eh    ::
         ::    -> Gelec               -0.017612664178 Eh    ::
         ::    -> Gsasa                0.004892562903 Eh    ::
         ::    -> Ghb                 -0.028142369720 Eh    ::
         ::    -> Gshift               0.001080759698 Eh    ::
         :: repulsion energy           0.301380356374 Eh    ::
         :: add. restraining           0.000000000000 Eh    ::
         :: total charge              -0.000000000000 e     ::
         :::::::::::::::::::::::::::::::::::::::::::::::::::::

      ----------------------------------------------------------- 
     |                   =====================                   |
     |                        A N C O P T                        |
     |                   =====================                   |
     |               Approximate Normal Coordinate               |
     |                Rational Function Optimizer                |
      ----------------------------------------------------------- 
      ----------------------------------------------------------- 
     |                   =====================                   |
     |                        A N C O P T                        |
     |                   =====================                   |
     |               Approximate Normal Coordinate               |
     |                Rational Function Optimizer                |
      ----------------------------------------------------------- 

          ...................................................
          :                      SETUP                      :
          :.................................................:
          :   optimization level         verytight          :
          :   max. optcycles                   480          :
          :   ANC micro-cycles                  20          :
          :   degrees of freedom                66          :
          :.................................................:
          :   RF solver                   davidson          :
          :   write xtbopt.log                true          :
          :   linear?                        false          :
          :   energy convergence         0.1000000E-06 Eh   :
          :   grad. convergence          0.2000000E-03 Eh/α :
          :   maxmium RF displ.          1.0000000          :
          :   Hlow (freq-cutoff)         0.1000000E-01      :
          :   Hmax (freq-cutoff)         5.0000000          :
          :   S6 in model hess.         20.0000000          :
          ...................................................

generating ANC from exact Hessian ...
Using Lindh-Hessian (1995)
 Shifting diagonal of input Hessian by   7.291218037325979E-003
 Lowest  eigenvalues of input Hessian
    0.000000    0.000000    0.000000    0.000000    0.000000    0.000000
    0.010000    0.011042    0.012992    0.014116    0.015823    0.020778
    0.021938    0.022702    0.024624    0.029654    0.032597    0.038546
 Highest eigenvalues
    1.406463    1.443894    1.453411    1.456961    1.490738    1.566916
 

........................................................................
.............................. CYCLE    1 ..............................
........................................................................

 iter      E             dE          RMSdq      gap      omega  full diag
   1    -43.6886785 -0.436887E+02  0.580E-05    9.96       0.0  T
   2    -43.6886785 -0.116671E-10  0.339E-05    9.96     601.5  T
   3    -43.6886785 -0.200373E-11  0.163E-05    9.96    1253.8  T
     SCC iter.                  ...        0 min,  0.002 sec
     gradient                   ...        0 min,  0.006 sec
 * total energy  :   -43.3871450 Eh     change       -0.7078427E-10 Eh
   gradient norm :     0.0579431 Eh/α   predicted     0.0000000E+00 (-100.00%)
   displ. norm   :     0.1618980 α      lambda       -0.3905384E-02
   maximum displ.:     0.0611938 α      in ANC's #4, #3, #13, ...

........................................................................
.............................. CYCLE    2 ..............................
........................................................................

 iter      E             dE          RMSdq      gap      omega  full diag
   1    -43.6941095 -0.436941E+02  0.116E-01   10.21       0.0  T
   2    -43.6941226 -0.131612E-04  0.706E-02   10.22       1.0  T
   3    -43.6941234 -0.802239E-06  0.153E-02   10.22       1.3  T
   4    -43.6941255 -0.204369E-05  0.486E-03   10.22       4.2  T
   5    -43.6941255 -0.648549E-07  0.196E-03   10.22      10.4  T
   6    -43.6941256 -0.952578E-08  0.100E-03   10.22      20.3  T
   7    -43.6941256 -0.293943E-08  0.211E-04   10.22      96.7  T
   8    -43.6941256 -0.106517E-09  0.806E-05   10.22     253.3  T
     SCC iter.                  ...        0 min,  0.004 sec
     gradient                   ...        0 min,  0.006 sec
 * total energy  :   -43.3900586 Eh     change       -0.2913568E-02 Eh
   gradient norm :     0.0300468 Eh/α   predicted    -0.2003986E-02 ( -31.22%)
   displ. norm   :     0.2595452 α      lambda       -0.2611454E-02
   maximum displ.:     0.1197404 α      in ANC's #4, #3, #13, ...

........................................................................
.............................. CYCLE    3 ..............................
........................................................................

 iter      E             dE          RMSdq      gap      omega  full diag
   1    -43.6959572 -0.436960E+02  0.117E-01   10.54       0.0  T
   2    -43.6959731 -0.158586E-04  0.720E-02   10.55       1.0  T
   3    -43.6959744 -0.134493E-05  0.169E-02   10.55       1.2  T
   4    -43.6959764 -0.200443E-05  0.526E-03   10.55       3.9  T
   5    -43.6959765 -0.901617E-07  0.219E-03   10.55       9.3  T
   6    -43.6959765 -0.135495E-07  0.120E-03   10.55      17.0  T
   7    -43.6959765 -0.425641E-08  0.241E-04   10.55      84.5  T
   8    -43.6959765 -0.172889E-09  0.990E-05   10.55     206.2  T
     SCC iter.                  ...        0 min,  0.004 sec
     gradient                   ...        0 min,  0.006 sec
 * total energy  :   -43.3915601 Eh     change       -0.1501518E-02 Eh
   gradient norm :     0.0115076 Eh/α   predicted    -0.1393869E-02 (  -7.17%)
   displ. norm   :     0.1504573 α      lambda       -0.4238619E-03
   maximum displ.:     0.0728485 α      in ANC's #3, #4, #2, ...

........................................................................
.............................. CYCLE    4 ..............................
........................................................................

 iter      E             dE          RMSdq      gap      omega  full diag
   1    -43.6953968 -0.436954E+02  0.489E-02   10.59       0.0  T
   2    -43.6953974 -0.557565E-06  0.297E-02   10.59       1.0  T
   3    -43.6953975 -0.128562E-06  0.270E-03   10.59       7.6  T
   4    -43.6953976 -0.632938E-07  0.129E-03   10.59      15.8  T
   5    -43.6953976 -0.434226E-08  0.509E-04   10.59      40.1  T
   6    -43.6953976 -0.807418E-09  0.240E-04   10.59      85.0  T
     SCC iter.                  ...        0 min,  0.003 sec
     gradient                   ...        0 min,  0.006 sec
 * total energy  :   -43.3919049 Eh     change       -0.3448244E-03 Eh
   gradient norm :     0.0129058 Eh/α   predicted    -0.2167359E-03 ( -37.15%)
   displ. norm   :     0.3167553 α      lambda       -0.7349265E-03
   maximum displ.:     0.1608443 α      in ANC's #2, #3, #4, ...

........................................................................
.............................. CYCLE    5 ..............................
........................................................................

 iter      E             dE          RMSdq      gap      omega  full diag
   1    -43.6938895 -0.436939E+02  0.978E-02   10.59       0.0  T
   2    -43.6938915 -0.200917E-05  0.594E-02   10.59       1.0  T
   3    -43.6938919 -0.424201E-06  0.598E-03   10.59       3.4  T
   4    -43.6938923 -0.406989E-06  0.268E-03   10.59       7.6  T
   5    -43.6938923 -0.163401E-07  0.904E-04   10.59      22.6  T
   6    -43.6938923 -0.239353E-08  0.329E-04   10.59      62.0  T
     SCC iter.                  ...        0 min,  0.003 sec
     gradient                   ...        0 min,  0.006 sec
 * total energy  :   -43.3924047 Eh     change       -0.4998020E-03 Eh
   gradient norm :     0.0123609 Eh/α   predicted    -0.4043663E-03 ( -19.09%)
   displ. norm   :     0.2196670 α      lambda       -0.3596579E-03
   maximum displ.:     0.1229548 α      in ANC's #2, #3, #4, ...

........................................................................
.............................. CYCLE    6 ..............................
........................................................................

 iter      E             dE          RMSdq      gap      omega  full diag
   1    -43.6942730 -0.436943E+02  0.679E-02   10.56       0.0  T
   2    -43.6942739 -0.960864E-06  0.412E-02   10.56       1.0  T
   3    -43.6942742 -0.262858E-06  0.405E-03   10.56       5.0  T
   4    -43.6942744 -0.171845E-06  0.195E-03   10.56      10.5  T
   5    -43.6942744 -0.825553E-08  0.636E-04   10.56      32.1  T
   6    -43.6942744 -0.124773E-08  0.229E-04   10.56      89.2  T
     SCC iter.                  ...        0 min,  0.003 sec
     gradient                   ...        0 min,  0.006 sec
 * total energy  :   -43.3926728 Eh     change       -0.2680862E-03 Eh
   gradient norm :     0.0089909 Eh/α   predicted    -0.1885988E-03 ( -29.65%)
   displ. norm   :     0.1984405 α      lambda       -0.3032945E-03
   maximum displ.:     0.1071189 α      in ANC's #2, #3, #1, ...

........................................................................
.............................. CYCLE    7 ..............................
........................................................................

 iter      E             dE          RMSdq      gap      omega  full diag
   1    -43.6963440 -0.436963E+02  0.673E-02   10.52       0.0  T
   2    -43.6963447 -0.707758E-06  0.407E-02   10.52       1.0  T
   3    -43.6963451 -0.341945E-06  0.305E-03   10.52       6.7  T
   4    -43.6963451 -0.476975E-07  0.182E-03   10.52      11.2  T
   5    -43.6963451 -0.758659E-08  0.599E-04   10.52      34.1  T
   6    -43.6963451 -0.106775E-08  0.208E-04   10.52      98.2  T
     SCC iter.                  ...        0 min,  0.003 sec
     gradient                   ...        0 min,  0.006 sec
 * total energy  :   -43.3928752 Eh     change       -0.2024631E-03 Eh
   gradient norm :     0.0043187 Eh/α   predicted    -0.1576225E-03 ( -22.15%)
   displ. norm   :     0.1134424 α      lambda       -0.8343339E-04
   maximum displ.:     0.0585595 α      in ANC's #2, #3, #1, ...

........................................................................
.............................. CYCLE    8 ..............................
........................................................................

 iter      E             dE          RMSdq      gap      omega  full diag
   1    -43.6972783 -0.436973E+02  0.393E-02   10.51       0.0  T
   2    -43.6972785 -0.233404E-06  0.238E-02   10.51       1.0  T
   3    -43.6972786 -0.112930E-06  0.161E-03   10.51      12.7  T
   4    -43.6972786 -0.584144E-08  0.867E-04   10.51      23.5  T
   5    -43.6972786 -0.136947E-08  0.321E-04   10.51      63.5  T
     SCC iter.                  ...        0 min,  0.003 sec
     gradient                   ...        0 min,  0.006 sec
 * total energy  :   -43.3929284 Eh     change       -0.5316520E-04 Eh
   gradient norm :     0.0028777 Eh/α   predicted    -0.4226645E-04 ( -20.50%)
   displ. norm   :     0.0409875 α      lambda       -0.2414390E-04
   maximum displ.:     0.0248486 α      in ANC's #2, #3, #1, ...

........................................................................
.............................. CYCLE    9 ..............................
........................................................................

 iter      E             dE          RMSdq      gap      omega  full diag
   1    -43.6983649 -0.436984E+02  0.153E-02   10.51       0.0  T
   2    -43.6983650 -0.741126E-07  0.927E-03   10.51       2.2  T
   3    -43.6983650 -0.229411E-07  0.986E-04   10.51      20.7  T
   4    -43.6983650 -0.663771E-08  0.513E-04   10.51      39.8  T
     SCC iter.                  ...        0 min,  0.002 sec
     gradient                   ...        0 min,  0.006 sec
 * total energy  :   -43.3929401 Eh     change       -0.1171834E-04 Eh
   gradient norm :     0.0025273 Eh/α   predicted    -0.1209856E-04 (   3.24%)
   displ. norm   :     0.0806631 α      lambda       -0.2471067E-04
   maximum displ.:     0.0417910 α      in ANC's #2, #3, #16, ...

........................................................................
.............................. CYCLE   10 ..............................
........................................................................

 iter      E             dE          RMSdq      gap      omega  full diag
   1    -43.6977868 -0.436978E+02  0.277E-02   10.50       0.0  T
   2    -43.6977870 -0.198644E-06  0.170E-02   10.50       1.2  T
   3    -43.6977871 -0.720148E-07  0.142E-03   10.50      14.4  T
   4    -43.6977871 -0.928510E-08  0.760E-04   10.50      26.9  T
   5    -43.6977871 -0.140017E-08  0.328E-04   10.50      62.2  T
     SCC iter.                  ...        0 min,  0.003 sec
     gradient                   ...        0 min,  0.007 sec
 * total energy  :   -43.3929419 Eh     change       -0.1790127E-05 Eh
   gradient norm :     0.0042279 Eh/α   predicted    -0.1244397E-04 ( 595.14%)
   displ. norm   :     0.0347185 α      lambda       -0.2102823E-04
   maximum displ.:     0.0177775 α      in ANC's #2, #3, #4, ...

........................................................................
.............................. CYCLE   11 ..............................
........................................................................

 iter      E             dE          RMSdq      gap      omega  full diag
   1    -43.6978010 -0.436978E+02  0.122E-02   10.51       0.0  T
   2    -43.6978010 -0.305769E-07  0.741E-03   10.51       2.8  T
   3    -43.6978010 -0.200039E-07  0.639E-04   10.51      31.9  T
   4    -43.6978010 -0.890907E-09  0.366E-04   10.51      55.8  T
     SCC iter.                  ...        0 min,  0.002 sec
     gradient                   ...        0 min,  0.006 sec
 * total energy  :   -43.3929535 Eh     change       -0.1156773E-04 Eh
   gradient norm :     0.0011576 Eh/α   predicted    -0.1053047E-04 (  -8.97%)
   displ. norm   :     0.0369484 α      lambda       -0.7338348E-05
   maximum displ.:     0.0193380 α      in ANC's #1, #3, #4, ...

........................................................................
.............................. CYCLE   12 ..............................
........................................................................

 iter      E             dE          RMSdq      gap      omega  full diag
   1    -43.6979739 -0.436980E+02  0.124E-02   10.51       0.0  T
   2    -43.6979740 -0.277338E-07  0.752E-03   10.51       2.7  T
   3    -43.6979740 -0.128295E-07  0.609E-04   10.51      33.5  T
   4    -43.6979740 -0.130985E-08  0.354E-04   10.51      57.6  T
     SCC iter.                  ...        0 min,  0.002 sec
     gradient                   ...        0 min,  0.006 sec
 * total energy  :   -43.3929600 Eh     change       -0.6462959E-05 Eh
   gradient norm :     0.0017986 Eh/α   predicted    -0.3681609E-05 ( -43.04%)
   displ. norm   :     0.0379989 α      lambda       -0.9617775E-05
   maximum displ.:     0.0191525 α      in ANC's #1, #7, #16, ...

........................................................................
.............................. CYCLE   13 ..............................
........................................................................

 iter      E             dE          RMSdq      gap      omega  full diag
   1    -43.6975463 -0.436975E+02  0.160E-02   10.50       0.0  T
   2    -43.6975464 -0.590066E-07  0.980E-03   10.50       2.1  T
   3    -43.6975464 -0.224011E-07  0.852E-04   10.50      24.0  T
   4    -43.6975464 -0.319091E-08  0.434E-04   10.50      47.0  T
     SCC iter.                  ...        0 min,  0.002 sec
     gradient                   ...        0 min,  0.006 sec
 * total energy  :   -43.3929683 Eh     change       -0.8316131E-05 Eh
   gradient norm :     0.0010852 Eh/α   predicted    -0.4816944E-05 ( -42.08%)
   displ. norm   :     0.0322607 α      lambda       -0.5692889E-05
   maximum displ.:     0.0198149 α      in ANC's #1, #7, #16, ...

........................................................................
.............................. CYCLE   14 ..............................
........................................................................

 iter      E             dE          RMSdq      gap      omega  full diag
   1    -43.6975134 -0.436975E+02  0.110E-02   10.50       0.0  T
   2    -43.6975134 -0.257242E-07  0.674E-03   10.50       3.0  T
   3    -43.6975134 -0.113508E-07  0.543E-04   10.50      37.6  T
   4    -43.6975134 -0.105945E-08  0.287E-04   10.50      71.0  T
     SCC iter.                  ...        0 min,  0.002 sec
     gradient                   ...        0 min,  0.006 sec
 * total energy  :   -43.3929729 Eh     change       -0.4649905E-05 Eh
   gradient norm :     0.0014468 Eh/α   predicted    -0.2848796E-05 ( -38.73%)
   displ. norm   :     0.0274060 α      lambda       -0.4165017E-05
   maximum displ.:     0.0202128 α      in ANC's #1, #3, #7, ...

........................................................................
.............................. CYCLE   15 ..............................
........................................................................

 iter      E             dE          RMSdq      gap      omega  full diag
   1    -43.6976858 -0.436977E+02  0.822E-03   10.50       0.0  T
   2    -43.6976858 -0.240021E-07  0.503E-03   10.50       4.1  T
   3    -43.6976858 -0.317399E-08  0.614E-04   10.50      33.2  T
   4    -43.6976858 -0.401248E-08  0.245E-04   10.50      83.4  T
     SCC iter.                  ...        0 min,  0.002 sec
     gradient                   ...        0 min,  0.006 sec
 * total energy  :   -43.3929769 Eh     change       -0.3935644E-05 Eh
   gradient norm :     0.0010176 Eh/α   predicted    -0.2108311E-05 ( -46.43%)
   displ. norm   :     0.0295136 α      lambda       -0.3509548E-05
   maximum displ.:     0.0222544 α      in ANC's #1, #4, #11, ...

........................................................................
.............................. CYCLE   16 ..............................
........................................................................

 iter      E             dE          RMSdq      gap      omega  full diag
   1    -43.6977030 -0.436977E+02  0.855E-03   10.50       0.0  T
   2    -43.6977030 -0.201970E-07  0.517E-03   10.50       4.0  T
   3    -43.6977030 -0.993808E-09  0.554E-04   10.50      36.8  T
   4    -43.6977030 -0.356133E-08  0.190E-04   10.50     107.5  T
     SCC iter.                  ...        0 min,  0.002 sec
     gradient                   ...        0 min,  0.006 sec
 * total energy  :   -43.3929802 Eh     change       -0.3376009E-05 Eh
   gradient norm :     0.0006580 Eh/α   predicted    -0.1759044E-05 ( -47.90%)
   displ. norm   :     0.0276232 α      lambda       -0.2063770E-05
   maximum displ.:     0.0168644 α      in ANC's #1, #4, #11, ...

........................................................................
.............................. CYCLE   17 ..............................
........................................................................

 iter      E             dE          RMSdq      gap      omega  full diag
   1    -43.6976832 -0.436977E+02  0.786E-03   10.50       0.0  T
   2    -43.6976832 -0.100395E-07  0.476E-03   10.50       4.3  T
   3    -43.6976832 -0.267222E-08  0.321E-04   10.50      63.6  T
   4    -43.6976832 -0.667079E-09  0.166E-04   10.50     122.9  T
     SCC iter.                  ...        0 min,  0.002 sec
     gradient                   ...        0 min,  0.006 sec
 * total energy  :   -43.3929821 Eh     change       -0.1888531E-05 Eh
   gradient norm :     0.0003768 Eh/α   predicted    -0.1036007E-05 ( -45.14%)
   displ. norm   :     0.0127152 α      lambda       -0.6186925E-06
   maximum displ.:     0.0082908 α      in ANC's #1, #4, #3, ...

........................................................................
.............................. CYCLE   18 ..............................
........................................................................

 iter      E             dE          RMSdq      gap      omega  full diag
   1    -43.6976491 -0.436976E+02  0.368E-03   10.50       0.0  T
   2    -43.6976491 -0.331710E-08  0.221E-03   10.50       9.2  T
   3    -43.6976491 -0.454861E-09  0.233E-04   10.50      87.7  T
   4    -43.6976491 -0.532118E-09  0.937E-05   10.50     217.8  T
     SCC iter.                  ...        0 min,  0.002 sec
     gradient                   ...        0 min,  0.006 sec
 * total energy  :   -43.3929827 Eh     change       -0.5973360E-06 Eh
   gradient norm :     0.0002223 Eh/α   predicted    -0.3112518E-06 ( -47.89%)
   displ. norm   :     0.0108514 α      lambda        0.1218234E-06
   maximum displ.:     0.0070461 α      in ANC's #1, #4, #11, ...

........................................................................
.............................. CYCLE   19 ..............................
........................................................................

 iter      E             dE          RMSdq      gap      omega  full diag
   1    -43.6976172 -0.436976E+02  0.321E-03   10.50       0.0  T
   2    -43.6976172 -0.255999E-08  0.193E-03   10.50      10.6  T
   3    -43.6976172 -0.359513E-09  0.206E-04   10.50      99.2  T
   4    -43.6976172 -0.416456E-09  0.836E-05   10.50     244.2  T
     SCC iter.                  ...        0 min,  0.002 sec
     gradient                   ...        0 min,  0.006 sec
 * total energy  :   -43.3929826 Eh     change        0.7724525E-07 Eh
   gradient norm :     0.0004525 Eh/α   predicted     0.5710355E-07 ( -26.07%)
   displ. norm   :     0.0061077 α      lambda       -0.3715011E-06
   maximum displ.:     0.0036793 α      in ANC's #2, #4, #11, ...

........................................................................
.............................. CYCLE   20 ..............................
........................................................................

 iter      E             dE          RMSdq      gap      omega  full diag
   1    -43.6976792 -0.436977E+02  0.249E-03   10.50       0.0  T
   2    -43.6976792 -0.116513E-08  0.151E-03   10.50      13.5  T
   3    -43.6976792 -0.195747E-09  0.125E-04   10.50     163.8  T
   4    -43.6976792 -0.174879E-09  0.561E-05   10.50     363.6  T
     SCC iter.                  ...        0 min,  0.002 sec
     gradient                   ...        0 min,  0.006 sec
 * total energy  :   -43.3929830 Eh     change       -0.3208763E-06 Eh
   gradient norm :     0.0002478 Eh/α   predicted    -0.1907318E-06 ( -40.56%)
   displ. norm   :     0.0042373 α      lambda       -0.1372792E-06
   maximum displ.:     0.0023125 α      in ANC's #4, #11, #2, ...
 * RMSD in coord.:     0.2830375 α      energy gain  -0.5837973E-02 Eh

generating ANC from exact Hessian ...
Using Lindh-Hessian (1995)
 Shifting diagonal of input Hessian by   7.311761504022474E-003
 Lowest  eigenvalues of input Hessian
    0.000000    0.000000    0.000000    0.000000    0.000000    0.000000
    0.010000    0.011204    0.013204    0.014212    0.015926    0.021555
    0.023505    0.025019    0.026533    0.030302    0.033359    0.038098
 Highest eigenvalues
    1.474005    1.507169    1.517115    1.520308    1.562709    1.675962
 

........................................................................
.............................. CYCLE   21 ..............................
........................................................................

 iter      E             dE          RMSdq      gap      omega  full diag
   1    -43.6976425 -0.436976E+02  0.166E-03   10.50       0.0  T
   2    -43.6976425 -0.686917E-09  0.101E-03   10.50      20.2  T
   3    -43.6976425 -0.181068E-09  0.938E-05   10.50     217.5  T
   4    -43.6976425 -0.666560E-10  0.452E-05   10.50     451.2  T
     SCC iter.                  ...        0 min,  0.002 sec
     gradient                   ...        0 min,  0.006 sec
 * total energy  :   -43.3929831 Eh     change       -0.1290854E-06 Eh
   gradient norm :     0.0001443 Eh/α   predicted     0.0000000E+00 (-100.00%)
   displ. norm   :     0.0026892 α      lambda       -0.1829271E-07
   maximum displ.:     0.0019579 α      in ANC's #2, #6, #1, ...

........................................................................
.............................. CYCLE   22 ..............................
........................................................................

 iter      E             dE          RMSdq      gap      omega  full diag
   1    -43.6976510 -0.436977E+02  0.912E-04   10.50       0.0  T
   2    -43.6976510 -0.236241E-09  0.559E-04   10.50      36.5  T
   3    -43.6976510 -0.957527E-10  0.546E-05   10.50     373.6  T
     SCC iter.                  ...        0 min,  0.002 sec
     gradient                   ...        0 min,  0.006 sec
 * total energy  :   -43.3929832 Eh     change       -0.9287935E-07 Eh
   gradient norm :     0.0000498 Eh/α   predicted    -0.3920774E-07 ( -57.79%)
   displ. norm   :     0.0068789 α      lambda       -0.1154807E-06
   maximum displ.:     0.0048607 α      in ANC's #2, #6, #1, ...

   *** GEOMETRY OPTIMIZATION CONVERGED AFTER 22 ITERATIONS ***

------------------------------------------------------------------------
 total energy gain   :        -0.0058382 Eh       -3.6635 kcal/mol
 total RMSD          :         0.2829241 a0        0.1497 Å
 total power (kW/mol):        -0.6967354 (step)  -50.3104 (real)
------------------------------------------------------------------------

 ANCopt (total)                0 d,  0 h,  0 min,  0.305 sec
 optimizer setup                ...        0 min,  0.000 sec (  0.098%)
 model hessian                  ...        0 min,  0.021 sec (  6.893%)
 ANC generation                 ...        0 min,  0.001 sec (  0.256%)
 coordinate transformation      ...        0 min,  0.000 sec (  0.037%)
 single point calculation       ...        0 min,  0.273 sec ( 89.750%)
 optimization log               ...        0 min,  0.007 sec (  2.350%)
 hessian update                 ...        0 min,  0.000 sec (  0.040%)
 rational function              ...        0 min,  0.001 sec (  0.332%)

================
 final structure:
================
$coord
       -4.84359680417637       -1.64028329032053        0.52032398517023      C
       -2.14470781442645       -0.80947428751142        1.18293958284271      C
       -1.95604861023676       -0.66661956702884        3.24926835856784      H
       -1.55191070876769        1.79092098987831        0.04544212492404      C
       -1.98763469939701        1.75413848596420       -1.98726587588278      H
        1.25887647121578        2.42416929393822        0.37048958559272      C
        1.65455499808366        2.69082170515196        2.39839014576199      H
        2.90555569790198        0.25022282991940       -0.59082964832275      C
        2.63227085500597        0.03325420861410       -2.64038784456401      H
        2.07307415944570       -2.21891210570561        0.68828129740733      C
        2.39526363725024       -2.04437469725791        2.75555287878275      H
       -0.50313553459715       -2.70011223984472        0.24028387914926      O
        3.47012079839743       -4.17166927439350       -0.33124943784960      O
        5.43283595699468        0.83280274719065       -0.02901891870637      O
        1.73533014988184        4.67831917504579       -0.95256641451266      O
       -3.07483830662357        3.56786883421055        1.29596623367919      O
       -5.17401246782693       -1.98813843748455       -2.08628869265026      O
       -6.14730841527975       -0.15159727503837        1.09602905863927      H
       -5.27551596302648       -3.38502175414875        1.55161838423775      H
        2.77463215597626       -5.78311778174788        0.19717163754299      H
        6.49620235411084       -0.56582551292690       -0.54309012322368      H
        3.53395524417838        5.01465282701206       -0.90117520418736      H
       -2.67249993642945        5.22914090794488        0.63770315083114      H
       -3.97224548691300       -3.24875042469930       -2.65020935502733      H
$end
 
 Bond Distances (Angstroems)
 ---------------------------
C1-C2=1.5349         C1-O17=1.4025        C1-H18=1.0906        C1-H19=1.0966        C2-C1=1.5349         C2-H3=1.1006         
C2-C4=1.5344         C2-O12=1.4158        H3-C2=1.1006         C4-C2=1.5344         C4-H5=1.1003         C4-C6=1.5344         
C4-O16=1.4041        H5-C4=1.1003         C6-C4=1.5344         C6-H7=1.1024         C6-C8=1.5302         C6-O15=1.4059        
H7-C6=1.1024         C8-C6=1.5302         C8-H9=1.1002         C8-C10=1.5361        C8-O14=1.4043        H9-C8=1.1002         
C10-C8=1.5361        C10-H11=1.1110       C10-O12=1.4070       C10-O13=1.3804       H11-C10=1.1110       O12-C2=1.4158        
O12-C10=1.4070       O13-C10=1.3804       O13-H20=0.9700       O14-C8=1.4043        O14-H21=0.9687       O15-C6=1.4059        
O15-H22=0.9687       O16-C4=1.4041        O16-H23=0.9693       O17-C1=1.4025        O17-H24=0.9688       H18-C1=1.0906        
H19-C1=1.0966        H20-O13=0.9700       H21-O14=0.9687       H22-O15=0.9687       H23-O16=0.9693       H24-O17=0.9688       
 C  H  Rav=1.1002 sigma=0.0057  Rmin=1.0906  Rmax=1.1110     7
 C  C  Rav=1.5340 sigma=0.0020  Rmin=1.5302  Rmax=1.5361     5
 O  H  Rav=0.9691 sigma=0.0005  Rmin=0.9687  Rmax=0.9700     5
 O  C  Rav=1.4029 sigma=0.0100  Rmin=1.3804  Rmax=1.4158     7
 
 selected bond angles (degree)
 --------------------
O17-C1-C2=112.23               H18-C1-C2=108.54               H18-C1-O17=106.90              H19-C1-C2=108.75               
H19-C1-O17=110.67              H19-C1-H18=109.71              H3-C2-C1=109.33                C4-C2-C1=110.95                
C4-C2-H3=108.04                O12-C2-C1=106.74               O12-C2-H3=110.06               O12-C2-C4=111.72               
H5-C4-C2=108.95                C6-C4-C2=110.49                C6-C4-H5=108.46                O16-C4-C2=107.36               
O16-C4-H5=110.63               O16-C4-C6=110.93               H7-C6-C4=108.74                C8-C6-C4=110.52                
C8-C6-H7=108.16                O15-C6-C4=107.66               O15-C6-H7=110.00               O15-C6-C8=111.73               
H9-C8-C6=109.35                C10-C8-C6=109.25               C10-C8-H9=107.94               O14-C8-C6=107.87               
O14-C8-H9=110.90               O14-C8-C10=111.50              H11-C10-C8=108.61              O12-C10-C8=110.95              
O12-C10-H11=109.25             O13-C10-C8=108.12              O13-C10-H11=111.40             O13-C10-O12=108.52             
 
 selected dihedral angles (degree)
 ---------------------------------
H3-C2-C1-O17=183.14           H3-C2-C1-H18= 65.22           H3-C2-C1-H19=305.91           C4-C2-C1-O17= 64.08           
C4-C2-C1-H18=306.17           C4-C2-C1-H19=186.86           O12-C2-C1-O17=302.15          O12-C2-C1-H18=184.23          
O12-C2-C1-H19= 64.92          H5-C4-C2-C1=307.65            H5-C4-C2-H3=187.82            H5-C4-C2-O12= 66.62           
C6-C4-C2-C1=188.59            C6-C4-C2-H3= 68.76            C6-C4-C2-O12=307.56           O16-C4-C2-C1= 67.49           
O16-C4-C2-H3=307.66           O16-C4-C2-O12=186.47          H7-C6-C4-C2=292.59            H7-C6-C4-H5=173.22            
H7-C6-C4-O16= 51.53           C8-C6-C4-C2= 51.17            C8-C6-C4-H5=291.80            C8-C6-C4-O16=170.11           
O15-C6-C4-C2=173.44           O15-C6-C4-H5= 54.08           O15-C6-C4-O16=292.39          H9-C8-C6-C4= 64.75            
H9-C8-C6-H7=183.68            H9-C8-C6-O15=304.90           C10-C8-C6-C4=306.83           C10-C8-C6-H7= 65.76           
C10-C8-C6-O15=186.97          O14-C8-C6-C4=185.46           O14-C8-C6-H7=304.38           O14-C8-C6-O15= 65.60          
H11-C10-C8-C6=297.11          H11-C10-C8-H9=178.30          H11-C10-C8-O14= 56.25         O12-C10-C8-C6= 57.20          
O12-C10-C8-H9=298.39          O12-C10-C8-O14=176.34         O13-C10-C8-C6=176.09          O13-C10-C8-H9= 57.28          
O13-C10-C8-O14=295.23         
           -------------------------------------------------
          |                Final Singlepoint                |
           -------------------------------------------------

          ...................................................
          :                      SETUP                      :
          :.................................................:
          :  # basis functions                  60          :
          :  # atomic orbitals                  60          :
          :  # shells                           36          :
          :  # electrons                        72          :
          :  max. iterations                   250          :
          :  Hamiltonian                  GFN2-xTB          :
          :  restarted?                      false          :
          :  GBSA solvation                   true          :
          :  PC potential                    false          :
          :  electronic temp.          300.0000000     K    :
          :  accuracy                    1.0000000          :
          :  -> integral cutoff          0.2500000E+02      :
          :  -> integral neglect         0.1000000E-07      :
          :  -> SCF convergence          0.1000000E-05 Eh   :
          :  -> wf. convergence          0.1000000E-03 e    :
          :  Broyden damping             0.4000000          :
          :  net charge                          0          :
          :  unpaired electrons                  0          :
          ...................................................

 iter      E             dE          RMSdq      gap      omega  full diag
   1    -43.6976510 -0.436977E+02  0.299E-05   10.50       0.0  T
   2    -43.6976510 -0.182609E-11  0.195E-05   10.50    1047.4  T
   3    -43.6976510 -0.653699E-12  0.705E-06   10.50    2894.1  T

   *** convergence criteria satisfied after 3 iterations ***

         #    Occupation            Energy/Eh            Energy/eV
      -------------------------------------------------------------
         1        2.0000           -0.7347036             -19.9923
       ...           ...                  ...                  ...
        30        2.0000           -0.4565944             -12.4246
        31        2.0000           -0.4513208             -12.2811
        32        2.0000           -0.4442416             -12.0884
        33        2.0000           -0.4258889             -11.5890
        34        2.0000           -0.4193855             -11.4121
        35        2.0000           -0.4181597             -11.3787
        36        2.0000           -0.4120989             -11.2138 (HOMO)
        37                         -0.0261814              -0.7124 (LUMO)
        38                         -0.0022907              -0.0623
        39                          0.0154221               0.4197
        40                          0.0396813               1.0798
        41                          0.0556553               1.5145
       ...                                ...                  ...
        60                          0.2821538               7.6778
      -------------------------------------------------------------
                  HL-Gap            0.3859175 Eh           10.5013 eV
             Fermi-level           -0.2191401 Eh           -5.9631 eV

 SCC (total)                   0 d,  0 h,  0 min,  0.012 sec
 SCC setup                      ...        0 min,  0.001 sec ( 10.647%)
 Dispersion                     ...        0 min,  0.000 sec (  0.620%)
 classical contributions        ...        0 min,  0.000 sec (  0.180%)
 integral evaluation            ...        0 min,  0.002 sec ( 18.636%)
 iterations                     ...        0 min,  0.002 sec ( 17.251%)
 molecular gradient             ...        0 min,  0.006 sec ( 51.737%)
 printout                       ...        0 min,  0.000 sec (  0.815%)

         :::::::::::::::::::::::::::::::::::::::::::::::::::::
         ::                     SUMMARY                     ::
         :::::::::::::::::::::::::::::::::::::::::::::::::::::
         :: total energy             -43.392983181554 Eh    ::
         :: total w/o Gsasa/hb       -43.370926243852 Eh    ::
         :: gradient norm              0.000050321061 Eh/a0 ::
         :: HOMO-LUMO gap             10.501349165242 eV    ::
         ::.................................................::
         :: SCC energy               -43.697491306366 Eh    ::
         :: -> isotropic ES            0.166328004061 Eh    ::
         :: -> anisotropic ES         -0.009757419592 Eh    ::
         :: -> anisotropic XC         -0.010569392352 Eh    ::
         :: -> dispersion             -0.019069047421 Eh    ::
         :: -> Gsolv                  -0.037696473779 Eh    ::
         ::    -> Gelec               -0.015639536076 Eh    ::
         ::    -> Gsasa                0.004630028065 Eh    ::
         ::    -> Ghb                 -0.027767725466 Eh    ::
         ::    -> Gshift               0.001080759698 Eh    ::
         :: repulsion energy           0.304508124812 Eh    ::
         :: add. restraining           0.000000000000 Eh    ::
         :: total charge               0.000000000000 e     ::
         :::::::::::::::::::::::::::::::::::::::::::::::::::::

           ------------------------------------------------- 
          |                Numerical Hessian                |
           ------------------------------------------------- 
step length          :   0.00500
SCC accuracy         :   0.30000
Hessian scale factor :   1.00000
frozen atoms in %    :   0.00000    0
RMS gradient         :   0.00005
estimated CPU  time      0.03 min
estimated wall time      0.03 min

writing file <hessian>.

 projected vibrational frequencies (cm⁻¹)
eigval :       -0.00    -0.00    -0.00     0.00     0.00     0.00
eigval :       61.76    78.72   100.06   128.69   213.89   222.94
eigval :      234.58   245.17   262.32   287.98   308.83   352.43
eigval :      357.81   381.76   386.64   402.72   409.03   434.62
eigval :      507.89   530.59   565.50   607.61   676.90   909.31
eigval :      930.36  1001.76  1011.85  1030.51  1040.79  1051.76
eigval :     1069.27  1088.10  1092.63  1107.49  1128.95  1136.85
eigval :     1156.75  1180.58  1190.30  1193.05  1205.45  1247.06
eigval :     1250.83  1266.65  1274.68  1292.58  1299.68  1311.02
eigval :     1320.31  1334.67  1343.50  1348.00  1353.92  1445.58
eigval :     2749.51  2854.06  2864.97  2881.17  2886.14  2903.83
eigval :     3005.49  3447.95  3463.87  3469.14  3470.77  3474.54
           -------------------------------------------------
          |                Property Printout                |
           -------------------------------------------------

    * Orbital Energies and Occupations

         #    Occupation            Energy/Eh            Energy/eV
      -------------------------------------------------------------
         1        2.0000           -0.7347036             -19.9923
       ...           ...                  ...                  ...
        24        2.0000           -0.5161935             -14.0463
        25        2.0000           -0.5090172             -13.8511
        26        2.0000           -0.5033484             -13.6968
        27        2.0000           -0.4927752             -13.4091
        28        2.0000           -0.4819224             -13.1138
        29        2.0000           -0.4698549             -12.7854
        30        2.0000           -0.4565944             -12.4246
        31        2.0000           -0.4513208             -12.2811
        32        2.0000           -0.4442416             -12.0884
        33        2.0000           -0.4258889             -11.5890
        34        2.0000           -0.4193855             -11.4121
        35        2.0000           -0.4181597             -11.3787
        36        2.0000           -0.4120988             -11.2138 (HOMO)
        37                         -0.0261814              -0.7124 (LUMO)
        38                         -0.0022907              -0.0623
        39                          0.0154221               0.4197
        40                          0.0396813               1.0798
        41                          0.0556553               1.5145
        42                          0.0688254               1.8728
        43                          0.0775521               2.1103
        44                          0.0896649               2.4399
        45                          0.1065375               2.8990
        46                          0.1160197               3.1571
        47                          0.1242542               3.3811
       ...                                ...                  ...
        60                          0.2821538               7.6778
      -------------------------------------------------------------
                  HL-Gap            0.3859175 Eh           10.5013 eV
             Fermi-level           -0.2191401 Eh           -5.9631 eV

     #   Z          covCN         q      C6AA      α(0)
     1   6 C        3.676     0.068    19.661     6.353
     2   6 C        3.750     0.095    19.065     6.227
     3   1 H        0.923     0.036     2.509     2.477
     4   6 C        3.729     0.098    19.051     6.231
     5   1 H        0.923     0.044     2.398     2.422
     6   6 C        3.730     0.099    19.034     6.228
     7   1 H        0.923     0.030     2.585     2.514
     8   6 C        3.727     0.090    19.190     6.254
     9   1 H        0.923     0.041     2.440     2.443
    10   6 C        3.627     0.241    17.223     5.978
    11   1 H        0.921     0.003     3.001     2.709
    12   8 O        1.701    -0.361    20.098     6.053
    13   8 O        1.658    -0.493    22.748     6.439
    14   8 O        1.656    -0.499    22.878     6.457
    15   8 O        1.656    -0.500    22.896     6.459
    16   8 O        1.656    -0.500    22.883     6.458
    17   8 O        1.655    -0.492    22.728     6.436
    18   1 H        0.924     0.076     2.019     2.222
    19   1 H        0.924     0.049     2.336     2.390
    20   1 H        0.804     0.398     0.489     1.098
    21   1 H        0.804     0.373     0.538     1.152
    22   1 H        0.804     0.370     0.543     1.157
    23   1 H        0.804     0.374     0.534     1.148
    24   1 H        0.804     0.361     0.564     1.180

 Mol. C6AA /au·bohr⁶  :       4745.385166
 Mol. C8AA /au·bohr⁸  :     100986.644926
 Mol. α(0) /au        :         98.484741


Wiberg/Mayer (AO) data.
largest (>0.10) Wiberg bond orders for each atom

 ---------------------------------------------------------------------------
     #   Z sym  total        # sym  WBO       # sym  WBO       # sym  WBO
 ---------------------------------------------------------------------------
     1   6 C    3.957 --    17 O    1.013     2 C    0.976    18 H    0.967
                            19 H    0.967
     2   6 C    3.941 --     1 C    0.976     4 C    0.970    12 O    0.961
                             3 H    0.957
     3   1 H    0.999 --     2 C    0.957
     4   6 C    3.962 --    16 O    1.002     2 C    0.970     6 C    0.968
                             5 H    0.956
     5   1 H    0.998 --     4 C    0.956
     6   6 C    3.962 --    15 O    0.999     8 C    0.971     4 C    0.968
                             7 H    0.956
     7   1 H    0.999 --     6 C    0.956
     8   6 C    3.961 --    14 O    1.001     6 C    0.971     9 H    0.957
                            10 C    0.953
     9   1 H    0.998 --     8 C    0.957
    10   6 C    3.931 --    13 O    1.021    12 O    0.955     8 C    0.953
                            11 H    0.944
    11   1 H    1.000 --    10 C    0.944
    12   8 O    2.061 --     2 C    0.961    10 C    0.955
    13   8 O    1.935 --    10 C    1.021    20 H    0.824
    14   8 O    1.921 --     8 C    1.001    21 H    0.845
    15   8 O    1.920 --     6 C    0.999    22 H    0.846
    16   8 O    1.918 --     4 C    1.002    23 H    0.844
    17   8 O    1.929 --     1 C    1.013    24 H    0.855
    18   1 H    0.994 --     1 C    0.967
    19   1 H    0.997 --     1 C    0.967
    20   1 H    0.841 --    13 O    0.824
    21   1 H    0.861 --    14 O    0.845
    22   1 H    0.862 --    15 O    0.846
    23   1 H    0.860 --    16 O    0.844
    24   1 H    0.870 --    17 O    0.855
 ---------------------------------------------------------------------------

Topologies differ in total number of bonds
Writing topology from bond orders to xtbtopo.mol

molecular dipole:
                 x           y           z       tot (Debye)
 q only:        0.857      -0.726       0.236
   full:        1.190      -0.952       0.421       4.020
molecular quadrupole (traceless):
                xx          xy          yy          xz          yz          zz
 q only:       -4.449      -0.563       8.292      -3.322      -1.467      -3.843
  q+dip:       -8.957       0.414       9.323      -3.092      -3.016      -0.365
   full:       -8.027       0.000       9.856      -3.594      -2.669      -1.829

           -------------------------------------------------
          |                Geometry Summary                 |
           -------------------------------------------------

      molecular mass/u    :      180.1561339
   center of mass at/Å    :       -0.0000645      -0.0002047       0.0000218
  moments of inertia/u·Å² :        0.4319138E+03   0.6182842E+03   0.9433612E+03
rotational constants/cm⁻¹ :        0.3903009E-01   0.2726518E-01   0.1786975E-01

 * 24 selected distances

     #   Z          #   Z                                           value/Å
     1   6 C        2   6 C                                       1.5349155
     2   6 C        3   1 H                                       1.1006015
     2   6 C        4   6 C                                       1.5343736
     4   6 C        5   1 H                                       1.1002701
     4   6 C        6   6 C                                       1.5343571
     6   6 C        7   1 H                                       1.1024231
     6   6 C        8   6 C                                       1.5302037
     8   6 C        9   1 H                                       1.1001860
     8   6 C       10   6 C                                       1.5360529 (max)
    10   6 C       11   1 H                                       1.1110053
     2   6 C       12   8 O                                       1.4157713
    10   6 C       12   8 O                                       1.4069660
    10   6 C       13   8 O                                       1.3803762
     8   6 C       14   8 O                                       1.4042829
     6   6 C       15   8 O                                       1.4059272
     4   6 C       16   8 O                                       1.4041320
     1   6 C       17   8 O                                       1.4025301
     1   6 C       18   1 H                                       1.0905785
     1   6 C       19   1 H                                       1.0965894
    13   8 O       20   1 H                                       0.9699546
    14   8 O       21   1 H                                       0.9687237
    15   8 O       22   1 H                                       0.9686710 (min)
    16   8 O       23   1 H                                       0.9692776
    17   8 O       24   1 H                                       0.9687548

 * 4 distinct bonds (by element types)

   Z      Z             #   av. dist./Å        max./Å        min./Å
   1 H    6 C           7     1.1002363     1.1110053     1.0905785
   6 C    6 C           5     1.5339806     1.5360529     1.5302037
   1 H    8 O           5     0.9690763     0.9699546     0.9686710
   6 C    8 O           7     1.4028551     1.4157713     1.3803762

           -------------------------------------------------
          |               Frequency Printout                |
           -------------------------------------------------
 projected vibrational frequencies (cm⁻¹)
eigval :       -0.00    -0.00    -0.00     0.00     0.00     0.00
eigval :       61.76    78.72   100.06   128.69   213.89   222.94
eigval :      234.58   245.17   262.32   287.98   308.83   352.43
eigval :      357.81   381.76   386.64   402.72   409.03   434.62
eigval :      507.89   530.59   565.50   607.61   676.90   909.31
eigval :      930.36  1001.76  1011.85  1030.51  1040.79  1051.76
eigval :     1069.27  1088.10  1092.63  1107.49  1128.95  1136.85
eigval :     1156.75  1180.58  1190.30  1193.05  1205.45  1247.06
eigval :     1250.83  1266.65  1274.68  1292.58  1299.68  1311.02
eigval :     1320.31  1334.67  1343.50  1348.00  1353.92  1445.58
eigval :     2749.51  2854.06  2864.97  2881.17  2886.14  2903.83
eigval :     3005.49  3447.95  3463.87  3469.14  3470.77  3474.54
 reduced masses (amu)
   1: 13.33   2: 13.59   3: 13.38   4: 13.77   5: 13.44   6: 13.63   7: 13.95   8: 13.87
   9: 13.94  10: 14.28  11: 12.01  12: 11.54  13: 12.37  14: 10.14  15:  6.21  16: 11.15
  17:  7.25  18:  4.48  19:  3.67  20:  8.41  21:  5.17  22:  7.33  23: 11.61  24: 11.86
  25: 12.51  26: 10.57  27: 11.20  28: 13.38  29: 10.97  30:  6.00  31: 10.13  32:  9.15
  33:  9.17  34:  8.24  35: 10.20  36: 10.78  37:  6.68  38: 11.23  39: 11.05  40: 11.29
  41: 11.74  42: 10.00  43:  5.90  44:  4.76  45:  4.08  46:  3.63  47:  4.67  48:  4.74
  49:  4.58  50:  3.96  51:  3.35  52:  3.10  53:  2.86  54:  3.60  55:  3.57  56:  5.84
  57:  3.76  58:  4.96  59:  5.30  60:  1.77  61:  1.65  62:  1.69  63:  1.69  64:  1.74
  65:  1.75  66:  1.73  67:  1.72  68:  1.87  69:  1.87  70:  1.87  71:  1.88  72:  1.87
 IR intensities (km·mol⁻¹)
   1:  0.05   2:  0.51   3:  0.34   4:  0.49   5:  0.49   6:  0.24   7:  2.54   8:  2.72
   9:  4.55  10:  1.53  11: 13.49  12:  6.57  13:  2.95  14:  2.42  15:189.70  16: 18.64
  17: 42.88  18:159.17  19:146.75  20:222.15  21:174.61  22:229.58  23: 67.90  24: 54.03
  25: 29.10  26:  2.94  27: 37.64  28: 26.43  29:  8.10  30: 18.56  31: 60.91  32: 28.27
  33: 90.48  34: 27.54  35: 53.15  36:130.77  37:150.50  38:343.84  39:248.12  40:129.45
  41:123.67  42: 42.54  43: 41.68  44:106.91  45: 75.20  46: 76.87  47: 11.49  48: 96.51
  49:131.33  50: 22.75  51: 15.83  52: 19.31  53: 74.25  54: 14.86  55: 48.27  56: 14.90
  57:  0.32  58: 18.16  59: 19.07  60:  2.24  61:151.52  62: 53.37  63: 54.07  64: 18.20
  65:209.72  66: 93.33  67: 16.61  68:153.59  69:129.28  70:187.43  71: 51.25  72: 82.79
 Raman intensities (Ä⁴*amu⁻¹)
   1:  0.00   2:  0.00   3:  0.00   4:  0.00   5:  0.00   6:  0.00   7:  0.00   8:  0.00
   9:  0.00  10:  0.00  11:  0.00  12:  0.00  13:  0.00  14:  0.00  15:  0.00  16:  0.00
  17:  0.00  18:  0.00  19:  0.00  20:  0.00  21:  0.00  22:  0.00  23:  0.00  24:  0.00
  25:  0.00  26:  0.00  27:  0.00  28:  0.00  29:  0.00  30:  0.00  31:  0.00  32:  0.00
  33:  0.00  34:  0.00  35:  0.00  36:  0.00  37:  0.00  38:  0.00  39:  0.00  40:  0.00
  41:  0.00  42:  0.00  43:  0.00  44:  0.00  45:  0.00  46:  0.00  47:  0.00  48:  0.00
  49:  0.00  50:  0.00  51:  0.00  52:  0.00  53:  0.00  54:  0.00  55:  0.00  56:  0.00
  57:  0.00  58:  0.00  59:  0.00  60:  0.00  61:  0.00  62:  0.00  63:  0.00  64:  0.00
  65:  0.00  66:  0.00  67:  0.00  68:  0.00  69:  0.00  70:  0.00  71:  0.00  72:  0.00
 output can be read by thermo (or use thermo option).
 writing <g98.out> molden fake output.
 recommended (thermochemical) frequency scaling factor: 1.0
           -------------------------------------------------
          |             Thermodynamic Functions             |
           -------------------------------------------------

Molecule has no symmetry elements
It seems to be the C1 point group
c1  symmetry found (for desy threshold:  0.10E+00) used in thermo

          ...................................................
          :                      SETUP                      :
          :.................................................:
          :  # frequencies                          66      :
          :  # imaginary freq.                       0      :
          :  linear?                             false      :
          :  only rotor calc.                    false      :
          :  symmetry                               c1      :
          :  rotational number                       1      :
          :  scaling factor                  1.0000000      :
          :  rotor cutoff                    0.0000000 cm⁻¹ :
          :  imag. cutoff                 -100.0000000 cm⁻¹ :
          :.................................................:

    mode    ω/cm⁻¹     T·S(HO)/kcal·mol⁻¹    T·S(FR)/kcal·mol⁻¹   T·S(vib)
   ------------------------------------------------------------------------
       1     61.76    -1.31194 (100.00%)    -0.99387 (  0.00%)    -1.31194
       2     78.72    -1.16954 (100.00%)    -0.92202 (  0.00%)    -1.16954
       3    100.06    -1.02957 (100.00%)    -0.85097 (  0.00%)    -1.02957
       4    128.69    -0.88415 (100.00%)    -0.77642 (  0.00%)    -0.88415
       5    213.89    -0.59934 (100.00%)    -0.62594 (  0.00%)    -0.59934
       6    222.94    -0.57694 (100.00%)    -0.61367 (  0.00%)    -0.57694
       7    234.58    -0.54967 (100.00%)    -0.59859 (  0.00%)    -0.54967
       8    245.17    -0.52625 (100.00%)    -0.58552 (  0.00%)    -0.52625
       9    262.32    -0.49083 (100.00%)    -0.56548 (  0.00%)    -0.49083
      10    287.98    -0.44299 (100.00%)    -0.53784 (  0.00%)    -0.44299
   ------------------------------------------------------------------------

   temp. (K)  partition function   enthalpy   heat capacity  entropy
                                   cal/mol     cal/K/mol   cal/K/mol   J/K/mol
 298.15  VIB  0.426E+04             6370.236     43.237     37.975
         ROT  0.121E+07              888.752      2.981     30.819
         INT  0.517E+10             7258.989     46.218     68.793
         TR   0.234E+28             1481.254      4.968     41.454
         TOT                        8740.2425    51.1860   110.2472   461.2741

       T/K    H(0)-H(T)+PV         H(T)/Eh          T*S/Eh         G(T)/Eh
   ------------------------------------------------------------------------
    298.15    0.139285E-01    0.200383E+00    0.523820E-01    0.148001E+00
   ------------------------------------------------------------------------

         :::::::::::::::::::::::::::::::::::::::::::::::::::::
         ::                  THERMODYNAMIC                  ::
         :::::::::::::::::::::::::::::::::::::::::::::::::::::
         :: total free energy         -43.244982027294 Eh   ::
         ::.................................................::
         :: total energy              -43.392983181375 Eh   ::
         :: zero point energy           0.186454670985 Eh   ::
         :: G(RRHO) w/o ZPVE           -0.038453516905 Eh   ::
         :: G(RRHO) contrib.            0.148001154081 Eh   ::
         :::::::::::::::::::::::::::::::::::::::::::::::::::::

optimized geometry written to: xtbopt.coord


           -------------------------------------------------
          | TOTAL ENERGY              -43.392983181375 Eh   |
          | TOTAL ENTHALPY            -43.192600047306 Eh   |
          | TOTAL FREE ENERGY         -43.244982027294 Eh   |
          | GRADIENT NORM               0.000050391094 Eh/α |
          | HOMO-LUMO GAP              10.501349498878 eV   |
           -------------------------------------------------

------------------------------------------------------------------------
 * finished run on 2025/04/06 at 19:15:10.940     
------------------------------------------------------------------------
 total:
 * wall-time:     0 d,  0 h,  0 min,  2.278 sec
 *  cpu-time:     0 d,  0 h,  0 min,  2.189 sec
 * ratio c/w:     0.961 speedup
 SCF:
 * wall-time:     0 d,  0 h,  0 min,  0.033 sec
 *  cpu-time:     0 d,  0 h,  0 min,  0.019 sec
 * ratio c/w:     0.573 speedup
 ANC optimizer:
 * wall-time:     0 d,  0 h,  0 min,  0.326 sec
 *  cpu-time:     0 d,  0 h,  0 min,  0.311 sec
 * ratio c/w:     0.954 speedup
 analytical hessian:
 * wall-time:     0 d,  0 h,  0 min,  1.858 sec
 *  cpu-time:     0 d,  0 h,  0 min,  1.847 sec
 * ratio c/w:     0.994 speedup

