
                                 *****************
                                 * O   R   C   A *
                                 *****************

                                            #,                                       
                                            ###                                      
                                            ####                                     
                                            #####                                    
                                            ######                                   
                                           ########,                                 
                                     ,,################,,,,,                         
                               ,,#################################,,                 
                          ,,##########################################,,             
                       ,#########################################, ''#####,          
                    ,#############################################,,   '####,        
                  ,##################################################,,,,####,       
                ,###########''''           ''''###############################       
              ,#####''   ,,,,##########,,,,          '''####'''          '####       
            ,##' ,,,,###########################,,,                        '##       
           ' ,,###''''                  '''############,,,                           
         ,,##''                                '''############,,,,        ,,,,,,###''
      ,#''                                            '''#######################'''  
     '                                                          ''''####''''         
             ,#######,   #######,   ,#######,      ##                                
            ,#'     '#,  ##    ##  ,#'     '#,    #''#        ,####,   ,####,        
            ##       ##  ##   ,#'  ##            #'  '#       #'       #'  '#        
            ##       ##  #######   ##           ,######,      #####,   #    #        
            '#,     ,#'  ##    ##  '#,     ,#' ,#      #,     #,   #   #,  ,#        
             '#######'   ##     ##  '#######'  #'      '#     '####' # '####'        



                #########################################################
                #                        -***-                          #
                #          Department of theory and spectroscopy        #
                #                                                       #
                #                      Frank Neese                      #
                #                                                       #
                #     Directorship, Architecture, Infrastructure        #
                #                    SHARK, DRIVERS                     #
                #        Core code/Algorithms in most modules           #
                #                                                       #
                #        Max Planck Institute fuer Kohlenforschung      #
                #                Kaiser Wilhelm Platz 1                 #
                #                 D-45470 Muelheim/Ruhr                 #
                #                      Germany                          #
                #                                                       #
                #                  All rights reserved                  #
                #                        -***-                          #
                #########################################################


                         Program Version 6.0.0  -   RELEASE  -


 With contributions from (in alphabetic order):
   Daniel Aravena         : Magnetic Suceptibility
   Michael Atanasov       : Ab Initio Ligand Field Theory (pilot matlab implementation)
   Alexander A. Auer      : GIAO ZORA, VPT2 properties, NMR spectrum
   Ute Becker             : All parallelization in ORCA, NUMFREQ, NUMCALC
   Giovanni Bistoni       : ED, misc. LED, open-shell LED, HFLD
   Martin Brehm           : Molecular dynamics
   Dmytro Bykov           : pre 5.0 version of the SCF Hessian
   Marcos Casanova-Páez   : Triplet and SCS-CIS(D). UHF-(DLPNO)-IP/EA/STEOM-CCSD. UHF-CVS-IP/STEOM-CCSD
   Vijay G. Chilkuri      : MRCI spin determinant printing, contributions to CSF-ICE
   Pauline Colinet        : FMM embedding
   Dipayan Datta          : RHF DLPNO-CCSD density
   Achintya Kumar Dutta   : EOM-CC, STEOM-CC
   Nicolas Foglia         : Exact transition moments, OPA infrastructure, MCD improvements
   Dmitry Ganyushin       : Spin-Orbit,Spin-Spin,Magnetic field MRCI
   Miquel Garcia          : C-PCM and meta-GGA Hessian, CCSD/C-PCM, Gaussian charge scheme
   Tiago L. C. Gouveia    : GS-ROHF, GS-ROCIS
   Yang Guo               : DLPNO-NEVPT2, F12-NEVPT2, CIM, IAO-localization
   Andreas Hansen         : Spin unrestricted coupled pair/coupled cluster methods
   Ingolf Harden          : AUTO-CI MPn and infrastructure 
   Benjamin Helmich-Paris : MC-RPA, TRAH-(SCF,CASSCF), AVAS, COSX integrals, SCF dyn. polar.
   Lee Huntington         : MR-EOM, pCC
   Robert Izsak           : Overlap fitted RIJCOSX, COSX-SCS-MP3, EOM
   Riya Kayal             : Wick's Theorem for AUTO-CI, AUTO-CI UHF-CCSDT
   Emily Kempfer          : AUTO-CI, RHF CISDT and CCSDT
   Christian Kollmar      : KDIIS, OOCD, Brueckner-CCSD(T), CCSD density, CASPT2, CASPT2-K, improved NEVPT2
   Axel Koslowski         : Symmetry handling
   Simone Kossmann        : Meta GGA functionals, TD-DFT gradient, OOMP2, (MP2 Hessian; deprecated post 5.0)
   Lucas Lang             : DCDCAS
   Marvin Lechner         : AUTO-CI (C++ implementation), FIC-MRCC
   Spencer Leger          : CASSCF response
   Dagmar Lenk            : GEPOL surface, SMD, ORCA-2-JSON
   Dimitrios Liakos       : Extrapolation schemes; Compound Job, initial MDCI parallelization
   Dimitrios Manganas     : Further ROCIS development; embedding schemes. LFT, Crystal Embedding
   Dimitrios Pantazis     : SARC Basis sets
   Anastasios Papadopoulos: AUTO-CI, single reference methods and gradients
   Taras Petrenko         : pre 6.0 DFT Hessian and TD-DFT gradient, (ASA, deprecated), ECA, 1-Electron XAS/XES, NRVS
   Peter Pinski           : DLPNO-MP2, DLPNO-MP2 Gradient
   Christoph Reimann      : Effective Core Potentials
   Marius Retegan         : Local ZFS, SOC
   Christoph Riplinger    : Optimizer, TS searches, QM/MM, DLPNO-CCSD(T), (RO)-DLPNO pert. Triples
   Michael Roemelt        : Original ROCIS implementation
   Masaaki Saitow         : Open-shell DLPNO-CCSD energy and density
   Barbara Sandhoefer     : DKH picture change effects
   Kantharuban Sivalingam : CASSCF convergence/infrastructure, NEVPT2 and variants, FIC-MRCI
   Bernardo de Souza      : ESD, SOC TD-DFT
   Georgi Stoychev        : AutoAux, RI-MP2 NMR, DLPNO-MP2 response, X2C
   Van Anh Tran           : RI-MP2 g-tensors
   Willem Van den Heuvel  : Paramagnetic NMR
   Zikuan Wang            : NOTCH, Electric field optimization 
   Frank Wennmohs         : Technical directorship and infrastructure
   Hang Xu                : AUTO-CI-Response properties 


 We gratefully acknowledge several colleagues who have allowed us to
 interface, adapt or use parts of their codes:
   Stefan Grimme, W. Hujo, H. Kruse, P. Pracht,  : VdW corrections, initial TS optimization,
                  C. Bannwarth, S. Ehlert,         DFT functionals, gCP, sTDA/sTD-DF
                  L. Wittmann, M. Mueller
   Ed Valeev, F. Pavosevic, A. Kumar             : LibInt (2-el integral package), F12 methods
   Garnet Chan, S. Sharma, J. Yang, R. Olivares  : DMRG
   Ulf Ekstrom                                   : XCFun DFT Library
   Mihaly Kallay                                 : mrcc  (arbitrary order and MRCC methods)
   Frank Weinhold                                : gennbo (NPA and NBO analysis)
   Simon Mueller                                 : openCOSMO-RS
   Christopher J. Cramer and Donald G. Truhlar   : smd solvation model
   Lars Goerigk                                  : TD-DFT with DH, B97 family of functionals
   V. Asgeirsson, H. Jonsson                     : NEB implementation
   FAccTs GmbH                                   : IRC, NEB, NEB-TS, DLPNO-Multilevel, CI-OPT
                                                   MM, QMMM, 2- and 3-layer-ONIOM, Crystal-QMMM,
                                                   LR-CPCM, SF, NACMEs, symmetry and pop. for TD-DFT,
                                                   nearIR, NL-DFT gradient (VV10), updates on ESD,
                                                   ML-optimized integration grids, MBIS, APM,
                                                   GOAT, DOCKER, SOLVATOR, interface openCOSMO-RS
   S Lehtola, MJT Oliveira, MAL Marques          : LibXC Library
   Liviu Ungur et al                             : ANISO software


 Your calculation uses the libint2 library for the computation of 2-el integrals
 For citations please refer to: http://libint.valeyev.net

 Your ORCA version has been built with support for libXC version: 6.2.2
 For citations please refer to: https://libxc.gitlab.io

 This ORCA versions uses:
   CBLAS   interface :  Fast vector & matrix operations
   LAPACKE interface :  Fast linear algebra routines
   SCALAPACK package :  Parallel linear algebra routines
   Shared memory     :  Shared parallel matrices
   BLAS/LAPACK       :  OpenBLAS 0.3.27  USE64BITINT DYNAMIC_ARCH NO_AFFINITY SkylakeX SINGLE_THREADED
        Core in use  :  SkylakeX
   Copyright (c) 2011-2014, The OpenBLAS Project


Your calculation utilizes the geometrical counterpoise correction gCP
Please cite in your paper:
H.Kruse, S. Grimme J.Chem.Phys., 136, (2012), 154101 
   

Your calculation utilizes the atom-pairwise dispersion correction
based on EEQ partial charges (D4)


================================================================================

----- Orbital basis set information -----
Your calculation utilizes the basis: def2-SV(P)
   F. Weigend and R. Ahlrichs, Phys. Chem. Chem. Phys. 7, 3297 (2005).

----- AuxJ basis set information -----
Your calculation utilizes the auxiliary basis: def2/J
   F. Weigend, Phys. Chem. Chem. Phys. 8, 1057 (2006).

================================================================================
                                        WARNINGS
                       Please study these warnings very carefully!
================================================================================


================================================================================
                                       INPUT FILE
================================================================================
NAME = sp.inp
|  1> ! pbe def2-sv(p) def2/J RI DEFGRID1 loosescf d4 GCP(DFT/SV(P)) printgap
|  2> %output
|  3>     printlevel normal
|  4> end
|  5> * xyz 0 1
|  6> C -1.7450686821 -1.0365740357 -0.6896832454
|  7> C -1.0582885489 -0.5010301158 0.5813487704
|  8> H -1.7313106939 -0.6299813091 1.4387733649
|  9> C -0.7367337809 0.9967645148 0.4642707596
| 10> H -1.6187599894 1.4943224625 0.0447770917
| 11> C 0.4823906119 1.2568631429 -0.4445375459
| 12> H 0.7922764952 2.300866983 -0.2636417364
| 13> C 1.6578484956 0.3526333036 -0.0302205264
| 14> H 2.3898413787 0.3522585332 -0.8473819942
| 15> C 1.2407400516 -1.1148671485 0.1706877715
| 16> H 2.0216602775 -1.584956687 0.7904966544
| 17> O 0.0813034476 -1.274700633 0.9446597219
| 18> O 1.1537228358 -1.7258611773 -1.0763804214
| 19> O 2.2219312283 0.781559388 1.186653886
| 20> O 0.2340936571 1.0561964912 -1.8107381111
| 21> O -0.5315075397 1.5814624442 1.7290257631
| 22> O -2.9675685343 -0.3884613223 -0.9403024563
| 23> H -1.8845773381 -2.1183369942 -0.5781279918
| 24> H -1.109981328 -0.8504667883 -1.5577686671
| 25> H 1.045369899 -2.6828449958 -0.9682391594
| 26> H 2.7541973049 1.5772439376 1.0407237869
| 27> H -0.4607930258 1.6623127717 -2.1062640756
| 28> H 0.2616915086 1.1851308985 2.1264283107
| 29> H -3.6109130982 -0.6341851421 -0.2604013365
| 30> *
| 31> 
| 32>                          ****END OF INPUT****
================================================================================

                       ****************************
                       * Single Point Calculation *
                       ****************************

---------------------------------
CARTESIAN COORDINATES (ANGSTROEM)
---------------------------------
  C     -1.745069   -1.036574   -0.689683
  C     -1.058289   -0.501030    0.581349
  H     -1.731311   -0.629981    1.438773
  C     -0.736734    0.996765    0.464271
  H     -1.618760    1.494322    0.044777
  C      0.482391    1.256863   -0.444538
  H      0.792276    2.300867   -0.263642
  C      1.657848    0.352633   -0.030221
  H      2.389841    0.352259   -0.847382
  C      1.240740   -1.114867    0.170688
  H      2.021660   -1.584957    0.790497
  O      0.081303   -1.274701    0.944660
  O      1.153723   -1.725861   -1.076380
  O      2.221931    0.781559    1.186654
  O      0.234094    1.056196   -1.810738
  O     -0.531508    1.581462    1.729026
  O     -2.967569   -0.388461   -0.940302
  H     -1.884577   -2.118337   -0.578128
  H     -1.109981   -0.850467   -1.557769
  H      1.045370   -2.682845   -0.968239
  H      2.754197    1.577244    1.040724
  H     -0.460793    1.662313   -2.106264
  H      0.261692    1.185131    2.126428
  H     -3.610913   -0.634185   -0.260401

----------------------------
CARTESIAN COORDINATES (A.U.)
----------------------------
  NO LB      ZA    FRAG     MASS         X           Y           Z
   0 C     6.0000    0    12.011   -3.297702   -1.958841   -1.303312
   1 C     6.0000    0    12.011   -1.999876   -0.946810    1.098590
   2 H     1.0000    0     1.008   -3.271703   -1.190492    2.718888
   3 C     6.0000    0    12.011   -1.392225    1.883612    0.877345
   4 H     1.0000    0     1.008   -3.059013    2.823860    0.084616
   5 C     6.0000    0    12.011    0.911586    2.375127   -0.840054
   6 H     1.0000    0     1.008    1.497186    4.348008   -0.498211
   7 C     6.0000    0    12.011    3.132880    0.666380   -0.057109
   8 H     1.0000    0     1.008    4.516146    0.665672   -1.601320
   9 C     6.0000    0    12.011    2.344659   -2.106794    0.322553
  10 H     1.0000    0     1.008    3.820384   -2.995134    1.493822
  11 O     8.0000    0    15.999    0.153641   -2.408835    1.785148
  12 O     8.0000    0    15.999    2.180220   -3.261405   -2.034064
  13 O     8.0000    0    15.999    4.198842    1.476933    2.242451
  14 O     8.0000    0    15.999    0.442373    1.995922   -3.421799
  15 O     8.0000    0    15.999   -1.004404    2.988531    3.267385
  16 O     8.0000    0    15.999   -5.607892   -0.734086   -1.776914
  17 H     1.0000    0     1.008   -3.561335   -4.003077   -1.092504
  18 H     1.0000    0     1.008   -2.097561   -1.607149   -2.943756
  19 H     1.0000    0     1.008    1.975463   -5.069842   -1.829707
  20 H     1.0000    0     1.008    5.204679    2.980559    1.966683
  21 H     1.0000    0     1.008   -0.870773    3.141316   -3.980262
  22 H     1.0000    0     1.008    0.494525    2.239573    4.018367
  23 H     1.0000    0     1.008   -6.823637   -1.198436   -0.492087

--------------------------------
INTERNAL COORDINATES (ANGSTROEM)
--------------------------------
 C      0   0   0     0.000000000000     0.00000000     0.00000000
 C      1   0   0     1.540777929063     0.00000000     0.00000000
 H      2   1   0     1.097617489460   109.28477800     0.00000000
 C      2   1   3     1.536389756829   111.67094993   241.06824058
 H      4   2   1     1.096133696776   107.65410709    44.77917563
 C      4   2   1     1.542675635902   112.00304658   284.34470423
 H      6   4   2     1.103945910227   106.54376047   194.22606082
 C      6   4   2     1.539802400076   110.22773256   310.30540731
 H      8   6   4     1.097071823455   108.00668547   164.31779396
 C      8   6   4     1.538798614223   112.84477886    47.32441755
 H     10   8   6     1.102262956263   106.74385322   199.72070560
 O     10   8   6     1.403165193934   113.86769328   312.79680144
 O     10   8   6     1.391425447812   108.58452802    79.79465750
 O      8   6   4     1.408172663690   111.06589372   287.64674214
 O      6   4   2     1.403004799429   114.18510262    72.39855246
 O      4   2   1     1.408401468900   111.51761424   160.42741990
 O      1   2   3     1.406188453505   111.98314885    58.03802077
 H      1   2   3     1.096411573310   108.40424236   294.94232371
 H      1   2   3     1.091578743949   109.72086021   176.18677279
 H     13  10   8     0.969150617980   109.91257752   170.13994816
 H     14   8   6     0.968357719334   109.89136433   284.90919769
 H     15   6   4     0.968287169828   109.55272285    60.83605248
 H     16   4   2     0.971685241825   108.47480156    64.90818164
 H     17   1   2     0.967748911765   109.61522300   291.53670269

---------------------------
INTERNAL COORDINATES (A.U.)
---------------------------
 C      0   0   0     0.000000000000     0.00000000     0.00000000
 C      1   0   0     2.911648319120     0.00000000     0.00000000
 H      2   1   0     2.074196454881   109.28477800     0.00000000
 C      2   1   3     2.903355875370   111.67094993   241.06824058
 H      4   2   1     2.071392493070   107.65410709    44.77917563
 C      4   2   1     2.915234465327   112.00304658   284.34470423
 H      6   4   2     2.086155436991   106.54376047   194.22606082
 C      6   4   2     2.909804836499   110.22773256   310.30540731
 H      8   6   4     2.073165295572   108.00668547   164.31779396
 C      8   6   4     2.907907956139   112.84477886    47.32441755
 H     10   8   6     2.082975114903   106.74385322   199.72070560
 O     10   8   6     2.651597937186   113.86769328   312.79680144
 O     10   8   6     2.629413032133   108.58452802    79.79465750
 O      8   6   4     2.661060683648   111.06589372   287.64674214
 O      6   4   2     2.651294835498   114.18510262    72.39855246
 O      4   2   1     2.661493062834   111.51761424   160.42741990
 O      1   2   3     2.657311069807   111.98314885    58.03802077
 H      1   2   3     2.071917603617   108.40424236   294.94232371
 H      1   2   3     2.062784879673   109.72086021   176.18677279
 H     13  10   8     1.831429250503   109.91257752   170.13994816
 H     14   8   6     1.829930889211   109.89136433   284.90919769
 H     15   6   4     1.829797569964   109.55272285    60.83605248
 H     16   4   2     1.836218995422   108.47480156    64.90818164
 H     17   1   2     1.828780409636   109.61522300   291.53670269

---------------------
BASIS SET INFORMATION
---------------------
There are 3 groups of distinct atoms

 Group   1 Type C   : 7s4p1d contracted to 3s2p1d pattern {511/31/1}
 Group   2 Type H   : 4s contracted to 2s pattern {31}
 Group   3 Type O   : 7s4p1d contracted to 3s2p1d pattern {511/31/1}

Atom   0C    basis set group =>   1
Atom   1C    basis set group =>   1
Atom   2H    basis set group =>   2
Atom   3C    basis set group =>   1
Atom   4H    basis set group =>   2
Atom   5C    basis set group =>   1
Atom   6H    basis set group =>   2
Atom   7C    basis set group =>   1
Atom   8H    basis set group =>   2
Atom   9C    basis set group =>   1
Atom  10H    basis set group =>   2
Atom  11O    basis set group =>   3
Atom  12O    basis set group =>   3
Atom  13O    basis set group =>   3
Atom  14O    basis set group =>   3
Atom  15O    basis set group =>   3
Atom  16O    basis set group =>   3
Atom  17H    basis set group =>   2
Atom  18H    basis set group =>   2
Atom  19H    basis set group =>   2
Atom  20H    basis set group =>   2
Atom  21H    basis set group =>   2
Atom  22H    basis set group =>   2
Atom  23H    basis set group =>   2
---------------------------------
AUXILIARY/J BASIS SET INFORMATION
---------------------------------
There are 3 groups of distinct atoms

 Group   1 Type C   : 12s5p4d2f1g contracted to 6s4p3d1f1g pattern {711111/2111/211/2/1}
 Group   2 Type H   : 5s2p1d contracted to 3s1p1d pattern {311/2/1}
 Group   3 Type O   : 12s5p4d2f1g contracted to 6s4p3d1f1g pattern {711111/2111/211/2/1}

Atom   0C    basis set group =>   1
Atom   1C    basis set group =>   1
Atom   2H    basis set group =>   2
Atom   3C    basis set group =>   1
Atom   4H    basis set group =>   2
Atom   5C    basis set group =>   1
Atom   6H    basis set group =>   2
Atom   7C    basis set group =>   1
Atom   8H    basis set group =>   2
Atom   9C    basis set group =>   1
Atom  10H    basis set group =>   2
Atom  11O    basis set group =>   3
Atom  12O    basis set group =>   3
Atom  13O    basis set group =>   3
Atom  14O    basis set group =>   3
Atom  15O    basis set group =>   3
Atom  16O    basis set group =>   3
Atom  17H    basis set group =>   2
Atom  18H    basis set group =>   2
Atom  19H    basis set group =>   2
Atom  20H    basis set group =>   2
Atom  21H    basis set group =>   2
Atom  22H    basis set group =>   2
Atom  23H    basis set group =>   2
------------------------------------------------------------------------------
                             ORCA STARTUP CALCULATIONS
                           -- RI-GTO INTEGRALS CHOSEN --
------------------------------------------------------------------------------
------------------------------------------------------------------------------
                   ___                                                        
                  /   \      - P O W E R E D   B Y -                         
                 /     \                                                     
                 |  |  |   _    _      __       _____    __    __             
                 |  |  |  | |  | |    /  \     |  _  \  |  |  /  |          
                  \  \/   | |  | |   /    \    | | | |  |  | /  /          
                 / \  \   | |__| |  /  /\  \   | |_| |  |  |/  /          
                |  |  |   |  __  | /  /__\  \  |    /   |      \           
                |  |  |   | |  | | |   __   |  |    \   |  |\   \          
                \     /   | |  | | |  |  |  |  | |\  \  |  | \   \       
                 \___/    |_|  |_| |__|  |__|  |_| \__\ |__|  \__/        
                                                                              
                      - O R C A' S   B I G   F R I E N D -                    
                                      &                                       
                       - I N T E G R A L  F E E D E R -                       
                                                                              
 v1 FN, 2020, v2 2021, v3 2022-2024                                           
------------------------------------------------------------------------------


----------------------
SHARK INTEGRAL PACKAGE
----------------------

Number of atoms                             ...     24
Number of basis functions                   ...    192
Number of shells                            ...     96
Maximum angular momentum                    ...      2
Integral batch strategy                     ... SHARK/LIBINT Hybrid
RI-J (if used) integral strategy            ... SPLIT-RIJ (Revised 2003 algorithm where possible)
Printlevel                                  ...      1
Contraction scheme used                     ... SEGMENTED contraction
Prescreening option                         ... SCHWARTZ
   Thresh                                   ... 1.000e-09
   Tcut                                     ... 1.000e-10
   Tpresel                                  ... 1.000e-10 
Coulomb Range Separation                    ... NOT USED
Exchange Range Separation                   ... NOT USED
Multipole approximations                    ... NOT USED
Finite Nucleus Model                        ... NOT USED
CABS basis                                  ... NOT available
Auxiliary Coulomb fitting basis             ... AVAILABLE
   # of basis functions in Aux-J            ...    720
   # of shells in Aux-J                     ...    240
   Maximum angular momentum in Aux-J        ...      4
Auxiliary J/K fitting basis                 ... NOT available
Auxiliary Correlation fitting basis         ... NOT available
Auxiliary 'external' fitting basis          ... NOT available

Checking pre-screening integrals            ... done (  0.0 sec) Dimension = 96
Check shell pair data                       ... done (  0.0 sec)
Shell pair information
Shell pair cut-off parameter TPreSel        ...   1.0e-10
Total number of shell pairs                 ...      4656
Shell pairs after pre-screening             ...      4301
Total number of primitive shell pairs       ...     18720
Primitive shell pairs kept                  ...     11580
          la=0 lb=0:   1660 shell pairs
          la=1 lb=0:   1361 shell pairs
          la=1 lb=1:    294 shell pairs
          la=2 lb=0:    640 shell pairs
          la=2 lb=1:    275 shell pairs
          la=2 lb=2:     71 shell pairs

Calculating one electron integrals          ... done (  0.0 sec)
Calculating RI/J V-Matrix + Cholesky decomp.... done (  0.1 sec)
Calculating Nuclear repulsion               ... done (  0.0 sec) ENN=    858.804467168323 Eh

Diagonalization of the overlap matrix:
Smallest eigenvalue                        ... 8.025e-04
Time for diagonalization                   ...    0.003 sec
Threshold for overlap eigenvalues          ... 1.000e-07
Number of eigenvalues below threshold      ... 0
Time for construction of square roots      ...    0.016 sec
Total time needed                          ...    0.027 sec

-------------------
DFT GRID GENERATION
-------------------

General Integration Accuracy     IntAcc      ... 4.159
Radial Grid Type                 RadialGrid  ... OptM3 with GC (2021)
Angular Grid (max. ang.)         AngularGrid ... 3 (Lebedev-194)
Angular grid pruning method      GridPruning ... 4 (adaptive)
Weight generation scheme         WeightScheme... mBecke (2022)
Basis function cutoff            BFCut       ... 1.0000e-10
Integration weight cutoff        WCut        ... 1.0000e-14
Partially contracted basis set               ... off
Rotationally invariant grid construction     ... off
Angular grids for H and He will be reduced by one unit

Total number of grid points                  ...    55612
Total number of batches                      ...      880
Average number of points per batch           ...       63
Average number of grid points per atom       ...     2317
Initializing property integral containers    ... done (  0.0 sec)

SHARK setup successfully completed in   0.9 seconds

Maximum memory used throughout the entire STARTUP-calculation: 28.3 MB
-------------------------------------------------------------------------------
                                 ORCA GUESS
                   Start orbitals & Density for SCF / CASSCF
-------------------------------------------------------------------------------

------------
SCF SETTINGS
------------
Hamiltonian:
 Density Functional     Method          .... DFT(GTOs)
 Exchange Functional    Exchange        .... PBE
   PBE kappa parameter   XKappa         ....  0.804000
   PBE mue parameter    XMuePBE         ....  0.219520
 Correlation Functional Correlation     .... PBE
   PBE beta parameter  CBetaPBE         ....  0.066725
 LDA part of GGA corr.  LDAOpt          .... PW91-LDA
 Gradients option       PostSCFGGA      .... off
   NL short-range parameter             ....  6.400000
 RI-approximation to the Coulomb term is turned on
   Number of AuxJ basis functions       .... 720


General Settings:
 Integral files         IntName         .... sp
 Hartree-Fock type      HFTyp           .... RHF
 Total Charge           Charge          ....    0
 Multiplicity           Mult            ....    1
 Number of Electrons    NEL             ....   96
 Basis Dimension        Dim             ....  192
 Nuclear Repulsion      ENuc            ....    858.8044671683 Eh

Convergence Acceleration:
 AO-DIIS                CNVDIIS         .... on
   Start iteration      DIISMaxIt       ....    12
   Startup error        DIISStart       ....  0.200000
   # of expansion vecs  DIISMaxEq       ....     5
   Bias factor          DIISBfac        ....   1.050
   Max. coefficient     DIISMaxC        ....  10.000
 MO-DIIS                CNVKDIIS        .... off
 Trust-Rad. Augm. Hess. CNVTRAH         .... auto
   Auto Start mean grad. ratio tolernc. ....  1.125000
   Auto Start start iteration           ....    50
   Auto Start num. interpolation iter.  ....    10
   Max. Number of Micro iterations      ....    24
   Max. Number of Macro iterations      .... Maxiter - #DIIS iter
   Number of Davidson start vectors     ....     2
   Converg. threshold    (grad. norm)   ....   1.000e-04
   Grad. Scal. Fac. for Micro threshold ....   0.100
   Minimum threshold for Micro iter.    ....   1.000e-02
   NR start threshold (gradient norm)   ....   1.000e-04
   Initial trust radius                 ....   0.400
   Minimum AH scaling param. (alpha)    ....   1.000
   Maximum AH scaling param. (alpha)    .... 1000.000
   Quad. conv. algorithm                .... NR
   White noise on init. David. guess    .... on
   Maximum white noise                  ....   0.010
   Pseudo random numbers                .... off
   Inactive MOs                         .... canonical
   Orbital update algorithm             .... Taylor
   Preconditioner                       .... Diag
   Full preconditioner red. dimension   ....   250
 SOSCF                  CNVSOSCF        .... on
   Start iteration      SOSCFMaxIt      ....   150
   Startup grad/error   SOSCFStart      ....  0.003300
   Hessian update       SOSCFHessUp     .... L-BFGS
 Level Shifting         CNVShift        .... on
   Level shift para.    LevelShift      ....    0.2500
   Turn off err/grad.   ShiftErr        ....    0.0010
 Zerner damping         CNVZerner       .... off
 Static damping         CNVDamp         .... on
   Fraction old density DampFac         ....    0.7000
   Max. Damping (<1)    DampMax         ....    0.9800
   Min. Damping (>=0)   DampMin         ....    0.0000
   Turn off err/grad.   DampErr         ....    0.1000

SCF Procedure:
 Maximum # iterations   MaxIter         ....   125
 SCF integral mode      SCFMode         .... Direct
   Integral package                     .... SHARK and LIBINT hybrid scheme
 Reset frequency        DirectResetFreq ....    20
 Integral Threshold     Thresh          ....  1.000e-09 Eh
 Primitive CutOff       TCut            ....  1.000e-10 Eh

Convergence Tolerance:
 Convergence Check Mode ConvCheckMode   .... Total+1el-Energy
 Convergence forced     ConvForced      .... 0
 Energy Change          TolE            ....  1.000e-05 Eh
 1-El. energy change                    ....  1.000e-02 Eh
 Orbital Gradient       TolG            ....  1.000e-04
 Orbital Rotation angle TolX            ....  1.000e-04
 DIIS Error             TolErr          ....  5.000e-04

------------------------------
INITIAL GUESS: MODEL POTENTIAL
------------------------------
Loading Hartree-Fock densities                     ... done
Calculating cut-offs                               ... done
Initializing the effective Hamiltonian             ... done
Setting up the integral package (SHARK)            ... done
Starting the Coulomb interaction                   ... done (   0.2 sec)
Making the grid                                    ... done (   0.3 sec)
Mapping shells                                     ... done
Starting the XC term evaluation                    ... done (   0.3 sec)
  promolecular density results
     # of electrons  =     95.988889615
     EX              =    -83.229533342
     EC              =     -3.269817219
     EX+EC           =    -86.499350561
Transforming the Hamiltonian                       ... done (   0.0 sec)
Diagonalizing the Hamiltonian                      ... done (   0.0 sec)
Back transforming the eigenvectors                 ... done (   0.0 sec)
Now organizing SCF variables                       ... done
                      ------------------
                      INITIAL GUESS DONE (   0.8 sec)
                      ------------------
             **** ENERGY FILE WAS UPDATED (sp.en.tmp) ****
Finished Guess after   1.1 sec
Maximum memory used throughout the entire GUESS-calculation: 22.1 MB

-------------------------------------------------------------------------------------------
                                      ORCA LEAN-SCF
                              memory conserving SCF solver
-------------------------------------------------------------------------------------------

----------------------------------------D-I-I-S--------------------------------------------
Iteration    Energy (Eh)           Delta-E    RMSDP     MaxDP     DIISErr   Damp  Time(sec)
-------------------------------------------------------------------------------------------
               ***  Starting incremental Fock matrix formation  ***
    1    -685.5213210257909395     0.00e+00  4.47e-03  1.17e-01  2.33e-01  0.700   1.3
    2    -685.6711171387817103    -1.50e-01  2.89e-03  8.11e-02  9.29e-02  0.700   1.2
                               ***Turning on AO-DIIS***
    3    -685.7188519417136376    -4.77e-02  1.06e-03  2.25e-02  2.09e-02  0.700   1.2
    4    -685.7504311692018746    -3.16e-02  1.45e-03  2.40e-02  1.01e-02  0.000   1.1
    5    -685.8233966064249216    -7.30e-02  4.26e-04  1.30e-02  4.74e-03  0.000   1.1
                              *** Initializing SOSCF ***
---------------------------------------S-O-S-C-F--------------------------------------
Iteration    Energy (Eh)           Delta-E    RMSDP     MaxDP     MaxGrad    Time(sec)
--------------------------------------------------------------------------------------
    6    -685.8237081972522446    -3.12e-04  1.39e-04  2.90e-03  1.34e-03     1.1
               *** Restarting incremental Fock matrix formation ***
    7    -685.8237388691745764    -3.07e-05  8.93e-05  1.84e-03  1.44e-04     1.2
    8    -685.8237398898002084    -1.02e-06  3.44e-05  7.43e-04  1.93e-04     1.1
                 **** Energy Check signals convergence ****

               *****************************************************
               *                     SUCCESS                       *
               *           SCF CONVERGED AFTER   8 CYCLES          *
               *****************************************************

             **** ENERGY FILE WAS UPDATED (sp.en.tmp) ****

----------------
TOTAL SCF ENERGY
----------------

Total Energy       :       -685.82373988980021 Eh          -18662.21273 eV

Components:
Nuclear Repulsion  :        858.80446716832330 Eh           23369.25762 eV
Electronic Energy  :      -1544.62820705812351 Eh          -42031.47035 eV
One Electron Energy:      -2647.22319056567585 Eh          -72034.60518 eV
Two Electron Energy:       1102.59498350755234 Eh           30003.13483 eV

Virial components:
Potential Energy   :      -1366.89337923285211 Eh          -37195.05981 eV
Kinetic Energy     :        681.06963934305202 Eh           18532.84708 eV
Virial Ratio       :          2.00698034425868

DFT components:
N(Alpha)           :       47.999878646511 electrons
N(Beta)            :       47.999878646511 electrons
N(Total)           :       95.999757293022 electrons
E(X)               :      -84.596539614482 Eh       
E(C)               :       -3.282971118954 Eh       
E(XC)              :      -87.879510733436 Eh       

---------------
SCF CONVERGENCE
---------------

  Last Energy change         ...    1.0206e-06  Tolerance :   1.0000e-05
  Last MAX-Density change    ...    7.4295e-04  Tolerance :   1.0000e-03
  Last RMS-Density change    ...    3.4374e-05  Tolerance :   1.0000e-04
  Last DIIS Error            ...    1.3371e-03  Tolerance :   5.0000e-04
  Last Orbital Gradient      ...    1.9342e-04  Tolerance :   1.0000e-04
  Last Orbital Rotation      ...    1.4788e-04  Tolerance :   1.0000e-04


----------------
ORBITAL ENERGIES
----------------

  NO   OCC          E(Eh)            E(eV) 
   0   2.0000     -18.772646      -510.8297 
   1   2.0000     -18.764661      -510.6124 
   2   2.0000     -18.759831      -510.4810 
   3   2.0000     -18.756424      -510.3883 
   4   2.0000     -18.747914      -510.1567 
   5   2.0000     -18.735170      -509.8099 
   6   2.0000      -9.984687      -271.6971 
   7   2.0000      -9.947468      -270.6844 
   8   2.0000      -9.942508      -270.5494 
   9   2.0000      -9.933974      -270.3172 
  10   2.0000      -9.932701      -270.2825 
  11   2.0000      -9.918551      -269.8975 
  12   2.0000      -0.978724       -26.6324 
  13   2.0000      -0.946778       -25.7631 
  14   2.0000      -0.933370       -25.3983 
  15   2.0000      -0.923829       -25.1387 
  16   2.0000      -0.916579       -24.9414 
  17   2.0000      -0.904150       -24.6032 
  18   2.0000      -0.693839       -18.8803 
  19   2.0000      -0.690517       -18.7899 
  20   2.0000      -0.613215       -16.6864 
  21   2.0000      -0.585097       -15.9213 
  22   2.0000      -0.570087       -15.5129 
  23   2.0000      -0.529356       -14.4045 
  24   2.0000      -0.486141       -13.2286 
  25   2.0000      -0.483044       -13.1443 
  26   2.0000      -0.474744       -12.9185 
  27   2.0000      -0.453368       -12.3368 
  28   2.0000      -0.447052       -12.1649 
  29   2.0000      -0.427747       -11.6396 
  30   2.0000      -0.421025       -11.4567 
  31   2.0000      -0.387152       -10.5349 
  32   2.0000      -0.378655       -10.3037 
  33   2.0000      -0.369812       -10.0631 
  34   2.0000      -0.357509        -9.7283 
  35   2.0000      -0.339083        -9.2269 
  36   2.0000      -0.331044        -9.0082 
  37   2.0000      -0.322611        -8.7787 
  38   2.0000      -0.303269        -8.2524 
  39   2.0000      -0.287424        -7.8212 
  40   2.0000      -0.279911        -7.6168 
  41   2.0000      -0.259814        -7.0699 
  42   2.0000      -0.252667        -6.8754 
  43   2.0000      -0.237366        -6.4591 
  44   2.0000      -0.235319        -6.4033 
  45   2.0000      -0.228229        -6.2104 
  46   2.0000      -0.208429        -5.6716 
  47   2.0000      -0.193949        -5.2776 
  48   0.0000       0.009313         0.2534 
  49   0.0000       0.017917         0.4875 
  50   0.0000       0.027906         0.7594 
  51   0.0000       0.034357         0.9349 
  52   0.0000       0.071462         1.9446 
  53   0.0000       0.077901         2.1198 
  54   0.0000       0.089995         2.4489 
  55   0.0000       0.097907         2.6642 
  56   0.0000       0.106381         2.8948 
  57   0.0000       0.116568         3.1720 
  58   0.0000       0.120478         3.2784 
*Only the first 10 virtual orbitals were printed.

                    ********************************
                    * MULLIKEN POPULATION ANALYSIS *
                    ********************************

-----------------------
MULLIKEN ATOMIC CHARGES
-----------------------
   0 C :   -0.000690
   1 C :    0.015303
   2 H :    0.060912
   3 C :    0.067924
   4 H :    0.061724
   5 C :    0.039830
   6 H :    0.053463
   7 C :    0.007299
   8 H :    0.087855
   9 C :    0.202796
  10 H :    0.067035
  11 O :   -0.317086
  12 O :   -0.383386
  13 O :   -0.416847
  14 O :   -0.393443
  15 O :   -0.433213
  16 O :   -0.431875
  17 H :    0.065110
  18 H :    0.124316
  19 H :    0.304389
  20 H :    0.312653
  21 H :    0.310481
  22 H :    0.298320
  23 H :    0.297129
Sum of atomic charges:    0.0000000

--------------------------------
MULLIKEN REDUCED ORBITAL CHARGES
--------------------------------
  0 C s       :     3.046554  s :     3.046554
      pz      :     1.088607  p :     2.891879
      px      :     0.828538
      py      :     0.974734
      dz2     :     0.011049  d :     0.062257
      dxz     :     0.016904
      dyz     :     0.004063
      dx2y2   :     0.017369
      dxy     :     0.012871

  1 C s       :     3.069495  s :     3.069495
      pz      :     1.037799  p :     2.850015
      px      :     0.854276
      py      :     0.957940
      dz2     :     0.010983  d :     0.065187
      dxz     :     0.016919
      dyz     :     0.007097
      dx2y2   :     0.014257
      dxy     :     0.015930

  2 H s       :     0.939088  s :     0.939088

  3 C s       :     3.038788  s :     3.038788
      pz      :     0.812804  p :     2.825248
      px      :     1.031517
      py      :     0.980927
      dz2     :     0.017096  d :     0.068040
      dxz     :     0.015584
      dyz     :     0.016103
      dx2y2   :     0.010036
      dxy     :     0.009220

  4 H s       :     0.938276  s :     0.938276

  5 C s       :     3.048411  s :     3.048411
      pz      :     0.763607  p :     2.843735
      px      :     1.043585
      py      :     1.036544
      dz2     :     0.021366  d :     0.068023
      dxz     :     0.016440
      dyz     :     0.012782
      dx2y2   :     0.009400
      dxy     :     0.008035

  6 H s       :     0.946537  s :     0.946537

  7 C s       :     3.058363  s :     3.058363
      pz      :     0.811859  p :     2.868764
      px      :     1.014198
      py      :     1.042707
      dz2     :     0.015407  d :     0.065574
      dxz     :     0.018936
      dyz     :     0.011301
      dx2y2   :     0.011021
      dxy     :     0.008909

  8 H s       :     0.912145  s :     0.912145

  9 C s       :     2.980578  s :     2.980578
      pz      :     0.803955  p :     2.715700
      px      :     0.886412
      py      :     1.025333
      dz2     :     0.022759  d :     0.100926
      dxz     :     0.030465
      dyz     :     0.018186
      dx2y2   :     0.014955
      dxy     :     0.014561

 10 H s       :     0.932965  s :     0.932965

 11 O s       :     3.749823  s :     3.749823
      pz      :     1.657795  p :     4.552071
      px      :     1.225980
      py      :     1.668296
      dz2     :     0.002162  d :     0.015192
      dxz     :     0.004624
      dyz     :     0.002203
      dx2y2   :     0.002644
      dxy     :     0.003558

 12 O s       :     3.775068  s :     3.775068
      pz      :     1.474125  p :     4.592965
      px      :     1.857666
      py      :     1.261175
      dz2     :     0.005726  d :     0.015353
      dxz     :     0.002042
      dyz     :     0.002669
      dx2y2   :     0.004414
      dxy     :     0.000502

 13 O s       :     3.787743  s :     3.787743
      pz      :     1.483313  p :     4.613978
      px      :     1.653071
      py      :     1.477593
      dz2     :     0.005106  d :     0.015127
      dxz     :     0.002540
      dyz     :     0.002419
      dx2y2   :     0.001365
      dxy     :     0.003697

 14 O s       :     3.783322  s :     3.783322
      pz      :     1.347845  p :     4.594628
      px      :     1.590205
      py      :     1.656577
      dz2     :     0.004816  d :     0.015493
      dxz     :     0.001986
      dyz     :     0.002908
      dx2y2   :     0.000788
      dxy     :     0.004995

 15 O s       :     3.786488  s :     3.786488
      pz      :     1.365259  p :     4.631377
      px      :     1.545171
      py      :     1.720947
      dz2     :     0.003052  d :     0.015348
      dxz     :     0.002707
      dyz     :     0.003657
      dx2y2   :     0.002272
      dxy     :     0.003659

 16 O s       :     3.790684  s :     3.790684
      pz      :     1.614471  p :     4.625597
      px      :     1.266592
      py      :     1.744534
      dz2     :     0.002106  d :     0.015594
      dxz     :     0.006013
      dyz     :     0.002442
      dx2y2   :     0.001833
      dxy     :     0.003200

 17 H s       :     0.934890  s :     0.934890

 18 H s       :     0.875684  s :     0.875684

 19 H s       :     0.695611  s :     0.695611

 20 H s       :     0.687347  s :     0.687347

 21 H s       :     0.689519  s :     0.689519

 22 H s       :     0.701680  s :     0.701680

 23 H s       :     0.702871  s :     0.702871


------------------------
MULLIKEN OVERLAP CHARGES
------------------------
B(  0-C ,  1-C ) :   0.5451 B(  0-C ,  2-H ) :  -0.0550 B(  0-C ,  3-C ) :  -0.0952 
B(  0-C , 11-O ) :  -0.0897 B(  0-C , 16-O ) :   0.6003 B(  0-C , 17-H ) :   0.6421 
B(  0-C , 18-H ) :   0.6831 B(  0-C , 23-H ) :  -0.0882 B(  1-C ,  2-H ) :   0.6405 
B(  1-C ,  3-C ) :   0.5108 B(  1-C ,  4-H ) :  -0.0812 B(  1-C ,  7-C ) :  -0.0758 
B(  1-C ,  9-C ) :  -0.1171 B(  1-C , 11-O ) :   0.5509 B(  1-C , 15-O ) :  -0.0915 
B(  1-C , 16-O ) :  -0.1182 B(  1-C , 17-H ) :  -0.0829 B(  2-H ,  3-C ) :  -0.0695 
B(  3-C ,  4-H ) :   0.6350 B(  3-C ,  5-C ) :   0.4273 B(  3-C ,  6-H ) :  -0.1364 
B(  3-C ,  9-C ) :  -0.0812 B(  3-C , 11-O ) :  -0.0629 B(  3-C , 14-O ) :  -0.0805 
B(  3-C , 15-O ) :   0.6010 B(  3-C , 22-H ) :  -0.1109 B(  4-H ,  5-C ) :  -0.0737 
B(  4-H , 16-O ) :   0.0650 B(  5-C ,  6-H ) :   0.7167 B(  5-C ,  7-C ) :   0.3244 
B(  5-C ,  8-H ) :  -0.0742 B(  5-C ,  9-C ) :  -0.0819 B(  5-C , 11-O ) :  -0.0517 
B(  5-C , 13-O ) :  -0.0762 B(  5-C , 14-O ) :   0.5494 B(  5-C , 15-O ) :  -0.0735 
B(  5-C , 21-H ) :  -0.0645 B(  6-H ,  7-C ) :  -0.1187 B(  7-C ,  8-H ) :   0.6031 
B(  7-C ,  9-C ) :   0.3725 B(  7-C , 10-H ) :  -0.0848 B(  7-C , 11-O ) :  -0.0745 
B(  7-C , 12-O ) :  -0.1240 B(  7-C , 13-O ) :   0.5205 B(  7-C , 14-O ) :  -0.1123 
B(  7-C , 20-H ) :  -0.0681 B(  9-C , 10-H ) :   0.6861 B(  9-C , 11-O ) :   0.6877 
B(  9-C , 12-O ) :   0.6635 B(  9-C , 13-O ) :  -0.0984 B( 10-H , 11-O ) :  -0.0806 
B( 11-O , 12-O ) :  -0.1388 B( 12-O , 19-H ) :   0.4937 B( 13-O , 20-H ) :   0.5230 
B( 13-O , 22-H ) :   0.0805 B( 14-O , 18-H ) :   0.0647 B( 14-O , 21-H ) :   0.5122 
B( 15-O , 22-H ) :   0.5441 B( 16-O , 18-H ) :  -0.0511 B( 16-O , 23-H ) :   0.5189 
B( 17-H , 18-H ) :  -0.0616 


                     *******************************
                     * LOEWDIN POPULATION ANALYSIS *
                     *******************************

----------------------
LOEWDIN ATOMIC CHARGES
----------------------
   0 C :   -0.156039
   1 C :   -0.074767
   2 H :    0.109967
   3 C :   -0.077266
   4 H :    0.112568
   5 C :   -0.080613
   6 H :    0.094888
   7 C :   -0.076979
   8 H :    0.117416
   9 C :   -0.001510
  10 H :    0.100622
  11 O :   -0.145515
  12 O :   -0.299095
  13 O :   -0.305653
  14 O :   -0.303674
  15 O :   -0.323665
  16 O :   -0.333096
  17 H :    0.092593
  18 H :    0.120654
  19 H :    0.287591
  20 H :    0.293897
  21 H :    0.291884
  22 H :    0.272004
  23 H :    0.283789

-------------------------------
LOEWDIN REDUCED ORBITAL CHARGES
-------------------------------
  0 C s       :     2.926625  s :     2.926625
      pz      :     1.115149  p :     3.086451
      px      :     0.920784
      py      :     1.050518
      dz2     :     0.025933  d :     0.142963
      dxz     :     0.039990
      dyz     :     0.008958
      dx2y2   :     0.038589
      dxy     :     0.029493

  1 C s       :     2.904740  s :     2.904740
      pz      :     1.084202  p :     3.017146
      px      :     0.916938
      py      :     1.016006
      dz2     :     0.025994  d :     0.152882
      dxz     :     0.041455
      dyz     :     0.015270
      dx2y2   :     0.034487
      dxy     :     0.035675

  2 H s       :     0.890033  s :     0.890033

  3 C s       :     2.890368  s :     2.890368
      pz      :     0.907521  p :     3.029050
      px      :     1.077397
      py      :     1.044132
      dz2     :     0.039154  d :     0.157847
      dxz     :     0.037355
      dyz     :     0.034244
      dx2y2   :     0.027063
      dxy     :     0.020031

  4 H s       :     0.887432  s :     0.887432

  5 C s       :     2.897251  s :     2.897251
      pz      :     0.874325  p :     3.022946
      px      :     1.072473
      py      :     1.076148
      dz2     :     0.049462  d :     0.160416
      dxz     :     0.040253
      dyz     :     0.026998
      dx2y2   :     0.022650
      dxy     :     0.021053

  6 H s       :     0.905112  s :     0.905112

  7 C s       :     2.898801  s :     2.898801
      pz      :     0.928879  p :     3.024789
      px      :     1.040853
      py      :     1.055056
      dz2     :     0.036348  d :     0.153389
      dxz     :     0.044038
      dyz     :     0.023919
      dx2y2   :     0.026062
      dxy     :     0.023022

  8 H s       :     0.882584  s :     0.882584

  9 C s       :     2.880978  s :     2.880978
      pz      :     0.906764  p :     2.893928
      px      :     0.945806
      py      :     1.041359
      dz2     :     0.051530  d :     0.226603
      dxz     :     0.069268
      dyz     :     0.039141
      dx2y2   :     0.036072
      dxy     :     0.030592

 10 H s       :     0.899378  s :     0.899378

 11 O s       :     3.469890  s :     3.469890
      pz      :     1.673556  p :     4.645916
      px      :     1.290366
      py      :     1.681995
      dz2     :     0.003425  d :     0.029708
      dxz     :     0.009761
      dyz     :     0.002836
      dx2y2   :     0.006084
      dxy     :     0.007601

 12 O s       :     3.536225  s :     3.536225
      pz      :     1.548587  p :     4.735499
      px      :     1.856012
      py      :     1.330900
      dz2     :     0.010323  d :     0.027371
      dxz     :     0.002703
      dyz     :     0.005637
      dx2y2   :     0.007715
      dxy     :     0.000993

 13 O s       :     3.531775  s :     3.531775
      pz      :     1.554395  p :     4.747213
      px      :     1.667945
      py      :     1.524873
      dz2     :     0.008872  d :     0.026665
      dxz     :     0.004603
      dyz     :     0.004258
      dx2y2   :     0.002373
      dxy     :     0.006560

 14 O s       :     3.534310  s :     3.534310
      pz      :     1.412072  p :     4.742008
      px      :     1.630236
      py      :     1.699700
      dz2     :     0.009719  d :     0.027356
      dxz     :     0.003973
      dyz     :     0.004852
      dx2y2   :     0.000954
      dxy     :     0.007858

 15 O s       :     3.532667  s :     3.532667
      pz      :     1.428185  p :     4.764202
      px      :     1.589410
      py      :     1.746608
      dz2     :     0.006260  d :     0.026796
      dxz     :     0.005016
      dyz     :     0.006746
      dx2y2   :     0.003429
      dxy     :     0.005345

 16 O s       :     3.541451  s :     3.541451
      pz      :     1.654436  p :     4.764455
      px      :     1.329613
      py      :     1.780407
      dz2     :     0.003411  d :     0.027189
      dxz     :     0.010816
      dyz     :     0.003057
      dx2y2   :     0.003705
      dxy     :     0.006200

 17 H s       :     0.907407  s :     0.907407

 18 H s       :     0.879346  s :     0.879346

 19 H s       :     0.712409  s :     0.712409

 20 H s       :     0.706103  s :     0.706103

 21 H s       :     0.708116  s :     0.708116

 22 H s       :     0.727996  s :     0.727996

 23 H s       :     0.716211  s :     0.716211


---------------------------------
LOEWDIN BOND ORDERS (THRESH 0.050000)
---------------------------------
B(  0-C ,  1-C ) :   1.0515 B(  0-C ,  3-C ) :   0.0555 B(  0-C , 11-O ) :   0.0676 
B(  0-C , 16-O ) :   1.2342 B(  0-C , 17-H ) :   0.9065 B(  0-C , 18-H ) :   0.8953 
B(  1-C ,  2-H ) :   0.8750 B(  1-C ,  3-C ) :   1.0271 B(  1-C ,  5-C ) :   0.0517 
B(  1-C ,  9-C ) :   0.0604 B(  1-C , 11-O ) :   1.1310 B(  1-C , 15-O ) :   0.0779 
B(  1-C , 16-O ) :   0.0855 B(  3-C ,  4-H ) :   0.8647 B(  3-C ,  5-C ) :   1.0136 
B(  3-C ,  7-C ) :   0.0520 B(  3-C , 11-O ) :   0.0548 B(  3-C , 14-O ) :   0.0744 
B(  3-C , 15-O ) :   1.2244 B(  5-C ,  6-H ) :   0.8677 B(  5-C ,  7-C ) :   1.0199 
B(  5-C , 13-O ) :   0.0776 B(  5-C , 14-O ) :   1.2235 B(  5-C , 15-O ) :   0.0850 
B(  7-C ,  8-H ) :   0.8691 B(  7-C ,  9-C ) :   1.0167 B(  7-C , 11-O ) :   0.0579 
B(  7-C , 12-O ) :   0.0623 B(  7-C , 13-O ) :   1.2047 B(  7-C , 14-O ) :   0.0614 
B(  9-C , 10-H ) :   0.8794 B(  9-C , 11-O ) :   1.2064 B(  9-C , 12-O ) :   1.2696 
B(  9-C , 13-O ) :   0.0643 B( 11-O , 12-O ) :   0.0964 B( 12-O , 19-H ) :   0.8744 
B( 13-O , 20-H ) :   0.8794 B( 13-O , 22-H ) :   0.0609 B( 14-O , 21-H ) :   0.8781 
B( 15-O , 22-H ) :   0.8649 B( 16-O , 23-H ) :   0.8898 

------------------------------------------
LOEWDIN REDUCED ORBITAL POPULATIONS PER MO
-------------------------------------------
THRESHOLD FOR PRINTING IS 0.1%%
                      0         1         2         3         4         5   
                 -18.77265 -18.76466 -18.75983 -18.75642 -18.74791 -18.73517
                   2.00000   2.00000   2.00000   2.00000   2.00000   2.00000
                  --------  --------  --------  --------  --------  --------
11 O  s               0.0      99.9       0.0       0.0       0.0       0.0
12 O  s               0.0       0.0      99.9       0.0       0.0       0.0
13 O  s              99.9       0.0       0.0       0.0       0.0       0.0
14 O  s               0.0       0.0       0.0      99.9       0.0       0.0
15 O  s               0.0       0.0       0.0       0.0       0.0      99.9
16 O  s               0.0       0.0       0.0       0.0      99.9       0.0

                      6         7         8         9        10        11   
                  -9.98469  -9.94747  -9.94251  -9.93397  -9.93270  -9.91855
                   2.00000   2.00000   2.00000   2.00000   2.00000   2.00000
                  --------  --------  --------  --------  --------  --------
 0 C  s               0.0       0.0       0.0       0.0       0.0      99.6
 1 C  s               0.0       0.0       0.0      99.6       0.0       0.0
 1 C  py              0.0       0.0       0.0       0.0       0.1       0.0
 3 C  s               0.0       0.0       0.0       0.0      99.6       0.0
 3 C  py              0.0       0.0       0.0       0.1       0.0       0.0
 5 C  s               0.0       0.0      99.6       0.0       0.0       0.0
 7 C  s               0.0      99.6       0.0       0.0       0.0       0.0
 9 C  s              99.6       0.0       0.0       0.0       0.0       0.0
12 O  pz              0.1       0.0       0.0       0.0       0.0       0.0
14 O  pz              0.0       0.0       0.1       0.0       0.0       0.0

                     12        13        14        15        16        17   
                  -0.97872  -0.94678  -0.93337  -0.92383  -0.91658  -0.90415
                   2.00000   2.00000   2.00000   2.00000   2.00000   2.00000
                  --------  --------  --------  --------  --------  --------
 0 C  s               0.4       0.0       0.4       8.4       1.4       0.0
 0 C  pz              0.2       0.0       0.0       0.0       0.3       0.2
 0 C  px              0.1       0.0       0.1       4.8       2.2       0.3
 0 C  py              0.0       0.0       0.1       1.5       0.3       0.0
 0 C  dz2             0.0       0.0       0.0       0.1       0.1       0.0
 0 C  dx2y2           0.0       0.0       0.0       0.2       0.1       0.0
 0 C  dxy             0.0       0.0       0.0       0.3       0.1       0.0
 1 C  s               4.1       0.2       0.3       2.2       1.5       1.5
 1 C  pz              0.1       0.0       0.0       0.3       0.7       0.1
 1 C  px              2.8       0.2       0.0       0.1       1.6       1.6
 1 C  py              0.6       0.4       0.2       0.0       0.2       2.2
 1 C  dxy             0.2       0.0       0.0       0.0       0.0       0.2
 2 H  s               0.5       0.0       0.0       0.4       0.3       0.1
 3 C  s               1.1       0.5       1.7       0.9       5.1       2.7
 3 C  pz              0.0       0.0       0.1       0.7       4.3       3.1
 3 C  px              0.2       0.3       0.3       0.0       0.2       0.1
 3 C  py              0.3       0.2       0.0       0.1       0.2       1.6
 3 C  dz2             0.0       0.0       0.0       0.0       0.2       0.2
 3 C  dyz             0.0       0.0       0.0       0.0       0.1       0.1
 4 H  s               0.1       0.1       0.3       0.3       0.4       0.3
 5 C  s               1.2       3.0       7.3       0.3       0.0       0.0
 5 C  pz              0.0       0.2       6.7       1.1       1.5       0.6
 5 C  px              0.0       0.2       1.3       0.0       0.3       0.1
 5 C  py              0.3       0.1       0.0       0.0       0.0       0.0
 5 C  dz2             0.0       0.1       0.6       0.0       0.0       0.0
 6 H  s               0.2       0.6       0.8       0.0       0.0       0.0
 7 C  s               3.9       6.8       0.5       0.1       0.3       0.0
 7 C  pz              0.5       4.0       2.5       0.1       0.0       0.1
 7 C  px              0.2       0.8       1.6       0.0       0.1       0.0
 7 C  py              0.6       2.5       0.0       0.0       0.0       0.0
 7 C  dz2             0.0       0.2       0.1       0.0       0.0       0.0
 7 C  dxz             0.0       0.3       0.0       0.0       0.0       0.0
 7 C  dyz             0.0       0.1       0.1       0.0       0.0       0.0
 8 H  s               0.6       0.8       0.0       0.0       0.1       0.0
 9 C  s              15.1       1.0       0.2       0.3       0.2       0.0
 9 C  pz              0.2       0.4       0.0       1.5       3.0       6.6
 9 C  px              2.7       1.0       0.0       0.2       0.8       2.0
 9 C  py              0.3       2.2       0.0       0.2       0.2       0.6
 9 C  dz2             0.1       0.1       0.0       0.0       0.1       0.2
 9 C  dxz             0.1       0.0       0.0       0.0       0.1       0.2
 9 C  dyz             0.1       0.0       0.0       0.1       0.1       0.2
 9 C  dx2y2           0.0       0.0       0.0       0.0       0.1       0.2
10 H  s               1.9       0.0       0.1       0.0       0.0       0.0
11 O  s              24.8       3.2       0.0       1.9       6.3      18.8
11 O  pz              1.3       0.2       0.0       0.0       0.1       0.3
11 O  px              0.2       0.0       0.0       0.2       0.1       0.0
11 O  py              0.4       0.0       0.0       0.1       0.2       0.4
12 O  s              18.9       5.9       0.6       6.0      10.0      18.5
12 O  pz              1.8       0.4       0.0       0.2       0.3       0.4
12 O  py              0.0       0.1       0.0       0.1       0.1       0.4
13 O  s               5.1      42.2      10.5       0.0       1.2       0.0
13 O  pz              0.4       1.9       0.4       0.0       0.1       0.0
13 O  py              0.0       0.4       0.1       0.0       0.0       0.0
14 O  s               1.1       6.0      44.6       3.9       2.1       0.7
14 O  pz              0.1       0.3       1.1       0.1       0.0       0.0
14 O  px              0.0       0.0       0.5       0.0       0.0       0.0
14 O  py              0.0       0.1       1.1       0.1       0.0       0.0
15 O  s               0.9       1.2       1.9       3.3      26.2      24.0
15 O  pz              0.0       0.0       0.1       0.1       0.4       0.3
15 O  px              0.0       0.0       0.0       0.0       0.4       0.4
15 O  py              0.0       0.0       0.1       0.1       0.8       0.6
16 O  s               0.2       0.0       1.3      43.5      13.5       0.7
16 O  pz              0.0       0.0       0.0       1.4       0.4       0.0
16 O  px              0.0       0.0       0.0       0.2       0.0       0.0
16 O  py              0.0       0.0       0.0       1.0       0.3       0.0
17 H  s               0.1       0.0       0.0       1.0       0.1       0.0
18 H  s               0.2       0.0       0.2       0.7       0.3       0.0
19 H  s               3.8       1.2       0.1       1.2       2.0       3.7
20 H  s               1.0       8.5       2.1       0.0       0.3       0.0
21 H  s               0.2       1.2       9.0       0.7       0.4       0.1
22 H  s               0.4       0.6       0.3       0.7       5.1       4.6
23 H  s               0.0       0.0       0.3       8.9       2.8       0.2

                     18        19        20        21        22        23   
                  -0.69384  -0.69052  -0.61321  -0.58510  -0.57009  -0.52936
                   2.00000   2.00000   2.00000   2.00000   2.00000   2.00000
                  --------  --------  --------  --------  --------  --------
 0 C  s               0.2       6.4      14.2       0.3       9.8       0.3
 0 C  pz              0.1       2.0       0.0       0.0       2.7       0.6
 0 C  px              0.1       2.3       1.0       0.0       0.1       0.1
 0 C  py              0.1       0.1       0.1       0.7       0.4       0.0
 1 C  s               0.8      18.8       1.7       0.1       4.9       0.5
 1 C  pz              0.6       0.4       2.2       0.5       6.1       0.0
 1 C  px              0.1       0.6       2.4       0.4       0.2       0.0
 1 C  py              2.1       0.2       1.2       7.6       0.4       0.1
 1 C  dz2             0.0       0.0       0.1       0.0       0.0       0.0
 1 C  dx2y2           0.0       0.0       0.0       0.1       0.0       0.0
 2 H  s               0.1       4.1       0.4       0.1       3.4       0.3
 3 C  s               6.0       5.8       3.3      11.2       0.0       0.3
 3 C  pz              2.4       0.5       1.0       0.4       1.6       0.0
 3 C  px              1.0       0.7       1.0       3.0       1.3       0.0
 3 C  py              0.2       3.1       1.0       0.0       2.7       0.3
 4 H  s               1.1       1.4       0.9       5.9       0.0       0.2
 5 C  s              13.4       0.1       6.4       2.2       4.1       0.2
 5 C  pz              3.1       0.2       0.9       0.4       0.1       1.9
 5 C  px              0.5       1.9       0.7       8.5       0.1       0.0
 5 C  py              1.4       0.0       0.8       0.0       1.0       0.2
 5 C  dz2             0.1       0.0       0.0       0.0       0.0       0.0
 6 H  s               2.3       0.0       2.4       0.9       2.1       0.0
 7 C  s              14.4       3.0       2.1       2.7       2.4       1.3
 7 C  pz              1.2       0.0       0.0       1.9       0.1       7.2
 7 C  px              3.0       0.1       1.0       0.1       1.2       0.4
 7 C  py              0.0       1.9       5.0       4.2       1.8       0.4
 7 C  dz2             0.1       0.0       0.0       0.0       0.0       0.2
 8 H  s               2.8       0.6       0.8       1.4       1.2       0.1
 9 C  s               2.2       8.2       3.6       5.8       0.1       1.4
 9 C  pz              0.3       1.4       0.2       1.0       1.5       7.3
 9 C  px              0.9       0.2       1.9       0.2       2.5       0.0
 9 C  py              4.8       0.5       1.3       0.7       2.5       0.2
 9 C  dz2             0.0       0.0       0.0       0.0       0.0       0.2
 9 C  dx2y2           0.1       0.0       0.0       0.0       0.1       0.0
10 H  s               0.3       2.1       1.1       2.9       0.0       0.0
11 O  s               2.6       0.6       1.9       0.7       0.2       0.3
11 O  pz              0.1       0.1       0.2       0.3       0.7       0.5
11 O  px              0.1      10.9       0.0       8.2       7.6       0.7
11 O  py              0.2       0.6       0.0       0.1       2.0       0.0
12 O  s               0.5       1.7       0.6       0.7       0.2       0.1
12 O  pz              0.1       0.9       0.8       1.9       0.1       4.5
12 O  px              0.1       0.0       0.1       0.1       0.4       0.3
12 O  py              1.3       1.5       3.3       1.6       0.4      19.3
12 O  dz2             0.0       0.0       0.0       0.1       0.0       0.1
13 O  s               3.6       0.8       0.1       0.5       0.1       0.1
13 O  pz              1.4       0.2       0.4       0.7       1.0       3.9
13 O  px              1.7       0.5       0.3       0.6       0.6       8.9
13 O  py              1.8       0.9       1.9       0.0       2.6      11.8
13 O  dz2             0.0       0.0       0.0       0.0       0.0       0.1
14 O  s               4.1       0.1       0.9       0.0       0.7       0.0
14 O  pz              3.1       0.0       2.2       1.8       2.8       3.0
14 O  px              1.3       0.0       0.4       2.7       0.5       2.1
14 O  py              0.6       0.0       0.0       0.3       0.1       0.8
15 O  s               2.6       1.8       1.2       1.1       0.1       0.1
15 O  pz              1.1       0.8       1.8       5.4       0.0       0.6
15 O  px              0.2       0.5       0.3       3.1       0.3       0.1
15 O  py              0.0       0.1       0.0       0.0       0.3       0.0
16 O  s               0.1       2.1       2.1       0.0       0.6       0.0
16 O  pz              0.0       0.1       0.4       0.0       1.3       0.2
16 O  px              0.1       1.6       6.8       0.0       9.1       1.1
16 O  py              0.0       0.0       0.4       0.1       0.5       0.0
17 H  s               0.0       1.3       3.7       0.3       3.1       0.1
18 H  s               0.0       1.5       4.0       0.0       4.2       0.2
19 H  s               0.6       1.1       1.4       1.0       0.1       7.1
20 H  s               2.4       0.7       0.7       0.3       1.1       7.1
21 H  s               2.6       0.0       0.8       1.3       1.0       1.8
22 H  s               1.0       0.8       0.8       2.7       0.0       0.2
23 H  s               0.1       1.0       2.6       0.0       3.2       0.4

                     24        25        26        27        28        29   
                  -0.48614  -0.48304  -0.47474  -0.45337  -0.44705  -0.42775
                   2.00000   2.00000   2.00000   2.00000   2.00000   2.00000
                  --------  --------  --------  --------  --------  --------
 0 C  s               0.3       0.0       0.3       0.9       0.0       0.4
 0 C  pz              0.4       2.9       6.5       1.8       1.2       1.0
 0 C  px              0.5       0.1       0.4       6.0       0.1       0.1
 0 C  py              1.2       0.1       4.0       7.3       0.9       5.3
 0 C  dxy             0.0       0.0       0.1       0.3       0.0       0.0
 1 C  s               0.9       1.4       0.8       0.3       0.6       0.2
 1 C  pz              1.2       0.5       0.1       7.2       0.6       0.2
 1 C  px              0.1       6.9       3.7       0.0       1.6       3.3
 1 C  py              2.7       0.5       5.0       0.3       2.2       0.6
 1 C  dyz             0.0       0.0       0.0       0.2       0.0       0.0
 1 C  dxy             0.1       0.0       0.0       0.0       0.1       0.0
 2 H  s               0.0       3.4       2.0       1.7       0.2       0.6
 3 C  s               0.2       0.1       0.4       0.1       0.0       0.2
 3 C  pz              3.5       0.5       0.4       0.1       0.0       0.5
 3 C  px              2.8       4.6       1.1       0.3       0.0       4.3
 3 C  py             10.5       0.6       2.0       0.4       2.9       0.1
 3 C  dyz             0.1       0.0       0.0       0.1       0.0       0.0
 4 H  s               1.5       0.1       0.1       0.2       0.2       0.3
 5 C  s               0.2       0.1       2.2       0.7       0.1       0.0
 5 C  pz              0.1       8.5       1.7       0.2       4.9       0.6
 5 C  px              2.1       0.8       0.1       0.0       5.1       3.6
 5 C  py              2.5       0.1      12.0       3.8       0.0       0.6
 5 C  dz2             0.0       0.1       0.0       0.0       0.4       0.0
 6 H  s               0.6       0.1       7.6       2.6       0.8       0.3
 7 C  s               1.7       0.0       0.7       0.2       1.9       0.2
 7 C  pz              5.1       0.5       2.4       0.0       6.4       2.2
 7 C  px              5.7       1.2       0.0       0.1       0.1       0.1
 7 C  py              0.5       0.0       0.2       0.0       3.1       8.0
 7 C  dz2             0.0       0.0       0.0       0.0       0.2       0.2
 7 C  dxz             0.0       0.0       0.0       0.0       0.3       0.1
 7 C  dyz             0.0       0.1       0.0       0.0       0.0       0.1
 8 H  s               6.2       0.4       1.4       0.0       3.8       1.0
 9 C  s               0.2       0.7       1.1       0.3       0.1       0.5
 9 C  pz              0.7       8.6       0.3       0.2       1.1       2.0
 9 C  px              0.2       2.3       2.4       5.5       1.2      11.3
 9 C  py              0.2       2.3       3.6       0.9       0.1       2.8
 9 C  dz2             0.0       0.1       0.0       0.0       0.0       0.1
 9 C  dyz             0.0       0.1       0.0       0.0       0.1       0.1
10 H  s               0.1       5.5       2.8       2.4       0.0       4.5
11 O  s               2.1       0.0       0.2       0.4       0.2       0.0
11 O  pz              0.5       0.8       0.0       5.2       0.6       2.7
11 O  px              1.6       3.9       0.5       1.5       5.9       2.1
11 O  py              1.5       1.4       1.7       0.2       0.1       2.0
12 O  s               0.0       0.6       0.2       0.0       0.3       0.1
12 O  pz              0.0       0.2       3.1       0.6       0.1       2.9
12 O  px              0.1       0.1       0.5       2.6       0.2       2.0
12 O  py              0.4       9.3       0.7       0.2       2.6       5.2
13 O  s               0.8       0.0       0.0       0.0       3.0       0.2
13 O  pz              2.5       0.0       0.0       0.1       0.8       3.2
13 O  px              1.8       0.7       1.2       0.0       2.2       7.5
13 O  py              0.4       0.1       0.5       0.1      11.5       1.6
14 O  s               0.0       0.2       0.7       0.3       0.1       0.1
14 O  pz              0.8       8.6       0.2       0.0      12.9       0.0
14 O  px              0.1       8.0       1.1       0.1       3.1       1.3
14 O  py              0.5       1.4       4.5       1.6       2.0       0.0
14 O  dz2             0.0       0.1       0.0       0.0       0.1       0.0
15 O  s               0.3       0.2       0.0       0.3       0.1       0.1
15 O  pz             12.0       0.4       0.1       1.0       1.2       0.2
15 O  px             11.1       0.7       0.9       1.4       1.0       0.8
15 O  py              0.8       0.0       0.3       0.2       0.3       0.0
16 O  s               0.0       0.2       0.8       1.0       0.1       0.0
16 O  pz              0.3       0.9       3.4       5.3       0.6       0.0
16 O  px              0.8       0.1       5.4      19.3       0.0       1.7
16 O  py              0.3       0.0       0.2       0.1       0.2       1.0
17 H  s               0.7       0.0       2.3       4.4       0.3       3.0
18 H  s               0.0       0.7       0.7       0.6       0.1       0.5
19 H  s               0.1       2.5       0.6       0.2       0.7       2.0
20 H  s               0.2       0.0       0.5       0.0       3.1       2.7
21 H  s               0.2       5.0       0.9       0.2       4.8       0.1
22 H  s               7.0       0.0       0.1       0.7       0.4       0.0
23 H  s               0.3       0.1       2.4       7.1       0.1       0.4

                     30        31        32        33        34        35   
                  -0.42102  -0.38715  -0.37865  -0.36981  -0.35751  -0.33908
                   2.00000   2.00000   2.00000   2.00000   2.00000   2.00000
                  --------  --------  --------  --------  --------  --------
 0 C  s               0.1       0.1       0.0       0.2       0.2       0.1
 0 C  pz              0.0       6.1       0.1       5.2       6.3       0.5
 0 C  px              2.8       4.5       8.9       0.0       5.8       1.5
 0 C  py              3.5       0.1       8.0       5.5       0.2       3.6
 0 C  dz2             0.0       0.0       0.1       0.0       0.1       0.1
 0 C  dxz             0.0       0.0       0.0       0.1       0.2       0.1
 1 C  s               0.1       0.1       1.0       0.0       0.2       0.0
 1 C  pz              5.7       0.2       4.5       1.7       2.0       0.4
 1 C  px              0.5       4.7       0.8       1.2       1.6       2.8
 1 C  py              0.3       1.2       0.7       8.6       0.0       0.1
 1 C  dz2             0.0       0.0       0.0       0.0       0.1       0.1
 1 C  dx2y2           0.0       0.1       0.1       0.0       0.0       0.0
 1 C  dxy             0.1       0.0       0.0       0.0       0.0       0.1
 2 H  s               2.5       1.2       0.8       0.0       1.7       0.3
 3 C  s               0.3       0.3       1.8       0.1       0.1       0.1
 3 C  pz             13.2       1.4       3.3       0.7       0.8       1.3
 3 C  px              2.6       1.8       0.0       1.8       6.3       9.8
 3 C  py              1.1       4.0       0.1       4.8       0.8       0.2
 3 C  dyz             0.0       0.0       0.2       0.3       0.0       0.0
 3 C  dx2y2           0.0       0.0       0.2       0.1       0.1       0.0
 3 C  dxy             0.0       0.0       0.0       0.0       0.0       0.3
 4 H  s               5.7       2.0       1.5       0.0       4.9       6.3
 5 C  pz              0.6       0.1       0.5       2.9       0.5       0.3
 5 C  px              4.7       0.3       2.6       0.1       3.0       2.1
 5 C  py              1.1       0.8       6.6      11.5       0.1       0.3
 5 C  dz2             0.1       0.0       0.0       0.0       0.1       0.1
 5 C  dx2y2           0.1       0.0       0.3       0.1       0.0       0.0
 5 C  dxy             0.0       0.0       0.0       0.1       0.0       0.1
 6 H  s               0.0       0.4       5.3       4.5       0.2       0.0
 7 C  s               0.3       0.2       0.2       0.3       0.0       0.4
 7 C  pz              1.1       0.1       0.3       0.0       0.0       0.1
 7 C  px             12.7       2.0       0.5       4.2       5.0       3.8
 7 C  py              0.1       6.7       2.0       0.2       0.3       0.1
 7 C  dx2y2           0.0       0.0       0.1       0.0       0.1       0.1
 8 H  s               4.9       0.1       0.8       0.5       0.7       1.2
 9 C  s               0.3       0.0       0.7       0.0       0.1       0.6
 9 C  pz              0.2       0.2       0.4       0.0       0.3       0.5
 9 C  px              0.2       2.4       0.5       1.2       0.7       0.0
 9 C  py              0.2      15.9       2.1       0.8       0.1       0.0
 9 C  dz2             0.0       0.0       0.1       0.1       0.2       0.3
10 H  s               0.0       3.8       0.7       0.9       0.3       0.1
11 O  s               0.8       0.0       1.7       0.1       1.1       1.0
11 O  pz              0.2       0.0       4.8       0.0      10.8       4.0
11 O  px              1.1       1.3       0.6       3.6       0.2       3.5
11 O  py              1.3       0.7       4.5       5.2       1.7       3.1
12 O  s               0.0       1.4       0.1       0.8       1.1       3.6
12 O  pz              0.0       9.4       0.4       1.6       4.2      13.8
12 O  px              0.0       0.6       0.1       0.4       0.2       0.0
12 O  py              0.0       0.2       1.3       1.6       2.2       6.5
13 O  s               0.2       0.3       0.1       0.0       0.1       0.0
13 O  pz              2.9       5.0       1.9       0.4       3.4       0.1
13 O  px              1.1       0.3       0.3       0.5       3.1       1.1
13 O  py              1.1       0.0       0.1       1.0       1.0       1.6
14 O  s               1.0       0.5       0.1       0.8       0.1       0.2
14 O  pz              1.5       0.2       0.0       1.5       2.4       0.0
14 O  px              1.3       0.3       1.1       0.5       0.0       0.0
14 O  py              0.2       1.7       2.1       7.1       1.7       1.5
15 O  s               0.5       0.3       0.8       0.5       0.0       0.7
15 O  pz              8.6       0.9       1.7       1.7       2.3       7.2
15 O  px              2.5       0.1       3.1       0.0       0.1       2.9
15 O  py              2.0       2.8       0.9       4.3       0.7       2.0
16 O  s               0.2       0.5       0.9       0.1       0.2       0.1
16 O  pz              0.0       2.3       0.4       0.7       1.7       2.2
16 O  px              0.3       3.6       0.5       2.0       4.4       0.0
16 O  py              2.7       0.4       7.0       1.9       3.4       1.0
17 H  s               1.8       0.0       5.2       3.0       0.0       1.8
18 H  s               0.2       4.3       1.9       1.2       8.1       1.0
19 H  s               0.0       0.1       0.5       0.3       0.4       1.4
20 H  s               0.1       0.2       0.1       0.0       0.0       0.1
21 H  s               0.0       0.2       0.0       0.0       0.2       0.2
22 H  s               2.2       0.1       1.6       0.4       0.7       0.1
23 H  s               0.1       0.3       0.0       0.3       0.5       0.2

                     36        37        38        39        40        41   
                  -0.33104  -0.32261  -0.30327  -0.28742  -0.27991  -0.25981
                   2.00000   2.00000   2.00000   2.00000   2.00000   2.00000
                  --------  --------  --------  --------  --------  --------
 0 C  s               0.3       0.1       0.3       0.0       0.3       0.0
 0 C  pz              2.5       0.1       0.0       2.8       2.8       0.2
 0 C  px              1.1       0.0       0.2       0.2       0.6       0.1
 0 C  py              0.1       0.1       0.6       1.2       3.0       0.0
 0 C  dz2             0.1       0.0       0.0       0.0       0.0       0.0
 0 C  dxz             0.0       0.0       0.0       0.2       0.6       0.0
 0 C  dx2y2           0.0       0.0       0.0       0.2       0.1       0.0
 1 C  s               0.2       0.0       0.2       0.0       0.9       0.4
 1 C  pz              7.7       0.2       1.4       0.9       1.0       0.8
 1 C  px              4.5       0.4       0.2       0.2       0.0       0.2
 1 C  py              1.0       0.0       0.6       1.5       0.2       0.3
 1 C  dz2             0.2       0.0       0.0       0.0       0.1       0.0
 1 C  dxz             0.6       0.0       0.1       0.0       0.1       0.1
 1 C  dx2y2           0.0       0.1       0.1       0.1       0.1       0.4
 2 H  s              11.9       0.3       1.9       0.8       0.1       1.8
 3 C  s               0.7       0.4       0.2       0.2       0.0       0.2
 3 C  pz              0.0       0.1       1.2       0.9       0.4       0.0
 3 C  px              1.9       0.0       0.1       0.7       0.7       0.1
 3 C  py              0.4       0.1       2.3       0.6       2.3       1.7
 3 C  dz2             0.1       0.0       0.2       0.1       0.0       0.0
 3 C  dxz             0.2       0.0       0.1       0.4       0.2       0.0
 4 H  s               1.6       0.1       1.1       1.7       1.4       0.0
 5 C  s               0.3       0.0       0.3       0.8       0.5       0.5
 5 C  pz              0.1       0.2       1.3       1.7       0.7       0.4
 5 C  px              3.8       0.2       0.4       0.0       0.0       0.5
 5 C  py              0.7       0.1       2.2       0.1       0.7       0.0
 5 C  dz2             0.0       0.0       0.0       0.2       0.0       0.0
 5 C  dxz             0.1       0.2       0.3       0.0       0.0       0.0
 5 C  dyz             0.0       0.0       0.2       0.0       0.0       0.1
 5 C  dx2y2           0.0       0.0       0.0       0.0       0.0       0.1
 6 H  s               0.6       0.1       1.5       1.3       0.0       0.5
 7 C  s               0.4       0.4       0.5       0.1       0.2       0.2
 7 C  pz              0.2       5.7       1.3       0.3       0.3       2.0
[...]
 3 C  py              0.0       0.0       0.3       0.4       0.0       0.1
 3 C  dz2             0.0       0.1       4.1       2.7       0.0       0.3
 3 C  dxz             0.1       0.1       0.0       0.6       0.1       0.0
 3 C  dyz             0.0       0.0       1.8       3.1       0.2       0.1
 3 C  dx2y2           0.0       0.0       0.2       0.0       0.0       0.1
 3 C  dxy             0.0       0.0       0.0       0.1       0.2       0.0
 5 C  s               0.5       0.0       0.7       0.4       0.6       0.0
 5 C  pz              0.7       0.1       0.7       0.8       1.3       0.0
 5 C  dz2             2.5       0.2       3.8       1.4       3.3       0.2
 5 C  dxz             0.6       0.1       0.0       0.7       0.1       0.1
 5 C  dyz             0.0       0.0       0.1       0.3       0.6       0.0
 7 C  s               1.3       0.2       0.0       0.1       0.8       0.1
 7 C  pz              0.9       0.2       0.0       0.0       1.8       0.3
 7 C  px              0.2       0.1       0.0       0.0       0.4       0.0
 7 C  py              0.1       0.1       0.0       0.0       0.3       0.1
 7 C  dz2             1.3       0.3       0.1       0.2       3.0       0.3
 7 C  dxz             3.2       0.5       0.2       0.0       1.4       0.1
 7 C  dyz             1.3       0.2       0.4       0.1       1.6       0.0
 7 C  dx2y2           0.0       0.0       0.1       0.2       0.0       0.0
 7 C  dxy             0.1       0.0       0.0       0.0       0.1       0.1
 9 C  s               0.7       0.0       0.2       1.3       0.8       1.1
 9 C  pz              0.6       0.2       1.1       0.8       0.5       0.9
 9 C  px              0.0       0.1       0.1       0.3       0.2       1.6
 9 C  py              0.1       0.0       0.1       0.2       0.4       0.0
 9 C  dz2             0.4       0.1       0.9       1.4       2.5       0.5
 9 C  dxz             0.1       0.1       0.8       0.0       0.4       3.1
 9 C  dyz             2.6       0.1       1.8       2.1       0.7       0.0
 9 C  dx2y2           0.3       0.4       0.3       0.0       0.2       2.3
11 O  s               0.0       0.0       0.5       0.0       0.0       0.0
11 O  pz              0.0       0.1       0.1       0.0       0.0       0.2
11 O  px              0.0       0.2       0.1       0.2       0.2       5.7
11 O  py              0.0       0.1       0.0       0.0       0.0       0.4
11 O  dz2             0.0       1.3       0.1       0.2       0.0       3.1
11 O  dxz             0.2       0.6       2.3       0.3       1.1      33.6
11 O  dyz             0.0       0.0       0.0       0.0       0.0       0.5
11 O  dx2y2           0.3       0.9       1.3       0.1       1.4       1.6
11 O  dxy             2.5       1.8       0.2       3.5       1.1      19.0
12 O  s               0.6       0.0       0.9       1.7       1.4       0.1
12 O  pz              0.6       0.1       0.6       0.8       0.5       0.1
12 O  py              0.3       0.0       0.4       0.7       0.8       0.0
12 O  dz2            10.2       1.3       8.8       8.2       4.1       0.7
12 O  dxz             0.1       0.0       0.0       0.0       0.4       0.1
12 O  dyz             4.8       0.4       6.1       9.4       8.4       0.5
12 O  dx2y2           0.0       0.0       0.0       0.1       0.5       0.2
12 O  dxy             0.0       0.0       0.0       0.0       0.1       0.0
13 O  s               1.5       0.3       0.0       0.1       3.4       0.4
13 O  pz              1.1       0.2       0.0       0.0       1.2       0.1
13 O  px              0.5       0.1       0.0       0.0       0.7       0.1
13 O  py              0.6       0.1       0.0       0.0       0.5       0.1
13 O  dz2            14.2       2.3       0.0       0.0       7.7       0.3
13 O  dxz             8.3       1.7       0.0       0.1      12.9       0.6
13 O  dyz             6.2       1.2       0.6       0.5       4.4       0.5
13 O  dx2y2           0.1       0.0       0.1       0.1       0.4       0.0
13 O  dxy             0.3       0.1       0.1       0.1       0.8       0.4
14 O  s               0.6       0.1       1.0       1.3       2.1       0.0
14 O  pz              0.9       0.1       1.0       0.9       1.4       0.0
14 O  px              0.1       0.0       0.3       0.1       0.3       0.0
14 O  dz2            13.1       0.9      12.7      11.7      15.9       0.3
14 O  dxz             0.3       0.0       2.3       0.1       2.0       0.3
14 O  dyz             2.3       0.1       1.4       0.2       0.3       0.0
14 O  dxy             0.3       0.0       0.4       0.0       0.0       0.0
15 O  s               0.0       0.1       1.8       3.1       0.1       0.3
15 O  pz              0.0       0.0       1.7       1.9       0.1       0.1
15 O  px              0.0       0.0       0.4       0.2       0.0       0.0
15 O  py              0.0       0.0       0.2       0.2       0.0       0.1
15 O  dz2             0.2       0.0      12.8      16.8       0.9       0.5
15 O  dxz             0.1       0.1       2.0       0.1       0.0       0.2
15 O  dyz             0.1       0.3      15.0      13.3       0.2       1.3
15 O  dx2y2           0.0       0.1       1.4       0.7       0.0       0.3
15 O  dxy             0.0       0.0       1.2       0.2       0.0       0.1
16 O  s               0.4       3.5       0.0       0.0       0.1       0.5
16 O  px              0.4       3.3       0.0       0.0       0.1       0.3
16 O  py              0.1       0.5       0.0       0.0       0.0       0.0
16 O  dz2             1.6      12.8       0.0       0.0       0.2       0.3
16 O  dxz             0.6       5.2       0.1       0.0       0.1       1.0
16 O  dyz             0.1       0.6       0.0       0.0       0.0       0.1
16 O  dx2y2           1.0       9.8       0.1       0.0       0.2       1.4
16 O  dxy             3.7      28.4       0.0       0.0       0.4       0.9
19 H  s               0.2       0.0       0.2       0.2       0.1       0.0
20 H  s               0.4       0.1       0.0       0.0       0.2       0.0
21 H  s               0.3       0.0       0.2       0.1       0.1       0.0
22 H  s               0.0       0.0       0.3       0.3       0.0       0.0
23 H  s               0.1       0.6       0.0       0.0       0.0       0.0



                      *****************************
                      * MAYER POPULATION ANALYSIS *
                      *****************************

  NA   - Mulliken gross atomic population
  ZA   - Total nuclear charge
  QA   - Mulliken gross atomic charge
  VA   - Mayer's total valence
  BVA  - Mayer's bonded valence
  FA   - Mayer's free valence

  ATOM       NA         ZA         QA         VA         BVA        FA
  0 C      6.0007     6.0000    -0.0007     3.9330     3.9330     0.0000
  1 C      5.9847     6.0000     0.0153     4.0494     4.0494    -0.0000
  2 H      0.9391     1.0000     0.0609     0.9793     0.9793     0.0000
  3 C      5.9321     6.0000     0.0679     3.9550     3.9550     0.0000
  4 H      0.9383     1.0000     0.0617     1.0025     1.0025    -0.0000
  5 C      5.9602     6.0000     0.0398     4.0298     4.0298    -0.0000
  6 H      0.9465     1.0000     0.0535     0.9783     0.9783    -0.0000
  7 C      5.9927     6.0000     0.0073     3.9717     3.9717    -0.0000
  8 H      0.9121     1.0000     0.0879     0.9789     0.9789     0.0000
  9 C      5.7972     6.0000     0.2028     4.1603     4.1603     0.0000
 10 H      0.9330     1.0000     0.0670     0.9774     0.9774    -0.0000
 11 O      8.3171     8.0000    -0.3171     2.1733     2.1733     0.0000
 12 O      8.3834     8.0000    -0.3834     2.0586     2.0586     0.0000
 13 O      8.4168     8.0000    -0.4168     2.0274     2.0274    -0.0000
 14 O      8.3934     8.0000    -0.3934     2.0393     2.0393    -0.0000
 15 O      8.4332     8.0000    -0.4332     2.0100     2.0100    -0.0000
 16 O      8.4319     8.0000    -0.4319     2.0103     2.0103    -0.0000
 17 H      0.9349     1.0000     0.0651     0.9596     0.9596    -0.0000
 18 H      0.8757     1.0000     0.1243     1.0126     1.0126    -0.0000
 19 H      0.6956     1.0000     0.3044     0.8901     0.8901     0.0000
 20 H      0.6873     1.0000     0.3127     0.8781     0.8781    -0.0000
 21 H      0.6895     1.0000     0.3105     0.8773     0.8773    -0.0000
 22 H      0.7017     1.0000     0.2983     0.9281     0.9281    -0.0000
 23 H      0.7029     1.0000     0.2971     0.8821     0.8821    -0.0000

  Mayer bond orders larger than 0.100000
B(  0-C ,  1-C ) :   1.0278 B(  0-C , 16-O ) :   1.0417 B(  0-C , 17-H ) :   0.9163 
B(  0-C , 18-H ) :   0.8912 B(  1-C ,  2-H ) :   0.8965 B(  1-C ,  3-C ) :   1.0072 
B(  1-C , 11-O ) :   0.9899 B(  3-C ,  4-H ) :   0.8804 B(  3-C ,  5-C ) :   0.9572 
B(  3-C , 15-O ) :   1.0493 B(  5-C ,  6-H ) :   0.9027 B(  5-C ,  7-C ) :   0.9823 
B(  5-C , 14-O ) :   1.0837 B(  7-C ,  8-H ) :   0.8881 B(  7-C ,  9-C ) :   0.9986 
B(  7-C , 13-O ) :   1.0482 B(  9-C , 10-H ) :   0.9009 B(  9-C , 11-O ) :   1.0639 
B(  9-C , 12-O ) :   1.1421 B( 12-O , 19-H ) :   0.8382 B( 13-O , 20-H ) :   0.8414 
B( 14-O , 21-H ) :   0.8384 B( 15-O , 22-H ) :   0.8227 B( 16-O , 23-H ) :   0.8516 


-------
TIMINGS
-------

Total SCF time: 0 days 0 hours 0 min 9 sec 

Total time                  ....       9.588 sec
Sum of individual times     ....       9.209 sec  ( 96.1%)

SCF preparation             ....       0.177 sec  (  1.8%)
Fock matrix formation       ....       8.291 sec  ( 86.5%)
  Startup                   ....       0.054 sec  (  0.7% of F)
  Split-RI-J                ....       3.749 sec  ( 45.2% of F)
  XC integration            ....       4.086 sec  ( 49.3% of F)
    Basis function eval.    ....       1.382 sec  ( 33.8% of XC)
    Density eval.           ....       0.785 sec  ( 19.2% of XC)
    XC-Functional eval.     ....       0.277 sec  (  6.8% of XC)
    XC-Potential eval.      ....       1.042 sec  ( 25.5% of XC)
Diagonalization             ....       0.000 sec  (  0.0%)
Density matrix formation    ....       0.164 sec  (  1.7%)
Total Energy calculation    ....       0.026 sec  (  0.3%)
Population analysis         ....       0.103 sec  (  1.1%)
Orbital Transformation      ....       0.057 sec  (  0.6%)
Orbital Orthonormalization  ....       0.000 sec  (  0.0%)
DIIS solution               ....       0.309 sec  (  3.2%)
  MO trafo                  ....       0.000 sec  (  0.0 % of DIIS)
  Orb grad                  ....       0.000 sec  (  0.0 % of DIIS)
  Energy W gradient         ....       0.000 sec  (  0.0 % of DIIS)
  DIIS error                ....       0.007 sec  (  2.1 % of DIIS)
  DIIS work                 ....       0.262 sec  ( 84.7 % of DIIS)
  Form Q                    ....       0.000 sec  (  0.0 % of DIIS)
  Form QpQm                 ....       0.000 sec  (  0.0 % of DIIS)
  Exp/Cayley                ....       0.000 sec  (  0.0 % of DIIS)
  Orb update                ....       0.000 sec  (  0.0 % of DIIS)
  Wake-sleep                ....       0.013 sec  (  4.2 % of DIIS)
SOSCF solution              ....       0.083 sec  (  0.9%)
  MO trafo                  ....       0.045 sec  ( 54.2 % of SOSCF)
  Orb grad                  ....       0.001 sec  (  1.3 % of SOSCF)
  Rot update                ....       0.017 sec  ( 20.6 % of SOSCF)
  Step                      ....       0.020 sec  ( 23.7 % of SOSCF)
Finished LeanSCF after   9.7 sec

Maximum memory used throughout the entire LEANSCF-calculation: 18.6 MB


-------------------------------------------------------------------------------
                          DFT DISPERSION CORRECTION                            
                                                                               
                                DFTD4 V3.4.0                                   
-------------------------------------------------------------------------------
The PBE functional is recognized
Active option DFTDOPT                   ...         5   

-------------------------   ----------------
Dispersion correction           -0.025825117
-------------------------   ----------------

------------------   -----------------
gCP correction             0.156301062
------------------   -----------------

-------------------------   --------------------
FINAL SINGLE POINT ENERGY      -685.693263945510
-------------------------   --------------------


------------------------------------------------------------------------------
                              ORCA PROPERTY CALCULATIONS
------------------------------------------------------------------------------

GBWName                                 ... sp.gbw
Number of atoms                         ...     24
Number of basis functions               ...    192
Max core memory                         ...   1024 MB

Electric properties:
Dipole moment                           ... YES
Quadrupole moment                       ...  NO
Static polarizability (Dipole/Dipole)   ...  NO
Static polarizability (Dipole/Quad.)    ...  NO
Static polarizability (Quad./Quad.)     ...  NO
Static polarizability (Velocity)        ...  NO

Atomic electric properties:
Dipole moment                           ...  NO
Quadrupole moment                       ...  NO
Static polarizability                   ...  NO

Choice of electric origin               ... Center of mass
Position of electric origin             ...    -0.000002    -0.000000    -0.000001

General magnetic properties:
Magnetizability                         ...  NO

EPR properties:
g-Tensor (aka g-matrix)                 ...  NO
Zero-Field splitting spin-orbit         ...  NO
Zero-field splitting spin-spin          ...  NO
Hyperfine couplings                     ...  NO (   0 nuclei)
Quadrupole couplings                    ...  NO (   0 nuclei)
Contact density                         ...  NO (   0 nuclei)

NMR properties:
Chemical shifts                         ...  NO (   0 nuclei)
Spin-rotation constants                 ...  NO (   0 nuclei)
Spin-spin couplings                     ...  NO (   0 nuclei,    0 pairs)

Choice of magnetic origin               ... GIAO
Position of magnetic origin             ...     0.000000     0.000000     0.000000

Properties with geometric perturbations:
SCF Hessian                             ...  NO
IR spectrum                             ...  NO
VCD spectrum                            ...  NO
X-ray spectroscopy properties:
SCF XES/XAS/RIXS spectra                ...  NO


-------------
DIPOLE MOMENT
-------------

Method             : SCF
Type of density    : Electron Density
Multiplicity       :   1
Irrep              :   0
Energy             :  -685.8237398898002084 Eh
Relativity type    : 
Basis              : AO
                                X                 Y                 Z
Electronic contribution:      1.417653951      -0.143482939       1.059096569
Nuclear contribution   :     -1.077269939       0.067398589      -1.069613328
                        -----------------------------------------
Total Dipole Moment    :      0.340384012      -0.076084350      -0.010516758
                        -----------------------------------------
Magnitude (a.u.)       :      0.348942267
Magnitude (Debye)      :      0.886940757



--------------------
Rotational spectrum 
--------------------
 
Rotational constants in cm-1:             0.040307             0.028758             0.024938 
Rotational constants in MHz :          1208.382179           862.134248           747.608332 

Dipole components along the rotational axes: 
x,y,z [a.u.] :     0.301082     0.175812    -0.014164 
x,y,z [Debye]:     0.765289     0.446879    -0.036001 

 

Dipole moment calculation done in   0.0 sec 

Maximum memory used throughout the entire PROP-calculation: 12.1 MB

--------------------------------
SUGGESTED CITATIONS FOR THIS RUN
--------------------------------

Below you find a list of papers that are relevant to this ORCA run
We neither can nor want to force you to cite these papers, but we appreciate if you do
You receive ORCA, which is the product of decades of hard work by many enthusiastic individuals, for free
The only thing we kindly ask in return is that you cite our papers,
We deeply appreciate it, if you show your appreciation for ORCA by not just citing the generic ORCA reference.

Please note that relegating all ORCA citations to the supporting information does *not* help us.
SI sections are not indexed - citations you put there will not count into any citation statistics
But we need these citations in order to attract the funding resources that allow us to do what we are doing

Therefore, if you are a happy ORCA user, please consider citing a few of the papers listed below in the main body of your paper

In addition to the list printed below, the program has created the file sp.bibtex that contains the list in bibtex format
You can import this file easily into all common literature databanks and citation aid programs


List of essential papers. We consider these as the minimum necessary citations

  1. Neese,F.
     Software update: the ORCA program system, version 5.0
     WIRES Comput. Molec. Sci., 2022 12(1)e1606
     doi.org/10.1002/wcms.1606

List of papers to cite with high priority. The work reported in these papers was absolutely
necessary for this run to complete.
Our perspective: the developers of density functionals and basis sets usually get cited in chemistry papers
Good! But without the algorithms to do something with them, the functionals or basis sets would not do anything.
Hence, in our opinion, the algorithm design and method developments papers are equally worthy of getting cited

  1. Neese,F.
     An improvement of the resolution of the identity approximation for the formation of the Coulomb matrix
     J. Comp. Chem., 2003 24(14)1740-1747
     doi.org/10.1002/jcc.10318
  2. Neese,F.
     The SHARK Integral Generation and Digestion System
     J. Comp. Chem., 2022  1-16
     doi.org/10.1002/jcc.26942
  3. Caldeweyher,E.; Bannwarth,C.; Grimme,S.
     Extension of the D3 dispersion coefficient model
     J. Chem. Phys., 2017 147 034112-XXXX
     doi.org/10.1063/1.4993215
  4. Caldeweyher,E.; Ehlert,S.; Hansen,A.; Neugebauer,H.; Spicher,S.; Bannwarth,C.; Grimme,S.
     A generally applicable atomic-charge dependent London dispersion correction
     J. Chem. Phys., 2019 150 154122-XXXX
     doi.org/10.1063/1.5090222
  5. Caldeweyher,E.; Mewes,J.; Ehlert,S.; Grimme,S.
     Extension and evaluation of the D4 London-dispersion model for periodic systems
     Phys. Chem. Chem. Phys., 2020 22(16)8499-8512
     doi.org/10.1039/D0CP00502A

List of suggested additional citations. These are papers that are important in the 'surrounding' of 
of this run, or papers that preceded the highly important papers. If you like your results we are grateful for a citation.

  1. Neese,F.
     The ORCA program system
     WIRES Comput. Molec. Sci., 2012 2(1)73-78
     doi.org/10.1002/wcms.81
  2. Neese,F.
     Software update: the ORCA program system, version 4.0
     WIRES Comput. Molec. Sci., 2018 8(1)1-6
     doi.org/10.1002/wcms.1327
  3. Neese,F.; Wennmohs,F.; Becker,U.; Riplinger,C.
     The ORCA quantum chemistry program package
     J. Chem. Phys., 2020 152 Art. No. L224108
     doi.org/10.1063/5.0004608

List of optional additional citations

  1. Neese,F.
     Approximate second-order SCF convergence for spin unrestricted wavefunctions
     Chem. Phys. Lett., 2000 325(1-3)93-98
     doi.org/10.1016/s0009-2614(00)00662-x

Timings for individual modules:

Sum of individual times          ...       11.818 sec (=   0.197 min)
Startup calculation              ...        0.930 sec (=   0.016 min)   7.9 %
SCF iterations                   ...       10.789 sec (=   0.180 min)  91.3 %
Property calculations            ...        0.099 sec (=   0.002 min)   0.8 %
                             ****ORCA TERMINATED NORMALLY****
TOTAL RUN TIME: 0 days 0 hours 0 minutes 12 seconds 521 msec
