
                                 *****************
                                 * O   R   C   A *
                                 *****************

                                            #,                                       
                                            ###                                      
                                            ####                                     
                                            #####                                    
                                            ######                                   
                                           ########,                                 
                                     ,,################,,,,,                         
                               ,,#################################,,                 
                          ,,##########################################,,             
                       ,#########################################, ''#####,          
                    ,#############################################,,   '####,        
                  ,##################################################,,,,####,       
                ,###########''''           ''''###############################       
              ,#####''   ,,,,##########,,,,          '''####'''          '####       
            ,##' ,,,,###########################,,,                        '##       
           ' ,,###''''                  '''############,,,                           
         ,,##''                                '''############,,,,        ,,,,,,###''
      ,#''                                            '''#######################'''  
     '                                                          ''''####''''         
             ,#######,   #######,   ,#######,      ##                                
            ,#'     '#,  ##    ##  ,#'     '#,    #''#        ,####,   ,####,        
            ##       ##  ##   ,#'  ##            #'  '#       #'       #'  '#        
            ##       ##  #######   ##           ,######,      #####,   #    #        
            '#,     ,#'  ##    ##  '#,     ,#' ,#      #,     #,   #   #,  ,#        
             '#######'   ##     ##  '#######'  #'      '#     '####' # '####'        



                #########################################################
                #                        -***-                          #
                #          Department of theory and spectroscopy        #
                #                                                       #
                #                      Frank Neese                      #
                #                                                       #
                #     Directorship, Architecture, Infrastructure        #
                #                    SHARK, DRIVERS                     #
                #        Core code/Algorithms in most modules           #
                #                                                       #
                #        Max Planck Institute fuer Kohlenforschung      #
                #                Kaiser Wilhelm Platz 1                 #
                #                 D-45470 Muelheim/Ruhr                 #
                #                      Germany                          #
                #                                                       #
                #                  All rights reserved                  #
                #                        -***-                          #
                #########################################################


                         Program Version 6.0.0  -   RELEASE  -


 With contributions from (in alphabetic order):
   Daniel Aravena         : Magnetic Suceptibility
   Michael Atanasov       : Ab Initio Ligand Field Theory (pilot matlab implementation)
   Alexander A. Auer      : GIAO ZORA, VPT2 properties, NMR spectrum
   Ute Becker             : All parallelization in ORCA, NUMFREQ, NUMCALC
   Giovanni Bistoni       : ED, misc. LED, open-shell LED, HFLD
   Martin Brehm           : Molecular dynamics
   Dmytro Bykov           : pre 5.0 version of the SCF Hessian
   Marcos Casanova-Páez   : Triplet and SCS-CIS(D). UHF-(DLPNO)-IP/EA/STEOM-CCSD. UHF-CVS-IP/STEOM-CCSD
   Vijay G. Chilkuri      : MRCI spin determinant printing, contributions to CSF-ICE
   Pauline Colinet        : FMM embedding
   Dipayan Datta          : RHF DLPNO-CCSD density
   Achintya Kumar Dutta   : EOM-CC, STEOM-CC
   Nicolas Foglia         : Exact transition moments, OPA infrastructure, MCD improvements
   Dmitry Ganyushin       : Spin-Orbit,Spin-Spin,Magnetic field MRCI
   Miquel Garcia          : C-PCM and meta-GGA Hessian, CCSD/C-PCM, Gaussian charge scheme
   Tiago L. C. Gouveia    : GS-ROHF, GS-ROCIS
   Yang Guo               : DLPNO-NEVPT2, F12-NEVPT2, CIM, IAO-localization
   Andreas Hansen         : Spin unrestricted coupled pair/coupled cluster methods
   Ingolf Harden          : AUTO-CI MPn and infrastructure 
   Benjamin Helmich-Paris : MC-RPA, TRAH-(SCF,CASSCF), AVAS, COSX integrals, SCF dyn. polar.
   Lee Huntington         : MR-EOM, pCC
   Robert Izsak           : Overlap fitted RIJCOSX, COSX-SCS-MP3, EOM
   Riya Kayal             : Wick's Theorem for AUTO-CI, AUTO-CI UHF-CCSDT
   Emily Kempfer          : AUTO-CI, RHF CISDT and CCSDT
   Christian Kollmar      : KDIIS, OOCD, Brueckner-CCSD(T), CCSD density, CASPT2, CASPT2-K, improved NEVPT2
   Axel Koslowski         : Symmetry handling
   Simone Kossmann        : Meta GGA functionals, TD-DFT gradient, OOMP2, (MP2 Hessian; deprecated post 5.0)
   Lucas Lang             : DCDCAS
   Marvin Lechner         : AUTO-CI (C++ implementation), FIC-MRCC
   Spencer Leger          : CASSCF response
   Dagmar Lenk            : GEPOL surface, SMD, ORCA-2-JSON
   Dimitrios Liakos       : Extrapolation schemes; Compound Job, initial MDCI parallelization
   Dimitrios Manganas     : Further ROCIS development; embedding schemes. LFT, Crystal Embedding
   Dimitrios Pantazis     : SARC Basis sets
   Anastasios Papadopoulos: AUTO-CI, single reference methods and gradients
   Taras Petrenko         : pre 6.0 DFT Hessian and TD-DFT gradient, (ASA, deprecated), ECA, 1-Electron XAS/XES, NRVS
   Peter Pinski           : DLPNO-MP2, DLPNO-MP2 Gradient
   Christoph Reimann      : Effective Core Potentials
   Marius Retegan         : Local ZFS, SOC
   Christoph Riplinger    : Optimizer, TS searches, QM/MM, DLPNO-CCSD(T), (RO)-DLPNO pert. Triples
   Michael Roemelt        : Original ROCIS implementation
   Masaaki Saitow         : Open-shell DLPNO-CCSD energy and density
   Barbara Sandhoefer     : DKH picture change effects
   Kantharuban Sivalingam : CASSCF convergence/infrastructure, NEVPT2 and variants, FIC-MRCI
   Bernardo de Souza      : ESD, SOC TD-DFT
   Georgi Stoychev        : AutoAux, RI-MP2 NMR, DLPNO-MP2 response, X2C
   Van Anh Tran           : RI-MP2 g-tensors
   Willem Van den Heuvel  : Paramagnetic NMR
   Zikuan Wang            : NOTCH, Electric field optimization 
   Frank Wennmohs         : Technical directorship and infrastructure
   Hang Xu                : AUTO-CI-Response properties 


 We gratefully acknowledge several colleagues who have allowed us to
 interface, adapt or use parts of their codes:
   Stefan Grimme, W. Hujo, H. Kruse, P. Pracht,  : VdW corrections, initial TS optimization,
                  C. Bannwarth, S. Ehlert,         DFT functionals, gCP, sTDA/sTD-DF
                  L. Wittmann, M. Mueller
   Ed Valeev, F. Pavosevic, A. Kumar             : LibInt (2-el integral package), F12 methods
   Garnet Chan, S. Sharma, J. Yang, R. Olivares  : DMRG
   Ulf Ekstrom                                   : XCFun DFT Library
   Mihaly Kallay                                 : mrcc  (arbitrary order and MRCC methods)
   Frank Weinhold                                : gennbo (NPA and NBO analysis)
   Simon Mueller                                 : openCOSMO-RS
   Christopher J. Cramer and Donald G. Truhlar   : smd solvation model
   Lars Goerigk                                  : TD-DFT with DH, B97 family of functionals
   V. Asgeirsson, H. Jonsson                     : NEB implementation
   FAccTs GmbH                                   : IRC, NEB, NEB-TS, DLPNO-Multilevel, CI-OPT
                                                   MM, QMMM, 2- and 3-layer-ONIOM, Crystal-QMMM,
                                                   LR-CPCM, SF, NACMEs, symmetry and pop. for TD-DFT,
                                                   nearIR, NL-DFT gradient (VV10), updates on ESD,
                                                   ML-optimized integration grids, MBIS, APM,
                                                   GOAT, DOCKER, SOLVATOR, interface openCOSMO-RS
   S Lehtola, MJT Oliveira, MAL Marques          : LibXC Library
   Liviu Ungur et al                             : ANISO software


 Your calculation uses the libint2 library for the computation of 2-el integrals
 For citations please refer to: http://libint.valeyev.net

 Your ORCA version has been built with support for libXC version: 6.2.2
 For citations please refer to: https://libxc.gitlab.io

 This ORCA versions uses:
   CBLAS   interface :  Fast vector & matrix operations
   LAPACKE interface :  Fast linear algebra routines
   SCALAPACK package :  Parallel linear algebra routines
   Shared memory     :  Shared parallel matrices
   BLAS/LAPACK       :  OpenBLAS 0.3.27  USE64BITINT DYNAMIC_ARCH NO_AFFINITY SkylakeX SINGLE_THREADED
        Core in use  :  SkylakeX
   Copyright (c) 2011-2014, The OpenBLAS Project


Your calculation utilizes the geometrical counterpoise correction gCP
Please cite in your paper:
H.Kruse, S. Grimme J.Chem.Phys., 136, (2012), 154101 
   

Your calculation utilizes the atom-pairwise dispersion correction
based on EEQ partial charges (D4)


================================================================================

----- Orbital basis set information -----
Your calculation utilizes the basis: def2-SV(P)
   F. Weigend and R. Ahlrichs, Phys. Chem. Chem. Phys. 7, 3297 (2005).

----- AuxJ basis set information -----
Your calculation utilizes the auxiliary basis: def2/J
   F. Weigend, Phys. Chem. Chem. Phys. 8, 1057 (2006).

================================================================================
                                        WARNINGS
                       Please study these warnings very carefully!
================================================================================


================================================================================
                                       INPUT FILE
================================================================================
NAME = sp.inp
|  1> ! pbe def2-sv(p) def2/J RI DEFGRID1 loosescf d4 GCP(DFT/SV(P)) printgap
|  2> %output
|  3>     printlevel normal
|  4> end
|  5> * xyz 0 1
|  6> C 2.2069e-06 3.8881e-06 3.5171e-06
|  7> H 0.5954582155 -0.1889201225 0.8831989729
|  8> H 0.6500649109 0.26582556 -0.8228695518
|  9> H -0.5592418233 -0.8902665719 -0.2551652192
| 10> H -0.6863076004 0.8133148027 0.1947938875
| 11> *
| 12> 
| 13>                          ****END OF INPUT****
================================================================================

                       ****************************
                       * Single Point Calculation *
                       ****************************

---------------------------------
CARTESIAN COORDINATES (ANGSTROEM)
---------------------------------
  C      0.000002    0.000004    0.000004
  H      0.595458   -0.188920    0.883199
  H      0.650065    0.265826   -0.822870
  H     -0.559242   -0.890267   -0.255165
  H     -0.686308    0.813315    0.194794

----------------------------
CARTESIAN COORDINATES (A.U.)
----------------------------
  NO LB      ZA    FRAG     MASS         X           Y           Z
   0 C     6.0000    0    12.011    0.000004    0.000007    0.000007
   1 H     1.0000    0     1.008    1.125253   -0.357007    1.669004
   2 H     1.0000    0     1.008    1.228445    0.502338   -1.554998
   3 H     1.0000    0     1.008   -1.056814   -1.682360   -0.482192
   4 H     1.0000    0     1.008   -1.296933    1.536942    0.368107

--------------------------------
INTERNAL COORDINATES (ANGSTROEM)
--------------------------------
 C      0   0   0     0.000000000000     0.00000000     0.00000000
 H      1   0   0     1.081801438853     0.00000000     0.00000000
 H      1   2   0     1.081833059166   109.46003540     0.00000000
 H      1   2   3     1.081871739740   109.47392866   120.00056488
 H      1   2   3     1.081868330160   109.47958336   239.99518886

---------------------------
INTERNAL COORDINATES (A.U.)
---------------------------
 C      0   0   0     0.000000000000     0.00000000     0.00000000
 H      1   0   0     2.044308450714     0.00000000     0.00000000
 H      1   2   0     2.044368204446   109.46003540     0.00000000
 H      1   2   3     2.044441300137   109.47392866   120.00056488
 H      1   2   3     2.044434856966   109.47958336   239.99518886

---------------------
BASIS SET INFORMATION
---------------------
There are 2 groups of distinct atoms

 Group   1 Type C   : 7s4p1d contracted to 3s2p1d pattern {511/31/1}
 Group   2 Type H   : 4s contracted to 2s pattern {31}

Atom   0C    basis set group =>   1
Atom   1H    basis set group =>   2
Atom   2H    basis set group =>   2
Atom   3H    basis set group =>   2
Atom   4H    basis set group =>   2
---------------------------------
AUXILIARY/J BASIS SET INFORMATION
---------------------------------
There are 2 groups of distinct atoms

 Group   1 Type C   : 12s5p4d2f1g contracted to 6s4p3d1f1g pattern {711111/2111/211/2/1}
 Group   2 Type H   : 5s2p1d contracted to 3s1p1d pattern {311/2/1}

Atom   0C    basis set group =>   1
Atom   1H    basis set group =>   2
Atom   2H    basis set group =>   2
Atom   3H    basis set group =>   2
Atom   4H    basis set group =>   2
------------------------------------------------------------------------------
                             ORCA STARTUP CALCULATIONS
                           -- RI-GTO INTEGRALS CHOSEN --
------------------------------------------------------------------------------
------------------------------------------------------------------------------
                   ___                                                        
                  /   \      - P O W E R E D   B Y -                         
                 /     \                                                     
                 |  |  |   _    _      __       _____    __    __             
                 |  |  |  | |  | |    /  \     |  _  \  |  |  /  |          
                  \  \/   | |  | |   /    \    | | | |  |  | /  /          
                 / \  \   | |__| |  /  /\  \   | |_| |  |  |/  /          
                |  |  |   |  __  | /  /__\  \  |    /   |      \           
                |  |  |   | |  | | |   __   |  |    \   |  |\   \          
                \     /   | |  | | |  |  |  |  | |\  \  |  | \   \       
                 \___/    |_|  |_| |__|  |__|  |_| \__\ |__|  \__/        
                                                                              
                      - O R C A' S   B I G   F R I E N D -                    
                                      &                                       
                       - I N T E G R A L  F E E D E R -                       
                                                                              
 v1 FN, 2020, v2 2021, v3 2022-2024                                           
------------------------------------------------------------------------------


----------------------
SHARK INTEGRAL PACKAGE
----------------------

Number of atoms                             ...      5
Number of basis functions                   ...     22
Number of shells                            ...     14
Maximum angular momentum                    ...      2
Integral batch strategy                     ... SHARK/LIBINT Hybrid
RI-J (if used) integral strategy            ... SPLIT-RIJ (Revised 2003 algorithm where possible)
Printlevel                                  ...      1
Contraction scheme used                     ... SEGMENTED contraction
Prescreening option                         ... SCHWARTZ
   Thresh                                   ... 1.000e-09
   Tcut                                     ... 1.000e-10
   Tpresel                                  ... 1.000e-10 
Coulomb Range Separation                    ... NOT USED
Exchange Range Separation                   ... NOT USED
Multipole approximations                    ... NOT USED
Finite Nucleus Model                        ... NOT USED
CABS basis                                  ... NOT available
Auxiliary Coulomb fitting basis             ... AVAILABLE
   # of basis functions in Aux-J            ...     93
   # of shells in Aux-J                     ...     35
   Maximum angular momentum in Aux-J        ...      4
Auxiliary J/K fitting basis                 ... NOT available
Auxiliary Correlation fitting basis         ... NOT available
Auxiliary 'external' fitting basis          ... NOT available

Checking pre-screening integrals            ... done (  0.0 sec) Dimension = 14
Check shell pair data                       ... done (  0.0 sec)
Shell pair information
Shell pair cut-off parameter TPreSel        ...   1.0e-10
Total number of shell pairs                 ...       105
Shell pairs after pre-screening             ...       105
Total number of primitive shell pairs       ...       431
Primitive shell pairs kept                  ...       409
          la=0 lb=0:     66 shell pairs
          la=1 lb=0:     22 shell pairs
          la=1 lb=1:      3 shell pairs
          la=2 lb=0:     11 shell pairs
          la=2 lb=1:      2 shell pairs
          la=2 lb=2:      1 shell pairs

Calculating one electron integrals          ... done (  0.0 sec)
Calculating RI/J V-Matrix + Cholesky decomp.... done (  0.0 sec)
Calculating Nuclear repulsion               ... done (  0.0 sec) ENN=     13.536682809486 Eh

Diagonalization of the overlap matrix:
Smallest eigenvalue                        ... 1.383e-02
Time for diagonalization                   ...    0.000 sec
Threshold for overlap eigenvalues          ... 1.000e-07
Number of eigenvalues below threshold      ... 0
Time for construction of square roots      ...    0.010 sec
Total time needed                          ...    0.018 sec

-------------------
DFT GRID GENERATION
-------------------

General Integration Accuracy     IntAcc      ... 4.159
Radial Grid Type                 RadialGrid  ... OptM3 with GC (2021)
Angular Grid (max. ang.)         AngularGrid ... 3 (Lebedev-194)
Angular grid pruning method      GridPruning ... 4 (adaptive)
Weight generation scheme         WeightScheme... mBecke (2022)
Basis function cutoff            BFCut       ... 1.0000e-10
Integration weight cutoff        WCut        ... 1.0000e-14
Partially contracted basis set               ... off
Rotationally invariant grid construction     ... off
Angular grids for H and He will be reduced by one unit

Total number of grid points                  ...     9221
Total number of batches                      ...      147
Average number of points per batch           ...       62
Average number of grid points per atom       ...     1844
Initializing property integral containers    ... done (  0.0 sec)

SHARK setup successfully completed in   0.2 seconds

Maximum memory used throughout the entire STARTUP-calculation: 8.7 MB
-------------------------------------------------------------------------------
                                 ORCA GUESS
                   Start orbitals & Density for SCF / CASSCF
-------------------------------------------------------------------------------

------------
SCF SETTINGS
------------
Hamiltonian:
 Density Functional     Method          .... DFT(GTOs)
 Exchange Functional    Exchange        .... PBE
   PBE kappa parameter   XKappa         ....  0.804000
   PBE mue parameter    XMuePBE         ....  0.219520
 Correlation Functional Correlation     .... PBE
   PBE beta parameter  CBetaPBE         ....  0.066725
 LDA part of GGA corr.  LDAOpt          .... PW91-LDA
 Gradients option       PostSCFGGA      .... off
   NL short-range parameter             ....  6.400000
 RI-approximation to the Coulomb term is turned on
   Number of AuxJ basis functions       .... 93


General Settings:
 Integral files         IntName         .... sp
 Hartree-Fock type      HFTyp           .... RHF
 Total Charge           Charge          ....    0
 Multiplicity           Mult            ....    1
 Number of Electrons    NEL             ....   10
 Basis Dimension        Dim             ....   22
 Nuclear Repulsion      ENuc            ....     13.5366828095 Eh

Convergence Acceleration:
 AO-DIIS                CNVDIIS         .... on
   Start iteration      DIISMaxIt       ....    12
   Startup error        DIISStart       ....  0.200000
   # of expansion vecs  DIISMaxEq       ....     5
   Bias factor          DIISBfac        ....   1.050
   Max. coefficient     DIISMaxC        ....  10.000
 MO-DIIS                CNVKDIIS        .... off
 Trust-Rad. Augm. Hess. CNVTRAH         .... auto
   Auto Start mean grad. ratio tolernc. ....  1.125000
   Auto Start start iteration           ....    50
   Auto Start num. interpolation iter.  ....    10
   Max. Number of Micro iterations      ....    24
   Max. Number of Macro iterations      .... Maxiter - #DIIS iter
   Number of Davidson start vectors     ....     2
   Converg. threshold    (grad. norm)   ....   1.000e-04
   Grad. Scal. Fac. for Micro threshold ....   0.100
   Minimum threshold for Micro iter.    ....   1.000e-02
   NR start threshold (gradient norm)   ....   1.000e-04
   Initial trust radius                 ....   0.400
   Minimum AH scaling param. (alpha)    ....   1.000
   Maximum AH scaling param. (alpha)    .... 1000.000
   Quad. conv. algorithm                .... NR
   White noise on init. David. guess    .... on
   Maximum white noise                  ....   0.010
   Pseudo random numbers                .... off
   Inactive MOs                         .... canonical
   Orbital update algorithm             .... Taylor
   Preconditioner                       .... Diag
   Full preconditioner red. dimension   ....   250
 SOSCF                  CNVSOSCF        .... on
   Start iteration      SOSCFMaxIt      ....   150
   Startup grad/error   SOSCFStart      ....  0.003300
   Hessian update       SOSCFHessUp     .... L-BFGS
 Level Shifting         CNVShift        .... on
   Level shift para.    LevelShift      ....    0.2500
   Turn off err/grad.   ShiftErr        ....    0.0010
 Zerner damping         CNVZerner       .... off
 Static damping         CNVDamp         .... on
   Fraction old density DampFac         ....    0.7000
   Max. Damping (<1)    DampMax         ....    0.9800
   Min. Damping (>=0)   DampMin         ....    0.0000
   Turn off err/grad.   DampErr         ....    0.1000

SCF Procedure:
 Maximum # iterations   MaxIter         ....   125
 SCF integral mode      SCFMode         .... Direct
   Integral package                     .... SHARK and LIBINT hybrid scheme
 Reset frequency        DirectResetFreq ....    20
 Integral Threshold     Thresh          ....  1.000e-09 Eh
 Primitive CutOff       TCut            ....  1.000e-10 Eh

Convergence Tolerance:
 Convergence Check Mode ConvCheckMode   .... Total+1el-Energy
 Convergence forced     ConvForced      .... 0
 Energy Change          TolE            ....  1.000e-05 Eh
 1-El. energy change                    ....  1.000e-02 Eh
 Orbital Gradient       TolG            ....  1.000e-04
 Orbital Rotation angle TolX            ....  1.000e-04
 DIIS Error             TolErr          ....  5.000e-04

------------------------------
INITIAL GUESS: MODEL POTENTIAL
------------------------------
Loading Hartree-Fock densities                     ... done
Calculating cut-offs                               ... done
Initializing the effective Hamiltonian             ... done
Setting up the integral package (SHARK)            ... done
Starting the Coulomb interaction                   ... done (   0.0 sec)
Making the grid                                    ... done (   0.0 sec)
Mapping shells                                     ... done
Starting the XC term evaluation                    ... done (   0.0 sec)
  promolecular density results
     # of electrons  =      9.998144864
     EX              =     -6.272734904
     EC              =     -0.295119776
     EX+EC           =     -6.567854680
Transforming the Hamiltonian                       ... done (   0.0 sec)
Diagonalizing the Hamiltonian                      ... done (   0.0 sec)
Back transforming the eigenvectors                 ... done (   0.0 sec)
Now organizing SCF variables                       ... done
                      ------------------
                      INITIAL GUESS DONE (   0.1 sec)
                      ------------------
             **** ENERGY FILE WAS UPDATED (sp.en.tmp) ****
Finished Guess after   0.2 sec
Maximum memory used throughout the entire GUESS-calculation: 5.4 MB

-------------------------------------------------------------------------------------------
                                      ORCA LEAN-SCF
                              memory conserving SCF solver
-------------------------------------------------------------------------------------------

----------------------------------------D-I-I-S--------------------------------------------
Iteration    Energy (Eh)           Delta-E    RMSDP     MaxDP     DIISErr   Damp  Time(sec)
-------------------------------------------------------------------------------------------
               ***  Starting incremental Fock matrix formation  ***
    1    -40.3348556845444079     0.00e+00  1.23e-02  9.76e-02  1.92e-01  0.700   0.2
    2    -40.3692680956763468    -3.44e-02  8.49e-03  5.61e-02  9.04e-02  0.700   0.2
                               ***Turning on AO-DIIS***
    3    -40.3810779594589775    -1.18e-02  3.19e-03  1.27e-02  2.47e-02  0.700   0.2
    4    -40.3878070182399824    -6.73e-03  4.31e-03  1.86e-02  6.69e-03  0.000   0.2
    5    -40.4031098148398655    -1.53e-02  1.38e-03  5.36e-03  9.84e-03  0.000   0.2
                              *** Initializing SOSCF ***
---------------------------------------S-O-S-C-F--------------------------------------
Iteration    Energy (Eh)           Delta-E    RMSDP     MaxDP     MaxGrad    Time(sec)
--------------------------------------------------------------------------------------
    6    -40.4033116487465946    -2.02e-04  4.72e-04  1.85e-03  2.52e-03     0.2
               *** Restarting incremental Fock matrix formation ***
    7    -40.4033272395804488    -1.56e-05  3.23e-04  1.25e-03  4.06e-04     0.2
    8    -40.4033266447545572     5.95e-07  1.24e-04  9.29e-04  5.00e-04     0.2
                 **** Energy Check signals convergence ****

               *****************************************************
               *                     SUCCESS                       *
               *           SCF CONVERGED AFTER   8 CYCLES          *
               *****************************************************

             **** ENERGY FILE WAS UPDATED (sp.en.tmp) ****

----------------
TOTAL SCF ENERGY
----------------

Total Energy       :        -40.40332664475456 Eh           -1099.43041 eV

Components:
Nuclear Repulsion  :         13.53668280948560 Eh             368.35187 eV
Electronic Energy  :        -53.94000945424015 Eh           -1467.78228 eV
One Electron Energy:        -79.96072541337897 Eh           -2175.84196 eV
Two Electron Energy:         26.02071595913881 Eh             708.05968 eV

Virial components:
Potential Energy   :        -80.42588876162475 Eh           -2188.49969 eV
Kinetic Energy     :         40.02256211687019 Eh            1089.06928 eV
Virial Ratio       :          2.00951374694035

DFT components:
N(Alpha)           :        4.999954572297 electrons
N(Beta)            :        4.999954572297 electrons
N(Total)           :        9.999909144594 electrons
E(X)               :       -6.525334268822 Eh       
E(C)               :       -0.305626306086 Eh       
E(XC)              :       -6.830960574908 Eh       

---------------
SCF CONVERGENCE
---------------

  Last Energy change         ...   -5.9483e-07  Tolerance :   1.0000e-05
  Last MAX-Density change    ...    9.2900e-04  Tolerance :   1.0000e-03
  Last RMS-Density change    ...    1.2412e-04  Tolerance :   1.0000e-04
  Last DIIS Error            ...    2.5188e-03  Tolerance :   5.0000e-04
  Last Orbital Gradient      ...    5.0002e-04  Tolerance :   1.0000e-04
  Last Orbital Rotation      ...    3.3559e-04  Tolerance :   1.0000e-04


----------------
ORBITAL ENERGIES
----------------

  NO   OCC          E(Eh)            E(eV) 
   0   2.0000      -9.863226      -268.3920 
   1   2.0000      -0.619122       -16.8472 
   2   2.0000      -0.345249        -9.3947 
   3   2.0000      -0.345199        -9.3933 
   4   2.0000      -0.345191        -9.3931 
   5   0.0000       0.058306         1.5866 
   6   0.0000       0.125598         3.4177 
   7   0.0000       0.125611         3.4181 
   8   0.0000       0.125616         3.4182 
   9   0.0000       0.390953        10.6384 
  10   0.0000       0.390977        10.6390 
  11   0.0000       0.391072        10.6416 
  12   0.0000       0.648540        17.6477 
  13   0.0000       0.678684        18.4679 
  14   0.0000       0.678717        18.4688 
  15   0.0000       0.678734        18.4693 
*Only the first 10 virtual orbitals were printed.

                    ********************************
                    * MULLIKEN POPULATION ANALYSIS *
                    ********************************

-----------------------
MULLIKEN ATOMIC CHARGES
-----------------------
   0 C :   -0.483792
   1 H :    0.120934
   2 H :    0.120958
   3 H :    0.120952
   4 H :    0.120948
Sum of atomic charges:   -0.0000000

--------------------------------
MULLIKEN REDUCED ORBITAL CHARGES
--------------------------------
  0 C s       :     3.197086  s :     3.197086
      pz      :     1.088354  p :     3.265001
      px      :     1.088306
      py      :     1.088341
      dz2     :     0.004137  d :     0.021705
      dxz     :     0.007143
      dyz     :     0.001811
      dx2y2   :     0.001462
      dxy     :     0.007153

  1 H s       :     0.879066  s :     0.879066

  2 H s       :     0.879042  s :     0.879042

  3 H s       :     0.879048  s :     0.879048

  4 H s       :     0.879052  s :     0.879052


------------------------
MULLIKEN OVERLAP CHARGES
------------------------
B(  0-C ,  1-H ) :   0.7941 B(  0-C ,  2-H ) :   0.7941 B(  0-C ,  3-H ) :   0.7941 
B(  0-C ,  4-H ) :   0.7941 


                     *******************************
                     * LOEWDIN POPULATION ANALYSIS *
                     *******************************

----------------------
LOEWDIN ATOMIC CHARGES
----------------------
   0 C :   -0.496041
   1 H :    0.124009
   2 H :    0.124013
   3 H :    0.124012
   4 H :    0.124008

-------------------------------
LOEWDIN REDUCED ORBITAL CHARGES
-------------------------------
  0 C s       :     2.988913  s :     2.988913
      pz      :     1.151410  p :     3.454158
      px      :     1.151356
      py      :     1.151392
      dz2     :     0.010095  d :     0.052970
      dxz     :     0.017432
      dyz     :     0.004419
      dx2y2   :     0.003568
      dxy     :     0.017456

  1 H s       :     0.875991  s :     0.875991

  2 H s       :     0.875987  s :     0.875987

  3 H s       :     0.875988  s :     0.875988

  4 H s       :     0.875992  s :     0.875992


---------------------------------
LOEWDIN BOND ORDERS (THRESH 0.050000)
---------------------------------
B(  0-C ,  1-H ) :   0.9790 B(  0-C ,  2-H ) :   0.9790 B(  0-C ,  3-H ) :   0.9790 
B(  0-C ,  4-H ) :   0.9790 

------------------------------------------
LOEWDIN REDUCED ORBITAL POPULATIONS PER MO
-------------------------------------------
THRESHOLD FOR PRINTING IS 0.1%%
                      0         1         2         3         4         5   
                  -9.86323  -0.61912  -0.34525  -0.34520  -0.34519   0.05831
                   2.00000   2.00000   2.00000   2.00000   2.00000   0.00000
                  --------  --------  --------  --------  --------  --------
 0 C  s              99.8      49.7       0.0       0.0       0.0      33.7
 0 C  pz              0.0       0.0       0.3      30.9      26.4       0.0
 0 C  px              0.0       0.0      56.9       0.6       0.0       0.0
 0 C  py              0.0       0.0       0.3      26.0      31.2       0.0
 0 C  dz2             0.0       0.0       0.5       0.0       0.0       0.0
 0 C  dxz             0.0       0.0       0.0       0.8       0.0       0.0
 0 C  dyz             0.0       0.0       0.2       0.0       0.0       0.0
 0 C  dx2y2           0.0       0.0       0.1       0.0       0.0       0.0
 0 C  dxy             0.0       0.0       0.0       0.0       0.8       0.0
 1 H  s               0.1      12.6      11.9      13.5       5.8      16.6
 2 H  s               0.1      12.6       8.6      19.2       3.4      16.6
 3 H  s               0.1      12.6       6.8       5.9      18.5      16.6
 4 H  s               0.1      12.6      14.3       3.0      13.9      16.6

                      6         7         8         9        10        11   
                   0.12560   0.12561   0.12562   0.39095   0.39098   0.39107
                   0.00000   0.00000   0.00000   0.00000   0.00000   0.00000
                  --------  --------  --------  --------  --------  --------
 0 C  pz              8.0      19.9       0.4      52.8       1.3       0.5
 0 C  px              1.5       0.0      26.8       0.2       1.8      52.5
 0 C  py             18.8       8.4       1.1       1.6      51.4       1.5
 0 C  dz2             0.0       0.0       1.1       0.3       0.3       5.8
 0 C  dxz             0.0       1.9       0.0       9.7       1.3       0.0
 0 C  dyz             0.0       0.0       0.5       0.0       0.4       2.4
 0 C  dx2y2           0.0       0.0       0.4       0.0       0.6       1.6
 0 C  dxy             1.9       0.0       0.0       1.2       8.5       1.3
 1 H  s               1.4      32.3      18.6      19.3       0.1       6.3
 2 H  s               6.1      30.6      15.6      14.6       1.3       9.8
 3 H  s              24.1       3.1      25.1       0.4      22.2       3.1
 4 H  s              38.2       3.7      10.5       0.0      10.6      15.1

                     12        13        14        15        16        17   
                   0.64854   0.67868   0.67872   0.67873   0.75316   1.57609
                   0.00000   0.00000   0.00000   0.00000   0.00000   0.00000
                  --------  --------  --------  --------  --------  --------
 0 C  s              71.7       0.0       0.0       0.0      45.1       0.0
 0 C  pz              0.0       6.3      47.8       2.4       0.0       0.0
 0 C  px              0.0       0.3       2.1      54.2       0.0       0.0
 0 C  py              0.0      50.0       6.6       0.0       0.0       0.0
 0 C  dz2             0.0       0.0       0.0       1.9       0.0      29.9
 0 C  dxz             0.0       0.1       3.0       0.1       0.0       0.9
 0 C  dyz             0.0       0.0       0.1       0.7       0.0       1.1
 0 C  dx2y2           0.0       0.1       0.0       0.6       0.0      67.0
 0 C  dxy             0.0       3.1       0.1       0.0       0.0       1.1
 1 H  s               7.0       0.1      14.9      15.0      13.7       0.0
 2 H  s               7.1       0.1      24.4       5.6      13.7       0.0
 3 H  s               7.1      20.0       0.8       9.3      13.7       0.0
 4 H  s               7.1      19.9       0.0      10.2      13.7       0.0

                     18        19        20        21   
                   1.57612   2.07216   2.07217   2.07222
                   0.00000   0.00000   0.00000   0.00000
                  --------  --------  --------  --------
 0 C  pz              0.0       0.1       0.1       2.8
 0 C  px              0.0       0.2       2.7       0.1
 0 C  py              0.0       2.7       0.2       0.1
 0 C  dz2            12.9       4.2      39.4       3.7
 0 C  dxz             0.4       8.7       0.4      72.5
 0 C  dyz            73.9       4.3      16.2       0.2
 0 C  dx2y2          12.8       6.0      10.4       0.3
 0 C  dxy             0.0      59.5      16.3       6.1
 1 H  s               0.0       0.2       1.8       8.7
 2 H  s               0.0       0.8       4.6       5.3
 3 H  s               0.0       9.8       0.7       0.2
 4 H  s               0.0       3.5       7.1       0.1


                      *****************************
                      * MAYER POPULATION ANALYSIS *
                      *****************************

  NA   - Mulliken gross atomic population
  ZA   - Total nuclear charge
  QA   - Mulliken gross atomic charge
  VA   - Mayer's total valence
  BVA  - Mayer's bonded valence
  FA   - Mayer's free valence

  ATOM       NA         ZA         QA         VA         BVA        FA
  0 C      6.4838     6.0000    -0.4838     3.9356     3.9356    -0.0000
  1 H      0.8791     1.0000     0.1209     0.9566     0.9566    -0.0000
  2 H      0.8790     1.0000     0.1210     0.9566     0.9566    -0.0000
  3 H      0.8790     1.0000     0.1210     0.9566     0.9566    -0.0000
  4 H      0.8791     1.0000     0.1209     0.9566     0.9566    -0.0000

  Mayer bond orders larger than 0.100000
B(  0-C ,  1-H ) :   0.9839 B(  0-C ,  2-H ) :   0.9839 B(  0-C ,  3-H ) :   0.9839 
B(  0-C ,  4-H ) :   0.9839 

-------
TIMINGS
-------

Total SCF time: 0 days 0 hours 0 min 1 sec 

Total time                  ....       1.765 sec
Sum of individual times     ....       1.519 sec  ( 86.1%)

SCF preparation             ....       0.143 sec  (  8.1%)
Fock matrix formation       ....       0.968 sec  ( 54.9%)
  Startup                   ....       0.042 sec  (  4.3% of F)
  Split-RI-J                ....       0.071 sec  (  7.3% of F)
  XC integration            ....       0.460 sec  ( 47.5% of F)
    Basis function eval.    ....       0.054 sec  ( 11.8% of XC)
    Density eval.           ....       0.013 sec  (  2.8% of XC)
    XC-Functional eval.     ....       0.050 sec  ( 10.8% of XC)
    XC-Potential eval.      ....       0.015 sec  (  3.2% of XC)
Diagonalization             ....       0.000 sec  (  0.0%)
Density matrix formation    ....       0.113 sec  (  6.4%)
Total Energy calculation    ....       0.023 sec  (  1.3%)
Population analysis         ....       0.033 sec  (  1.9%)
Orbital Transformation      ....       0.034 sec  (  1.9%)
Orbital Orthonormalization  ....       0.000 sec  (  0.0%)
DIIS solution               ....       0.154 sec  (  8.7%)
  MO trafo                  ....       0.000 sec  (  0.0 % of DIIS)
  Orb grad                  ....       0.000 sec  (  0.0 % of DIIS)
  Energy W gradient         ....       0.000 sec  (  0.0 % of DIIS)
  DIIS error                ....       0.000 sec  (  0.1 % of DIIS)
  DIIS work                 ....       0.125 sec  ( 81.2 % of DIIS)
  Form Q                    ....       0.000 sec  (  0.0 % of DIIS)
  Form QpQm                 ....       0.000 sec  (  0.0 % of DIIS)
  Exp/Cayley                ....       0.000 sec  (  0.0 % of DIIS)
  Orb update                ....       0.000 sec  (  0.0 % of DIIS)
  Wake-sleep                ....       0.012 sec  (  7.8 % of DIIS)
SOSCF solution              ....       0.050 sec  (  2.9%)
  MO trafo                  ....       0.029 sec  ( 58.6 % of SOSCF)
  Orb grad                  ....       0.001 sec  (  2.1 % of SOSCF)
  Rot update                ....       0.010 sec  ( 19.4 % of SOSCF)
  Step                      ....       0.010 sec  ( 19.9 % of SOSCF)
Finished LeanSCF after   1.8 sec

Maximum memory used throughout the entire LEANSCF-calculation: 4.3 MB


-------------------------------------------------------------------------------
                          DFT DISPERSION CORRECTION                            
                                                                               
                                DFTD4 V3.4.0                                   
-------------------------------------------------------------------------------
The PBE functional is recognized
Active option DFTDOPT                   ...         5   

-------------------------   ----------------
Dispersion correction           -0.000872800
-------------------------   ----------------

------------------   -----------------
gCP correction             0.016758625
------------------   -----------------

-------------------------   --------------------
FINAL SINGLE POINT ENERGY       -40.387440820190
-------------------------   --------------------


------------------------------------------------------------------------------
                              ORCA PROPERTY CALCULATIONS
------------------------------------------------------------------------------

GBWName                                 ... sp.gbw
Number of atoms                         ...      5
Number of basis functions               ...     22
Max core memory                         ...   1024 MB

Electric properties:
Dipole moment                           ... YES
Quadrupole moment                       ...  NO
Static polarizability (Dipole/Dipole)   ...  NO
Static polarizability (Dipole/Quad.)    ...  NO
Static polarizability (Quad./Quad.)     ...  NO
Static polarizability (Velocity)        ...  NO

Atomic electric properties:
Dipole moment                           ...  NO
Quadrupole moment                       ...  NO
Static polarizability                   ...  NO

Choice of electric origin               ... Center of mass
Position of electric origin             ...    -0.000000    -0.000000    -0.000000

General magnetic properties:
Magnetizability                         ...  NO

EPR properties:
g-Tensor (aka g-matrix)                 ...  NO
Zero-Field splitting spin-orbit         ...  NO
Zero-field splitting spin-spin          ...  NO
Hyperfine couplings                     ...  NO (   0 nuclei)
Quadrupole couplings                    ...  NO (   0 nuclei)
Contact density                         ...  NO (   0 nuclei)

NMR properties:
Chemical shifts                         ...  NO (   0 nuclei)
Spin-rotation constants                 ...  NO (   0 nuclei)
Spin-spin couplings                     ...  NO (   0 nuclei,    0 pairs)

Choice of magnetic origin               ... GIAO
Position of magnetic origin             ...     0.000000     0.000000     0.000000

Properties with geometric perturbations:
SCF Hessian                             ...  NO
IR spectrum                             ...  NO
VCD spectrum                            ...  NO
X-ray spectroscopy properties:
SCF XES/XAS/RIXS spectra                ...  NO


-------------
DIPOLE MOMENT
-------------

Method             : SCF
Type of density    : Electron Density
Multiplicity       :   1
Irrep              :   0
Energy             :   -40.4033266447545572 Eh
Relativity type    : 
Basis              : AO
                                X                 Y                 Z
Electronic contribution:      0.000047199       0.000042149       0.000047286
Nuclear contribution   :     -0.000024671      -0.000043467      -0.000039319
                        -----------------------------------------
Total Dipole Moment    :      0.000022528      -0.000001318       0.000007967
                        -----------------------------------------
Magnitude (a.u.)       :      0.000023931
Magnitude (Debye)      :      0.000060829



--------------------
Rotational spectrum 
--------------------
 
Rotational constants in cm-1:             5.359148             5.358264             5.357919 
Rotational constants in MHz :        160663.205508        160636.703871        160626.364436 

Dipole components along the rotational axes: 
x,y,z [a.u.] :     0.000023     0.000001     0.000008 
x,y,z [Debye]:     0.000057     0.000003     0.000020 

 

Dipole moment calculation done in   0.0 sec 

Maximum memory used throughout the entire PROP-calculation: 3.5 MB

--------------------------------
SUGGESTED CITATIONS FOR THIS RUN
--------------------------------

Below you find a list of papers that are relevant to this ORCA run
We neither can nor want to force you to cite these papers, but we appreciate if you do
You receive ORCA, which is the product of decades of hard work by many enthusiastic individuals, for free
The only thing we kindly ask in return is that you cite our papers,
We deeply appreciate it, if you show your appreciation for ORCA by not just citing the generic ORCA reference.

Please note that relegating all ORCA citations to the supporting information does *not* help us.
SI sections are not indexed - citations you put there will not count into any citation statistics
But we need these citations in order to attract the funding resources that allow us to do what we are doing

Therefore, if you are a happy ORCA user, please consider citing a few of the papers listed below in the main body of your paper

In addition to the list printed below, the program has created the file sp.bibtex that contains the list in bibtex format
You can import this file easily into all common literature databanks and citation aid programs


List of essential papers. We consider these as the minimum necessary citations

  1. Neese,F.
     Software update: the ORCA program system, version 5.0
     WIRES Comput. Molec. Sci., 2022 12(1)e1606
     doi.org/10.1002/wcms.1606

List of papers to cite with high priority. The work reported in these papers was absolutely
necessary for this run to complete.
Our perspective: the developers of density functionals and basis sets usually get cited in chemistry papers
Good! But without the algorithms to do something with them, the functionals or basis sets would not do anything.
Hence, in our opinion, the algorithm design and method developments papers are equally worthy of getting cited

  1. Neese,F.
     An improvement of the resolution of the identity approximation for the formation of the Coulomb matrix
     J. Comp. Chem., 2003 24(14)1740-1747
     doi.org/10.1002/jcc.10318
  2. Neese,F.
     The SHARK Integral Generation and Digestion System
     J. Comp. Chem., 2022  1-16
     doi.org/10.1002/jcc.26942
  3. Caldeweyher,E.; Bannwarth,C.; Grimme,S.
     Extension of the D3 dispersion coefficient model
     J. Chem. Phys., 2017 147 034112-XXXX
     doi.org/10.1063/1.4993215
  4. Caldeweyher,E.; Ehlert,S.; Hansen,A.; Neugebauer,H.; Spicher,S.; Bannwarth,C.; Grimme,S.
     A generally applicable atomic-charge dependent London dispersion correction
     J. Chem. Phys., 2019 150 154122-XXXX
     doi.org/10.1063/1.5090222
  5. Caldeweyher,E.; Mewes,J.; Ehlert,S.; Grimme,S.
     Extension and evaluation of the D4 London-dispersion model for periodic systems
     Phys. Chem. Chem. Phys., 2020 22(16)8499-8512
     doi.org/10.1039/D0CP00502A

List of suggested additional citations. These are papers that are important in the 'surrounding' of 
of this run, or papers that preceded the highly important papers. If you like your results we are grateful for a citation.

  1. Neese,F.
     The ORCA program system
     WIRES Comput. Molec. Sci., 2012 2(1)73-78
     doi.org/10.1002/wcms.81
  2. Neese,F.
     Software update: the ORCA program system, version 4.0
     WIRES Comput. Molec. Sci., 2018 8(1)1-6
     doi.org/10.1002/wcms.1327
  3. Neese,F.; Wennmohs,F.; Becker,U.; Riplinger,C.
     The ORCA quantum chemistry program package
     J. Chem. Phys., 2020 152 Art. No. L224108
     doi.org/10.1063/5.0004608

List of optional additional citations

  1. Neese,F.
     Approximate second-order SCF convergence for spin unrestricted wavefunctions
     Chem. Phys. Lett., 2000 325(1-3)93-98
     doi.org/10.1016/s0009-2614(00)00662-x

Timings for individual modules:

Sum of individual times          ...        2.412 sec (=   0.040 min)
Startup calculation              ...        0.255 sec (=   0.004 min)  10.6 %
SCF iterations                   ...        2.065 sec (=   0.034 min)  85.6 %
Property calculations            ...        0.092 sec (=   0.002 min)   3.8 %
                             ****ORCA TERMINATED NORMALLY****
TOTAL RUN TIME: 0 days 0 hours 0 minutes 2 seconds 990 msec
