
                                 *****************
                                 * O   R   C   A *
                                 *****************

                                            #,                                       
                                            ###                                      
                                            ####                                     
                                            #####                                    
                                            ######                                   
                                           ########,                                 
                                     ,,################,,,,,                         
                               ,,#################################,,                 
                          ,,##########################################,,             
                       ,#########################################, ''#####,          
                    ,#############################################,,   '####,        
                  ,##################################################,,,,####,       
                ,###########''''           ''''###############################       
              ,#####''   ,,,,##########,,,,          '''####'''          '####       
            ,##' ,,,,###########################,,,                        '##       
           ' ,,###''''                  '''############,,,                           
         ,,##''                                '''############,,,,        ,,,,,,###''
      ,#''                                            '''#######################'''  
     '                                                          ''''####''''         
             ,#######,   #######,   ,#######,      ##                                
            ,#'     '#,  ##    ##  ,#'     '#,    #''#        ,####,   ,####,        
            ##       ##  ##   ,#'  ##            #'  '#       #'       #'  '#        
            ##       ##  #######   ##           ,######,      #####,   #    #        
            '#,     ,#'  ##    ##  '#,     ,#' ,#      #,     #,   #   #,  ,#        
             '#######'   ##     ##  '#######'  #'      '#     '####' # '####'        



                #########################################################
                #                        -***-                          #
                #          Department of theory and spectroscopy        #
                #                                                       #
                #                      Frank Neese                      #
                #                                                       #
                #     Directorship, Architecture, Infrastructure        #
                #                    SHARK, DRIVERS                     #
                #        Core code/Algorithms in most modules           #
                #                                                       #
                #        Max Planck Institute fuer Kohlenforschung      #
                #                Kaiser Wilhelm Platz 1                 #
                #                 D-45470 Muelheim/Ruhr                 #
                #                      Germany                          #
                #                                                       #
                #                  All rights reserved                  #
                #                        -***-                          #
                #########################################################


                         Program Version 6.0.0  -   RELEASE  -


 With contributions from (in alphabetic order):
   Daniel Aravena         : Magnetic Suceptibility
   Michael Atanasov       : Ab Initio Ligand Field Theory (pilot matlab implementation)
   Alexander A. Auer      : GIAO ZORA, VPT2 properties, NMR spectrum
   Ute Becker             : All parallelization in ORCA, NUMFREQ, NUMCALC
   Giovanni Bistoni       : ED, misc. LED, open-shell LED, HFLD
   Martin Brehm           : Molecular dynamics
   Dmytro Bykov           : pre 5.0 version of the SCF Hessian
   Marcos Casanova-Páez   : Triplet and SCS-CIS(D). UHF-(DLPNO)-IP/EA/STEOM-CCSD. UHF-CVS-IP/STEOM-CCSD
   Vijay G. Chilkuri      : MRCI spin determinant printing, contributions to CSF-ICE
   Pauline Colinet        : FMM embedding
   Dipayan Datta          : RHF DLPNO-CCSD density
   Achintya Kumar Dutta   : EOM-CC, STEOM-CC
   Nicolas Foglia         : Exact transition moments, OPA infrastructure, MCD improvements
   Dmitry Ganyushin       : Spin-Orbit,Spin-Spin,Magnetic field MRCI
   Miquel Garcia          : C-PCM and meta-GGA Hessian, CCSD/C-PCM, Gaussian charge scheme
   Tiago L. C. Gouveia    : GS-ROHF, GS-ROCIS
   Yang Guo               : DLPNO-NEVPT2, F12-NEVPT2, CIM, IAO-localization
   Andreas Hansen         : Spin unrestricted coupled pair/coupled cluster methods
   Ingolf Harden          : AUTO-CI MPn and infrastructure 
   Benjamin Helmich-Paris : MC-RPA, TRAH-(SCF,CASSCF), AVAS, COSX integrals, SCF dyn. polar.
   Lee Huntington         : MR-EOM, pCC
   Robert Izsak           : Overlap fitted RIJCOSX, COSX-SCS-MP3, EOM
   Riya Kayal             : Wick's Theorem for AUTO-CI, AUTO-CI UHF-CCSDT
   Emily Kempfer          : AUTO-CI, RHF CISDT and CCSDT
   Christian Kollmar      : KDIIS, OOCD, Brueckner-CCSD(T), CCSD density, CASPT2, CASPT2-K, improved NEVPT2
   Axel Koslowski         : Symmetry handling
   Simone Kossmann        : Meta GGA functionals, TD-DFT gradient, OOMP2, (MP2 Hessian; deprecated post 5.0)
   Lucas Lang             : DCDCAS
   Marvin Lechner         : AUTO-CI (C++ implementation), FIC-MRCC
   Spencer Leger          : CASSCF response
   Dagmar Lenk            : GEPOL surface, SMD, ORCA-2-JSON
   Dimitrios Liakos       : Extrapolation schemes; Compound Job, initial MDCI parallelization
   Dimitrios Manganas     : Further ROCIS development; embedding schemes. LFT, Crystal Embedding
   Dimitrios Pantazis     : SARC Basis sets
   Anastasios Papadopoulos: AUTO-CI, single reference methods and gradients
   Taras Petrenko         : pre 6.0 DFT Hessian and TD-DFT gradient, (ASA, deprecated), ECA, 1-Electron XAS/XES, NRVS
   Peter Pinski           : DLPNO-MP2, DLPNO-MP2 Gradient
   Christoph Reimann      : Effective Core Potentials
   Marius Retegan         : Local ZFS, SOC
   Christoph Riplinger    : Optimizer, TS searches, QM/MM, DLPNO-CCSD(T), (RO)-DLPNO pert. Triples
   Michael Roemelt        : Original ROCIS implementation
   Masaaki Saitow         : Open-shell DLPNO-CCSD energy and density
   Barbara Sandhoefer     : DKH picture change effects
   Kantharuban Sivalingam : CASSCF convergence/infrastructure, NEVPT2 and variants, FIC-MRCI
   Bernardo de Souza      : ESD, SOC TD-DFT
   Georgi Stoychev        : AutoAux, RI-MP2 NMR, DLPNO-MP2 response, X2C
   Van Anh Tran           : RI-MP2 g-tensors
   Willem Van den Heuvel  : Paramagnetic NMR
   Zikuan Wang            : NOTCH, Electric field optimization 
   Frank Wennmohs         : Technical directorship and infrastructure
   Hang Xu                : AUTO-CI-Response properties 


 We gratefully acknowledge several colleagues who have allowed us to
 interface, adapt or use parts of their codes:
   Stefan Grimme, W. Hujo, H. Kruse, P. Pracht,  : VdW corrections, initial TS optimization,
                  C. Bannwarth, S. Ehlert,         DFT functionals, gCP, sTDA/sTD-DF
                  L. Wittmann, M. Mueller
   Ed Valeev, F. Pavosevic, A. Kumar             : LibInt (2-el integral package), F12 methods
   Garnet Chan, S. Sharma, J. Yang, R. Olivares  : DMRG
   Ulf Ekstrom                                   : XCFun DFT Library
   Mihaly Kallay                                 : mrcc  (arbitrary order and MRCC methods)
   Frank Weinhold                                : gennbo (NPA and NBO analysis)
   Simon Mueller                                 : openCOSMO-RS
   Christopher J. Cramer and Donald G. Truhlar   : smd solvation model
   Lars Goerigk                                  : TD-DFT with DH, B97 family of functionals
   V. Asgeirsson, H. Jonsson                     : NEB implementation
   FAccTs GmbH                                   : IRC, NEB, NEB-TS, DLPNO-Multilevel, CI-OPT
                                                   MM, QMMM, 2- and 3-layer-ONIOM, Crystal-QMMM,
                                                   LR-CPCM, SF, NACMEs, symmetry and pop. for TD-DFT,
                                                   nearIR, NL-DFT gradient (VV10), updates on ESD,
                                                   ML-optimized integration grids, MBIS, APM,
                                                   GOAT, DOCKER, SOLVATOR, interface openCOSMO-RS
   S Lehtola, MJT Oliveira, MAL Marques          : LibXC Library
   Liviu Ungur et al                             : ANISO software


 Your calculation uses the libint2 library for the computation of 2-el integrals
 For citations please refer to: http://libint.valeyev.net

 Your ORCA version has been built with support for libXC version: 6.2.2
 For citations please refer to: https://libxc.gitlab.io

 This ORCA versions uses:
   CBLAS   interface :  Fast vector & matrix operations
   LAPACKE interface :  Fast linear algebra routines
   SCALAPACK package :  Parallel linear algebra routines
   Shared memory     :  Shared parallel matrices
   BLAS/LAPACK       :  OpenBLAS 0.3.27  USE64BITINT DYNAMIC_ARCH NO_AFFINITY SkylakeX SINGLE_THREADED
        Core in use  :  SkylakeX
   Copyright (c) 2011-2014, The OpenBLAS Project


Your calculation utilizes the geometrical counterpoise correction gCP
Please cite in your paper:
H.Kruse, S. Grimme J.Chem.Phys., 136, (2012), 154101 
   

Your calculation utilizes the DFT-NL dispersion correction.
Cite in your paper:
Vydrov, O. A.; Van Voorhis, T. J. Chem. Phys. 2010, 133, 244103
Hujo, W.; Grimme, S. J. Chem. Theory Comput. 2011, 7, 3866 
   

Your calculation utilizes the SMD solvation module
Please cite in your paper:
A.V. Marenich, C.J. Cramer, D.G. Truhlar J. Phys. Chem. B, 113, (2009), 6378 

================================================================================

----- Orbital basis set information -----
Your calculation utilizes the basis: def2-TZVP
   F. Weigend and R. Ahlrichs, Phys. Chem. Chem. Phys. 7, 3297 (2005).

----- AuxJ basis set information -----
Your calculation utilizes the auxiliary basis: def2/J
   F. Weigend, Phys. Chem. Chem. Phys. 8, 1057 (2006).

================================================================================
                                        WARNINGS
                       Please study these warnings very carefully!
================================================================================


================================================================================
                                       INPUT FILE
================================================================================
NAME = sp_solv.inp
|  1> ! wb97x-v def2-tzvp def2/J RIJCOSX DEFGRID2 scfconv7 GCP(DFT/TZ) printgap
|  2> %output
|  3>     printlevel normal
|  4> end
|  5> %cpcm
|  6>     smd true
|  7>     smdsolvent "water"
|  8> end
|  9> * xyz 0 1
| 10> C -2.9826689609039616 1.255138986385454 -0.013696148165517645
| 11> C -1.7476715862732155 0.3967942019283913 0.011167820851916865
| 12> C -1.8392716611917135 -0.9938575564842361 0.012902344404649083
| 13> C -0.689221441415684 -1.7837704743607488 0.003484932616065992
| 14> C 0.5663367924394892 -1.1945822420362668 -0.00464977105215244
| 15> C 0.6769748432852523 0.20645238603327257 -0.0027029587630072634
| 16> C -0.4763381925120176 0.9866979815107344 0.005076931217752857
| 17> O 1.9582361998410613 0.6962794833986875 -0.0035896236221513683
| 18> C 2.110360869531672 2.123862059410379 0.00234996552787993
| 19> O 1.7409452524567846 -1.9178693513453624 -0.008758122996500504
| 20> H -2.7650238294086527 2.272079834017799 0.3232335366577814
| 21> H -3.393912136718368 1.3235173101542672 -1.0279915422582817
| 22> H -3.7666662345725332 0.8388682528033117 0.6259390876955927
| 23> H -2.814001509367375 -1.4727337334290127 0.021352529221949666
| 24> H -0.7629066623218166 -2.8682540176288946 0.00700427185414672
| 25> H -0.39898401149691143 2.0679031528537 0.008090190129983034
| 26> H 1.6624485886810632 2.5708037467768317 -0.8923126660613553
| 27> H 3.185892153868513 2.304142747871022 0.0016374897002073838
| 28> H 1.6650650617389948 2.562973027602404 0.9021938527220447
| 29> H 1.5186555411603555 -2.858890402621189 -0.006368972979083995
| 30> *
| 31> 
| 32>                          ****END OF INPUT****
================================================================================

                       ****************************
                       * Single Point Calculation *
                       ****************************

---------------------------------
CARTESIAN COORDINATES (ANGSTROEM)
---------------------------------
  C     -2.982669    1.255139   -0.013696
  C     -1.747672    0.396794    0.011168
  C     -1.839272   -0.993858    0.012902
  C     -0.689221   -1.783770    0.003485
  C      0.566337   -1.194582   -0.004650
  C      0.676975    0.206452   -0.002703
  C     -0.476338    0.986698    0.005077
  O      1.958236    0.696279   -0.003590
  C      2.110361    2.123862    0.002350
  O      1.740945   -1.917869   -0.008758
  H     -2.765024    2.272080    0.323234
  H     -3.393912    1.323517   -1.027992
  H     -3.766666    0.838868    0.625939
  H     -2.814002   -1.472734    0.021353
  H     -0.762907   -2.868254    0.007004
  H     -0.398984    2.067903    0.008090
  H      1.662449    2.570804   -0.892313
  H      3.185892    2.304143    0.001637
  H      1.665065    2.562973    0.902194
  H      1.518656   -2.858890   -0.006369

----------------------------
CARTESIAN COORDINATES (A.U.)
----------------------------
  NO LB      ZA    FRAG     MASS         X           Y           Z
   0 C     6.0000    0    12.011   -5.636427    2.371869   -0.025882
   1 C     6.0000    0    12.011   -3.302621    0.749832    0.021104
   2 C     6.0000    0    12.011   -3.475720   -1.878119    0.024382
   3 C     6.0000    0    12.011   -1.302440   -3.370838    0.006586
   4 C     6.0000    0    12.011    1.070221   -2.257433   -0.008787
   5 C     6.0000    0    12.011    1.279297    0.390138   -0.005108
   6 C     6.0000    0    12.011   -0.900149    1.864589    0.009594
   7 O     8.0000    0    15.999    3.700530    1.315778   -0.006783
   8 C     6.0000    0    12.011    3.988004    4.013518    0.004441
   9 O     8.0000    0    15.999    3.289910   -3.624248   -0.016550
  10 H     1.0000    0     1.008   -5.225138    4.293609    0.610823
  11 H     1.0000    0     1.008   -6.413564    2.501085   -1.942622
  12 H     1.0000    0     1.008   -7.117968    1.585231    1.182853
  13 H     1.0000    0     1.008   -5.317692   -2.783063    0.040350
  14 H     1.0000    0     1.008   -1.441685   -5.420215    0.013236
  15 H     1.0000    0     1.008   -0.753971    3.907771    0.015288
  16 H     1.0000    0     1.008    3.141573    4.858115   -1.686227
  17 H     1.0000    0     1.008    6.020464    4.354199    0.003094
  18 H     1.0000    0     1.008    3.146517    4.843317    1.704899
  19 H     1.0000    0     1.008    2.869843   -5.402520   -0.012036

--------------------------------
INTERNAL COORDINATES (ANGSTROEM)
--------------------------------
 C      0   0   0     0.000000000000     0.00000000     0.00000000
 C      1   0   0     1.504191643809     0.00000000     0.00000000
 C      2   1   0     1.393666350126   121.02807569     0.00000000
 C      3   2   1     1.395229950037   120.71335551   178.44540843
 C      4   3   2     1.386951846718   120.37905590     0.14986431
 C      5   4   3     1.405397665226   119.65305502     0.03135826
 C      6   5   4     1.392470708665   119.56411232   359.89113397
 O      6   5   4     1.371700417471   115.43701090   179.64688069
 C      8   6   5     1.435677263587   117.00400533   180.17941747
 O      5   4   3     1.379444147254   123.23795040   179.73250533
 H      1   2   3     1.093187862795   111.24017603   160.78372568
 H      1   2   3     1.096627416807   111.02434754   280.53219126
 H      1   2   3     1.094105243435   111.19572210    39.79794782
 H      3   2   1     1.086044232706   119.93263573   358.46423825
 H      4   3   2     1.086989628813   120.59386657   179.86852177
 H      7   6   5     1.083972957037   119.98751467   179.91049828
 H      9   8   6     1.095811803005   111.03112443   298.63790188
 H      9   8   6     1.090536188231   105.59770921   179.94266926
 H      9   8   6     1.095821983784   111.02614652    61.25782225
 H     10   5   4     0.966922459523   108.33199951     0.08427442

---------------------------
INTERNAL COORDINATES (A.U.)
---------------------------
 C      0   0   0     0.000000000000     0.00000000     0.00000000
 C      1   0   0     2.842510259732     0.00000000     0.00000000
 C      2   1   0     2.633647723800   121.02807569     0.00000000
 C      3   2   1     2.636602499414   120.71335551   178.44540843
 C      4   3   2     2.620959151234   120.37905590     0.14986431
 C      5   4   3     2.655816696530   119.65305502     0.03135826
 C      6   5   4     2.631388288884   119.56411232   359.89113397
 O      6   5   4     2.592138126806   115.43701090   179.64688069
 C      8   6   5     2.713036844876   117.00400533   180.17941747
 O      5   4   3     2.606771655350   123.23795040   179.73250533
 H      1   2   3     2.065825673609   111.24017603   160.78372568
 H      1   2   3     2.072325488715   111.02434754   280.53219126
 H      1   2   3     2.067559271779   111.19572210    39.79794782
 H      3   2   1     2.052326169138   119.93263573   358.46423825
 H      4   3   2     2.054112708870   120.59386657   179.86852177
 H      7   6   5     2.048412025378   119.98751467   179.91049828
 H      9   8   6     2.070784201998   111.03112443   298.63790188
 H      9   8   6     2.060814734887   105.59770921   179.94266926
 H      9   8   6     2.070803440883   111.02614652    61.25782225
 H     10   5   4     1.827218641236   108.33199951     0.08427442

---------------------
BASIS SET INFORMATION
---------------------
There are 3 groups of distinct atoms

 Group   1 Type C   : 11s6p2d1f contracted to 5s3p2d1f pattern {62111/411/11/1}
 Group   2 Type O   : 11s6p2d1f contracted to 5s3p2d1f pattern {62111/411/11/1}
 Group   3 Type H   : 5s1p contracted to 3s1p pattern {311/1}

Atom   0C    basis set group =>   1
Atom   1C    basis set group =>   1
Atom   2C    basis set group =>   1
Atom   3C    basis set group =>   1
Atom   4C    basis set group =>   1
Atom   5C    basis set group =>   1
Atom   6C    basis set group =>   1
Atom   7O    basis set group =>   2
Atom   8C    basis set group =>   1
Atom   9O    basis set group =>   2
Atom  10H    basis set group =>   3
Atom  11H    basis set group =>   3
Atom  12H    basis set group =>   3
Atom  13H    basis set group =>   3
Atom  14H    basis set group =>   3
Atom  15H    basis set group =>   3
Atom  16H    basis set group =>   3
Atom  17H    basis set group =>   3
Atom  18H    basis set group =>   3
Atom  19H    basis set group =>   3
---------------------------------
AUXILIARY/J BASIS SET INFORMATION
---------------------------------
There are 3 groups of distinct atoms

 Group   1 Type C   : 12s5p4d2f1g contracted to 6s4p3d1f1g pattern {711111/2111/211/2/1}
 Group   2 Type O   : 12s5p4d2f1g contracted to 6s4p3d1f1g pattern {711111/2111/211/2/1}
 Group   3 Type H   : 5s2p1d contracted to 3s1p1d pattern {311/2/1}

Atom   0C    basis set group =>   1
Atom   1C    basis set group =>   1
Atom   2C    basis set group =>   1
Atom   3C    basis set group =>   1
Atom   4C    basis set group =>   1
Atom   5C    basis set group =>   1
Atom   6C    basis set group =>   1
Atom   7O    basis set group =>   2
Atom   8C    basis set group =>   1
Atom   9O    basis set group =>   2
Atom  10H    basis set group =>   3
Atom  11H    basis set group =>   3
Atom  12H    basis set group =>   3
Atom  13H    basis set group =>   3
Atom  14H    basis set group =>   3
Atom  15H    basis set group =>   3
Atom  16H    basis set group =>   3
Atom  17H    basis set group =>   3
Atom  18H    basis set group =>   3
Atom  19H    basis set group =>   3

Checking for AutoStart:
The File: sp_solv.gbw exists
Trying to determine its content:
     ... Fine, the file contains calculation information
     ... Fine, the calculation information was read
     ... Fine, the file contains a basis set
     ... Fine, the basis set was read
     ... Fine, the file contains a geometry
     ... Fine, the geometry was read
     ... Fine, the file contains a set of orbitals
     ... Fine, the orbitals can be read
     => possible old guess file was deleted
     => GBW file was renamed to GES file
     => GES file is set as startup file
     => Guess is set to MORead
     ... now leaving AutoStart

------------------------------------------------------------------------------
                             ORCA STARTUP CALCULATIONS
                           -- RI-GTO INTEGRALS CHOSEN --
------------------------------------------------------------------------------
------------------------------------------------------------------------------
                   ___                                                        
                  /   \      - P O W E R E D   B Y -                         
                 /     \                                                     
                 |  |  |   _    _      __       _____    __    __             
                 |  |  |  | |  | |    /  \     |  _  \  |  |  /  |          
                  \  \/   | |  | |   /    \    | | | |  |  | /  /          
                 / \  \   | |__| |  /  /\  \   | |_| |  |  |/  /          
                |  |  |   |  __  | /  /__\  \  |    /   |      \           
                |  |  |   | |  | | |   __   |  |    \   |  |\   \          
                \     /   | |  | | |  |  |  |  | |\  \  |  | \   \       
                 \___/    |_|  |_| |__|  |__|  |_| \__\ |__|  \__/        
                                                                              
                      - O R C A' S   B I G   F R I E N D -                    
                                      &                                       
                       - I N T E G R A L  F E E D E R -                       
                                                                              
 v1 FN, 2020, v2 2021, v3 2022-2024                                           
------------------------------------------------------------------------------


----------------------
SHARK INTEGRAL PACKAGE
----------------------

Number of atoms                             ...     20
Number of basis functions                   ...    370
Number of shells                            ...    150
Maximum angular momentum                    ...      3
Integral batch strategy                     ... SHARK/LIBINT Hybrid
RI-J (if used) integral strategy            ... SPLIT-RIJ (Revised 2003 algorithm where possible)
Printlevel                                  ...      1
Contraction scheme used                     ... SEGMENTED contraction
Prescreening option                         ... SCHWARTZ
   Thresh                                   ... 3.000e-11
   Tcut                                     ... 1.000e-12
   Tpresel                                  ... 1.000e-12 
Coulomb Range Separation                    ... NOT USED
Exchange Range Separation                   ... Long Range
   Mu parameter                             ... 3.000e-01
   Scaling (regular/separated)              ... 1.670e-01 8.330e-01
Multipole approximations                    ... NOT USED
Finite Nucleus Model                        ... NOT USED
CABS basis                                  ... NOT available
Auxiliary Coulomb fitting basis             ... AVAILABLE
   # of basis functions in Aux-J            ...    600
   # of shells in Aux-J                     ...    200
   Maximum angular momentum in Aux-J        ...      4
Auxiliary J/K fitting basis                 ... NOT available
Auxiliary Correlation fitting basis         ... NOT available
Auxiliary 'external' fitting basis          ... NOT available

Checking pre-screening integrals            ... done (  0.0 sec) Dimension = 150
Check shell pair data                       ... done (  0.0 sec)
Shell pair information
Shell pair cut-off parameter TPreSel        ...   1.0e-12
Total number of shell pairs                 ...     11325
Shell pairs after pre-screening             ...      9927
Total number of primitive shell pairs       ...     34180
Primitive shell pairs kept                  ...     21936
          la=0 lb=0:   2714 shell pairs
          la=1 lb=0:   2812 shell pairs
          la=1 lb=1:    748 shell pairs
          la=2 lb=0:   1427 shell pairs
          la=2 lb=1:    739 shell pairs
          la=2 lb=2:    194 shell pairs
          la=3 lb=0:    691 shell pairs
          la=3 lb=1:    364 shell pairs
          la=3 lb=2:    185 shell pairs
          la=3 lb=3:     53 shell pairs

Calculating one electron integrals          ... done (  0.1 sec)
Calculating RI/J V-Matrix + Cholesky decomp.... done (  0.1 sec)
Calculating Nuclear repulsion               ... done (  0.0 sec) ENN=    516.323071450562 Eh

Diagonalization of the overlap matrix:
Smallest eigenvalue                        ... 7.872e-06
Time for diagonalization                   ...    0.016 sec
Threshold for overlap eigenvalues          ... 1.000e-07
Number of eigenvalues below threshold      ... 0
Time for construction of square roots      ...    0.022 sec
Total time needed                          ...    0.047 sec

-------------------
DFT GRID GENERATION
-------------------

General Integration Accuracy     IntAcc      ... 4.388
Radial Grid Type                 RadialGrid  ... OptM3 with GC (2021)
Angular Grid (max. ang.)         AngularGrid ... 4 (Lebedev-302)
Angular grid pruning method      GridPruning ... 4 (adaptive)
Weight generation scheme         WeightScheme... mBecke (2022)
Basis function cutoff            BFCut       ... 1.0000e-11
Integration weight cutoff        WCut        ... 1.0000e-14
Partially contracted basis set               ... off
Rotationally invariant grid construction     ... off
Angular grids for H and He will be reduced by one unit

Total number of grid points                  ...    92254
Total number of batches                      ...     1451
Average number of points per batch           ...       63
Average number of grid points per atom       ...     4613

--------------------
COSX GRID GENERATION
--------------------

GRIDX 1
-------
General Integration Accuracy     IntAcc      ... 3.816
Radial Grid Type                 RadialGrid  ... OptM3 with GC (2021)
Angular Grid (max. ang.)         AngularGrid ... 1 (Lebedev-50)
Angular grid pruning method      GridPruning ... 4 (adaptive)
Weight generation scheme         WeightScheme... mBecke (2022)
Basis function cutoff            BFCut       ... 1.0000e-11
Integration weight cutoff        WCut        ... 1.0000e-14
Partially contracted basis set               ... on
Rotationally invariant grid construction     ... off
Angular grids for H and He will be reduced by one unit

Total number of grid points                  ...    11826
Total number of batches                      ...      104
Average number of points per batch           ...      113
Average number of grid points per atom       ...      591
UseSFitting                                  ... on

GRIDX 2
-------
General Integration Accuracy     IntAcc      ... 4.020
Radial Grid Type                 RadialGrid  ... OptM3 with GC (2021)
Angular Grid (max. ang.)         AngularGrid ... 2 (Lebedev-110)
Angular grid pruning method      GridPruning ... 4 (adaptive)
Weight generation scheme         WeightScheme... mBecke (2022)
Basis function cutoff            BFCut       ... 1.0000e-11
Integration weight cutoff        WCut        ... 1.0000e-14
Partially contracted basis set               ... on
Rotationally invariant grid construction     ... off
Angular grids for H and He will be reduced by one unit

Total number of grid points                  ...    25479
Total number of batches                      ...      209
Average number of points per batch           ...      121
Average number of grid points per atom       ...     1274
UseSFitting                                  ... on

GRIDX 3
-------
General Integration Accuracy     IntAcc      ... 4.338
Radial Grid Type                 RadialGrid  ... OptM3 with GC (2021)
Angular Grid (max. ang.)         AngularGrid ... 3 (Lebedev-194)
Angular grid pruning method      GridPruning ... 4 (adaptive)
Weight generation scheme         WeightScheme... mBecke (2022)
Basis function cutoff            BFCut       ... 1.0000e-11
Integration weight cutoff        WCut        ... 1.0000e-14
Partially contracted basis set               ... on
Rotationally invariant grid construction     ... off
Angular grids for H and He will be reduced by one unit

Total number of grid points                  ...    55904
Total number of batches                      ...      445
Average number of points per batch           ...      125
Average number of grid points per atom       ...     2795
UseSFitting                                  ... on
Initializing property integral containers    ... done (  0.0 sec)

SHARK setup successfully completed in   3.3 seconds

Maximum memory used throughout the entire STARTUP-calculation: 57.7 MB
-------------------------------------------------------------------------------
                                 ORCA GUESS
                   Start orbitals & Density for SCF / CASSCF
-------------------------------------------------------------------------------

------------
SCF SETTINGS
------------
Hamiltonian:
 Density Functional     Method          .... DFT(GTOs)
 Exchange Functional    Exchange        .... WB97X-V
 Correlation Functional Correlation     .... WB97X-V
 Gradients option       PostSCFGGA      .... off
 Hybrid DFT is turned on
   Fraction HF Exchange ScalHFX         ....  0.167000
   Scaling of DF-GGA-X  ScalDFX         ....  0.000000
   Scaling of DF-GGA-C  ScalDFC         ....  1.000000
   Scaling of DF-LDA-C  ScalLDAC        ....  1.000000
   Perturbative correction              ....  0.000000
 Long-range corrected/Screened/Range-Separated Hybrid DFT is turned on
   Amount of maximum screened exact exchange              ....  0.833000
   Range separation parameter mu (erf(mu*r12)/r12)        ....  0.300000
   NL short-range parameter             ....  6.000000
   NL long-range parameter              ....  0.010000
 RI-approximation to the Coulomb term is turned on
   Number of AuxJ basis functions       .... 600
   RIJ-COSX (HFX calculated with COS-X)).... on


General Settings:
 Integral files         IntName         .... sp_solv
 Hartree-Fock type      HFTyp           .... RHF
 Total Charge           Charge          ....    0
 Multiplicity           Mult            ....    1
 Number of Electrons    NEL             ....   74
 Basis Dimension        Dim             ....  370
 Nuclear Repulsion      ENuc            ....    516.3230714506 Eh

Convergence Acceleration:
 AO-DIIS                CNVDIIS         .... on
   Start iteration      DIISMaxIt       ....    12
   Startup error        DIISStart       ....  0.200000
   # of expansion vecs  DIISMaxEq       ....     5
   Bias factor          DIISBfac        ....   1.050
   Max. coefficient     DIISMaxC        ....  10.000
 MO-DIIS                CNVKDIIS        .... off
 Trust-Rad. Augm. Hess. CNVTRAH         .... auto
   Auto Start mean grad. ratio tolernc. ....  1.125000
   Auto Start start iteration           ....     1
   Auto Start num. interpolation iter.  ....    10
   Max. Number of Micro iterations      ....    24
   Max. Number of Macro iterations      .... Maxiter - #DIIS iter
   Number of Davidson start vectors     ....     2
   Converg. threshold    (grad. norm)   ....   1.000e-04
   Grad. Scal. Fac. for Micro threshold ....   0.100
   Minimum threshold for Micro iter.    ....   1.000e-02
   NR start threshold (gradient norm)   ....   1.000e-04
   Initial trust radius                 ....   0.400
   Minimum AH scaling param. (alpha)    ....   1.000
   Maximum AH scaling param. (alpha)    .... 1000.000
   Quad. conv. algorithm                .... NR
   White noise on init. David. guess    .... on
   Maximum white noise                  ....   0.010
   Pseudo random numbers                .... off
   Inactive MOs                         .... canonical
   Orbital update algorithm             .... Taylor
   Preconditioner                       .... Diag
   Full preconditioner red. dimension   ....   250
 SOSCF                  CNVSOSCF        .... on
   Start iteration      SOSCFMaxIt      ....   150
   Startup grad/error   SOSCFStart      ....  0.003300
   Hessian update       SOSCFHessUp     .... L-BFGS
 Level Shifting         CNVShift        .... on
   Level shift para.    LevelShift      ....    0.2500
   Turn off err/grad.   ShiftErr        ....    0.0010
 Zerner damping         CNVZerner       .... off
 Static damping         CNVDamp         .... on
   Fraction old density DampFac         ....    0.7000
   Max. Damping (<1)    DampMax         ....    0.9800
   Min. Damping (>=0)   DampMin         ....    0.0000
   Turn off err/grad.   DampErr         ....    0.1000

SCF Procedure:
 Maximum # iterations   MaxIter         ....   125
 SCF integral mode      SCFMode         .... Direct
   Integral package                     .... SHARK and LIBINT hybrid scheme
 Reset frequency        DirectResetFreq ....    20
 Integral Threshold     Thresh          ....  3.000e-11 Eh
 Primitive CutOff       TCut            ....  1.000e-12 Eh

Convergence Tolerance:
 Convergence Check Mode ConvCheckMode   .... Total+1el-Energy
 Convergence forced     ConvForced      .... 0
 Energy Change          TolE            ....  1.000e-07 Eh
 1-El. energy change                    ....  1.000e-04 Eh
 Orbital Gradient       TolG            ....  1.000e-04
 Orbital Rotation angle TolX            ....  1.000e-04
 DIIS Error             TolErr          ....  1.000e-07

---------------------
INITIAL GUESS: MOREAD
---------------------
Guess MOs are being read from file: sp_solv.ges
Input Geometry matches current geometry (good)
Atom 0: N(Shells)= 11 and 9 - projection required
Input basis set needs projection
NBasis(read)= 250
NBasis(calc)= 370
Basis set overlap was calculated
Using GuessMode=FMatrix for the initial guess
C*T matrix was formed
Effective Fockian was calculated
Effective Fockian was diagonalized
Initial density was built
                      ------------------
                      INITIAL GUESS DONE (   0.1 sec)
                      ------------------
             **** ENERGY FILE WAS UPDATED (sp_solv.en.tmp) ****
Finished Guess after   0.4 sec
Maximum memory used throughout the entire GUESS-calculation: 37.6 MB

-------------------------------------------------------------------------------------------
                                      ORCA LEAN-SCF
                              memory conserving SCF solver
-------------------------------------------------------------------------------------------

--------------------
CPCM SOLVATION MODEL
--------------------
CPCM parameters:
  Epsilon                                         ...      78.3550
  Refrac                                          ...       1.3328
  Rsolv                                           ...       1.3000
  Surface type                                    ... GAUSSIAN VDW
  Discretization scheme                           ... Constant charge density
    Threshold for H atoms                         ...       5.0000 (charges/Ang^2)
    Threshold for non-H atoms                     ...       5.0000 (charges/Ang^2)
  Epsilon function type                           ...         CPCM
Solvent:                                          ... WATER
SMD-CDS solvent descriptors:
  Soln                                            ...       1.3328
  Soln25                                          ...       1.3323
  Sola                                            ...       0.0000
  Solb                                            ...       0.0000
  Solg                                            ...       0.0000
  Solc                                            ...       0.0000
  Solh                                            ...       0.0000
Radii:
  Scheme                                          ... Element-dependent radii
  Radius for C  used is    3.4960 Bohr (=   1.8500 Ang.)
  Radius for O  used is    2.8724 Bohr (=   1.5200 Ang.)
  Radius for H  used is    2.2677 Bohr (=   1.2000 Ang.)
Calculating surface                               ...        done! (  0.0s)
Cavity surface points                             ...         1504
Cavity Volume                                     ...     972.8479
Cavity Surface-area                               ...     612.1225
Calculating surface distance matrix               ...        done! (  0.0s)
Performing Cholesky decomposition & store         ...        done! (  0.1s)
Overall time for CPCM initialization              ...                 0.1s

----------------------------------------D-I-I-S--------------------------------------------
Iteration    Energy (Eh)           Delta-E    RMSDP     MaxDP     DIISErr   Damp  Time(sec)
-------------------------------------------------------------------------------------------
               ***  Starting incremental Fock matrix formation  ***
    1    -461.6191366603718507     0.00e+00  1.50e-03  1.05e-01  6.48e-02  0.700  31.8
    2    -461.6257790074062086    -6.64e-03  1.22e-03  8.09e-02  4.69e-02  0.700  15.7
                               ***Turning on AO-DIIS***
    3    -461.6307873242108144    -5.01e-03  9.58e-04  6.00e-02  3.35e-02  0.700  15.6
    4    -461.6344750764870923    -3.69e-03  2.33e-03  1.42e-01  2.35e-02  0.000  15.4
                              *** Initializing SOSCF ***
---------------------------------------S-O-S-C-F--------------------------------------
Iteration    Energy (Eh)           Delta-E    RMSDP     MaxDP     MaxGrad    Time(sec)
--------------------------------------------------------------------------------------
    5    -461.6438549166641678    -9.38e-03  7.79e-05  2.75e-03  1.49e-03    15.9
               *** Restarting incremental Fock matrix formation ***
    6    -461.6438966711996272    -4.18e-05  3.41e-05  1.13e-03  6.46e-04    31.6
    7    -461.6439068982554090    -1.02e-05  2.64e-05  1.12e-03  2.00e-04    24.1
    8    -461.6439083994108614    -1.50e-06  5.65e-06  3.02e-04  8.19e-05    23.3
    9    -461.6439087623847399    -3.63e-07  1.77e-06  5.82e-05  4.45e-05    20.8
   10    -461.6439088078938084    -4.55e-08  1.18e-06  4.40e-05  4.93e-06    19.5
                 **** Energy Check signals convergence ****

               *****************************************************
               *                     SUCCESS                       *
               *           SCF CONVERGED AFTER  10 CYCLES          *
               *****************************************************


------------------
NL GRID GENERATION
------------------

General Integration Accuracy     IntAcc      ... 4.004
Radial Grid Type                 RadialGrid  ... OptM3 with GC (2021)
Angular Grid (max. ang.)         AngularGrid ... 2 (Lebedev-110)
Angular grid pruning method      GridPruning ... 4 (adaptive)
Weight generation scheme         WeightScheme... mBecke (2022)
Basis function cutoff            BFCut       ... 1.0000e-10
Integration weight cutoff        WCut        ... 1.0000e-14
Partially contracted basis set               ... off
Rotationally invariant grid construction     ... off
Angular grids for H and He will be reduced by one unit

Total number of grid points                  ...    28954
Total number of batches                      ...      462
Average number of points per batch           ...       62
Average number of grid points per atom       ...     1448
Final grid set up in    0.3 sec

-------------------------------------------------------------------------------
                    post-SCF DFT-NL dispersion correction                      
-------------------------------------------------------------------------------

SCF Energy:     -461.643908808 
NL    Energy:      0.281611846 
SC+NL Energy:   -461.362296962 
NL done in  :              3.9 sec
-------------------------------------------------------------------------------
Recomputing exchange energy using gridx3       ... done (   55.623 sec)
Old exchange energy                            :    -19.937492485 Eh
New exchange energy                            :    -19.937477341 Eh
Exchange energy change after final integration :      0.000015145 Eh
Total energy after final integration           :   -461.362281818 Eh

SMD CDS free energy correction energy :                 5.04252     Kcal/mol
Total Energy after SMD CDS correction =              -461.354246052 Eh
             **** ENERGY FILE WAS UPDATED (sp_solv.en.tmp) ****

----------------
TOTAL SCF ENERGY
----------------

Total Energy       :       -461.35424605225131 Eh          -12554.08727 eV

Components:
Nuclear Repulsion  :        516.32307145056234 Eh           14049.86506 eV
Electronic Energy  :       -977.94127963902656 Eh          -26611.13510 eV
One Electron Energy:      -1650.38884690789519 Eh          -44909.36367 eV
Two Electron Energy:        672.44756726886862 Eh           18298.22857 eV
CPCM Dielectric    :         -0.02570061942962 Eh              -0.69935 eV
SMD CDS (Gcds)     :          0.00803576536310 Eh               0.21866 eV

Virial components:
Potential Energy   :       -920.85668496717403 Eh          -25057.78431 eV
Kinetic Energy     :        459.50243891492272 Eh           12503.69704 eV
Virial Ratio       :          2.00403002678659

DFT components:
N(Alpha)           :       36.999973528724 electrons
N(Beta)            :       36.999973528724 electrons
N(Total)           :       73.999947057448 electrons
E(X)               :      -41.558511815033 Eh       
E(C)               :       -3.082919748704 Eh       
NL Energy, E(C,NL) :        0.281611845607 Eh       
E(XC)              :      -44.359819718129 Eh       

CPCM Solvation Model Properties:
Surface-charge          :         -0.05083748120669
Corrected charge        :          0.00000000000000
Outlying charge corr.   :          0.00018954030437 Eh               0.00516 eV
Free-energy (cav+disp)  :          0.00803576536310 Eh               0.21866 eV

---------------
SCF CONVERGENCE
---------------

  Last Energy change         ...    4.5509e-08  Tolerance :   1.0000e-07
  Last MAX-Density change    ...    4.3958e-05  Tolerance :   1.0000e-05
  Last RMS-Density change    ...    1.1809e-06  Tolerance :   1.0000e-06
  Last DIIS Error            ...    1.4871e-03  Tolerance :   1.0000e-07
  Last Orbital Gradient      ...    4.9317e-06  Tolerance :   1.0000e-04
  Last Orbital Rotation      ...    1.3997e-05  Tolerance :   1.0000e-04


----------------
ORBITAL ENERGIES
----------------

  NO   OCC          E(Eh)            E(eV) 
   0   2.0000     -21.705220      -590.6291 
   1   2.0000     -21.700630      -590.5042 
   2   2.0000     -12.110145      -329.5338 
   3   2.0000     -12.107186      -329.4533 
   4   2.0000     -12.088142      -328.9351 
   5   2.0000     -12.055022      -328.0338 
   6   2.0000     -12.048767      -327.8636 
   7   2.0000     -12.045316      -327.7697 
   8   2.0000     -12.041401      -327.6632 
   9   2.0000     -12.032898      -327.4318 
  10   2.0000      -1.721013       -46.8311 
  11   2.0000      -1.710265       -46.5387 
  12   2.0000      -1.388284       -37.7771 
  13   2.0000      -1.306570       -35.5536 
  14   2.0000      -1.284459       -34.9519 
  15   2.0000      -1.226433       -33.3729 
  16   2.0000      -1.198511       -32.6132 
  17   2.0000      -1.137511       -30.9533 
  18   2.0000      -1.108014       -30.1506 
  19   2.0000      -1.063911       -28.9505 
  20   2.0000      -1.037692       -28.2370 
  21   2.0000      -1.012326       -27.5468 
  22   2.0000      -0.979994       -26.6670 
  23   2.0000      -0.973629       -26.4938 
  24   2.0000      -0.945533       -25.7293 
  25   2.0000      -0.931685       -25.3524 
  26   2.0000      -0.909704       -24.7543 
  27   2.0000      -0.890391       -24.2288 
  28   2.0000      -0.836897       -22.7731 
  29   2.0000      -0.829578       -22.5740 
  30   2.0000      -0.827200       -22.5093 
  31   2.0000      -0.819816       -22.3083 
  32   2.0000      -0.812749       -22.1160 
  33   2.0000      -0.799811       -21.7640 
  34   2.0000      -0.756721       -20.5914 
  35   2.0000      -0.641666       -17.4606 
  36   2.0000      -0.632067       -17.1994 
  37   0.0000      -0.249388        -6.7862 
  38   0.0000      -0.245233        -6.6731 
  39   0.0000      -0.195771        -5.3272 
  40   0.0000      -0.137011        -3.7283 
  41   0.0000      -0.090363        -2.4589 
  42   0.0000      -0.074860        -2.0370 
  43   0.0000      -0.037437        -1.0187 
  44   0.0000      -0.009263        -0.2521 
  45   0.0000       0.002847         0.0775 
  46   0.0000       0.008803         0.2395 
  47   0.0000       0.024653         0.6708 
*Only the first 10 virtual orbitals were printed.

                    ********************************
                    * MULLIKEN POPULATION ANALYSIS *
                    ********************************

-----------------------
MULLIKEN ATOMIC CHARGES
-----------------------
   0 C :   -0.396187
   1 C :    0.118586
   2 C :   -0.286450
   3 C :   -0.201042
   4 C :    0.150822
   5 C :    0.255663
   6 C :   -0.361556
   7 O :   -0.315777
   8 C :   -0.233768
   9 O :   -0.477928
  10 H :    0.139986
  11 H :    0.139543
  12 H :    0.140161
  13 H :    0.157780
  14 H :    0.166421
  15 H :    0.176089
  16 H :    0.145363
  17 H :    0.158288
  18 H :    0.145243
  19 H :    0.378764
Sum of atomic charges:   -0.0000000

--------------------------------
MULLIKEN REDUCED ORBITAL CHARGES
--------------------------------
  0 C s       :     3.280668  s :     3.280668
      pz      :     1.074964  p :     3.055373
      px      :     0.963551
      py      :     1.016858
      dz2     :     0.006270  d :     0.056764
      dxz     :     0.017962
      dyz     :     0.007123
      dx2y2   :     0.017120
      dxy     :     0.008289
      f0      :     0.000641  f :     0.003382
      f+1     :     0.000525
      f-1     :     0.000047
      f+2     :     0.000045
      f-2     :     0.000552
      f+3     :     0.000857
      f-3     :     0.000715

  1 C s       :     3.163969  s :     3.163969
      pz      :     0.931333  p :     2.566284
      px      :     0.818066
      py      :     0.816884
      dz2     :     0.005019  d :     0.141057
      dxz     :     0.026763
      dyz     :     0.023743
      dx2y2   :     0.045131
      dxy     :     0.040400
      f0      :     0.001692  f :     0.010104
      f+1     :     0.000767
      f-1     :     0.000648
      f+2     :     0.001192
      f-2     :     0.000951
      f+3     :     0.003402
      f-3     :     0.001453

  2 C s       :     3.243464  s :     3.243464
      pz      :     1.015151  p :     2.945077
      px      :     0.996344
      py      :     0.933582
      dz2     :     0.003543  d :     0.090459
      dxz     :     0.009467
      dyz     :     0.019794
      dx2y2   :     0.028559
      dxy     :     0.029095
      f0      :     0.001526  f :     0.007450
      f+1     :     0.000713
      f-1     :     0.000627
      f+2     :     0.000764
      f-2     :     0.000587
      f+3     :     0.002132
      f-3     :     0.001100

  3 C s       :     3.217604  s :     3.217604
      pz      :     1.018667  p :     2.892840
      px      :     0.899459
      py      :     0.974714
      dz2     :     0.005430  d :     0.083219
      dxz     :     0.024708
      dyz     :     0.005595
      dx2y2   :     0.027123
      dxy     :     0.020364
      f0      :     0.001594  f :     0.007379
      f+1     :     0.000617
      f-1     :     0.000725
      f+2     :     0.000234
      f-2     :     0.001182
      f+3     :     0.001862
      f-3     :     0.001165

  4 C s       :     3.067939  s :     3.067939
      pz      :     0.980483  p :     2.608032
      px      :     0.789997
      py      :     0.837552
      dz2     :     0.005130  d :     0.157953
      dxz     :     0.038419
      dyz     :     0.028960
      dx2y2   :     0.057213
      dxy     :     0.028231
      f0      :     0.002499  f :     0.015254
      f+1     :     0.001156
      f-1     :     0.000939
      f+2     :     0.001427
      f-2     :     0.002107
      f+3     :     0.004969
      f-3     :     0.002157

  5 C s       :     3.061099  s :     3.061099
      pz      :     0.970761  p :     2.507738
      px      :     0.702641
      py      :     0.834336
      dz2     :     0.004491  d :     0.160007
      dxz     :     0.047219
      dyz     :     0.025487
      dx2y2   :     0.045573
      dxy     :     0.037237
      f0      :     0.002533  f :     0.015493
      f+1     :     0.001244
      f-1     :     0.000888
      f+2     :     0.002079
      f-2     :     0.001640
      f+3     :     0.004818
      f-3     :     0.002289

  6 C s       :     3.276781  s :     3.276781
      pz      :     1.047577  p :     2.995180
      px      :     0.922966
      py      :     1.024637
      dz2     :     0.005085  d :     0.082153
      dxz     :     0.022987
      dyz     :     0.005369
      dx2y2   :     0.024609
      dxy     :     0.024103
      f0      :     0.001561  f :     0.007442
      f+1     :     0.000655
      f-1     :     0.000698
      f+2     :     0.000282
      f-2     :     0.001082
      f+3     :     0.001956
      f-3     :     0.001207

  7 O s       :     3.740098  s :     3.740098
      pz      :     1.790550  p :     4.534060
      px      :     1.420936
      py      :     1.322573
      dz2     :     0.004573  d :     0.039615
      dxz     :     0.005244
      dyz     :     0.004849
      dx2y2   :     0.016090
      dxy     :     0.008858
      f0      :     0.000257  f :     0.002005
      f+1     :     0.000268
      f-1     :     0.000313
      f+2     :     0.000214
      f-2     :     0.000094
      f+3     :     0.000405
      f-3     :     0.000454

  8 C s       :     3.254149  s :     3.254149
      pz      :     1.088728  p :     2.880251
      px      :     1.127920
      py      :     0.663602
      dz2     :     0.008684  d :     0.091949
      dxz     :     0.006979
      dyz     :     0.036202
      dx2y2   :     0.021372
      dxy     :     0.018711
      f0      :     0.000995  f :     0.007420
      f+1     :     0.000714
      f-1     :     0.001030
      f+2     :     0.001488
      f-2     :     0.000123
      f+3     :     0.001862
      f-3     :     0.001209

  9 O s       :     3.750121  s :     3.750121
      pz      :     1.851603  p :     4.695278
      px      :     1.522831
      py      :     1.320844
      dz2     :     0.004382  d :     0.030870
      dxz     :     0.004960
      dyz     :     0.001264
      dx2y2   :     0.011316
      dxy     :     0.008947
      f0      :     0.000217  f :     0.001660
      f+1     :     0.000243
      f-1     :     0.000427
      f+2     :     0.000040
      f-2     :     0.000098
      f+3     :     0.000286
      f-3     :     0.000348

 10 H s       :     0.838982  s :     0.838982
      pz      :     0.004977  p :     0.021032
      px      :     0.004239
      py      :     0.011815

 11 H s       :     0.839393  s :     0.839393
      pz      :     0.011307  p :     0.021065
      px      :     0.005528
      py      :     0.004230

 12 H s       :     0.838967  s :     0.838967
      pz      :     0.006996  p :     0.020872
      px      :     0.008771
      py      :     0.005105

 13 H s       :     0.820334  s :     0.820334
      pz      :     0.004670  p :     0.021886
      px      :     0.011801
      py      :     0.005415

 14 H s       :     0.811642  s :     0.811642
      pz      :     0.004611  p :     0.021937
      px      :     0.003305
      py      :     0.014021

 15 H s       :     0.801130  s :     0.801130
      pz      :     0.004878  p :     0.022781
      px      :     0.003615
      py      :     0.014288

 16 H s       :     0.834861  s :     0.834861
      pz      :     0.010034  p :     0.019776
      px      :     0.005385
      py      :     0.004357

 17 H s       :     0.821204  s :     0.821204
      pz      :     0.004233  p :     0.020507
      px      :     0.013454
      py      :     0.002820

 18 H s       :     0.834975  s :     0.834975
      pz      :     0.010114  p :     0.019782
      px      :     0.005372
      py      :     0.004296

 19 H s       :     0.577291  s :     0.577291
      pz      :     0.014168  p :     0.043945
      px      :     0.009330
      py      :     0.020447


------------------------
MULLIKEN OVERLAP CHARGES
------------------------
B(  0-C ,  1-C ) :   0.5806 B(  0-C ,  2-C ) :  -0.1491 B(  0-C ,  6-C ) :  -0.1189 
B(  0-C , 10-H ) :   0.8688 B(  0-C , 11-H ) :   0.7941 B(  0-C , 12-H ) :   0.8516 
B(  1-C ,  2-C ) :   0.9446 B(  1-C ,  4-C ) :  -0.0635 B(  1-C ,  6-C ) :   0.7211 
B(  1-C , 10-H ) :  -0.1211 B(  1-C , 12-H ) :  -0.0936 B(  1-C , 13-H ) :  -0.0992 
B(  1-C , 15-H ) :  -0.0599 B(  2-C ,  3-C ) :   0.6280 B(  2-C ,  5-C ) :  -0.0946 
B(  2-C ,  6-C ) :  -0.0911 B(  2-C , 13-H ) :   0.8684 B(  2-C , 14-H ) :  -0.0911 
B(  3-C ,  4-C ) :   0.9549 B(  3-C ,  5-C ) :  -0.1126 B(  3-C ,  6-C ) :  -0.0918 
B(  3-C ,  9-O ) :  -0.1676 B(  3-C , 13-H ) :  -0.0792 B(  3-C , 14-H ) :   0.8843 
B(  4-C ,  5-C ) :   0.8948 B(  4-C ,  6-C ) :  -0.1047 B(  4-C ,  7-O ) :  -0.1587 
B(  4-C ,  9-O ) :   0.7095 B(  4-C , 14-H ) :  -0.0916 B(  4-C , 19-H ) :  -0.0786 
B(  5-C ,  6-C ) :   0.7908 B(  5-C ,  7-O ) :   0.8117 B(  5-C ,  8-C ) :  -0.1627 
B(  5-C ,  9-O ) :  -0.0905 B(  5-C , 15-H ) :  -0.0871 B(  6-C ,  7-O ) :  -0.1830 
B(  6-C , 15-H ) :   0.8583 B(  7-O ,  8-C ) :   0.4831 B(  7-O , 16-H ) :  -0.0805 
B(  7-O , 17-H ) :  -0.0551 B(  7-O , 18-H ) :  -0.0805 B(  8-C , 16-H ) :   0.8398 
B(  8-C , 17-H ) :   0.8027 B(  8-C , 18-H ) :   0.8390 B(  9-O , 19-H ) :   0.6288 
B( 11-H , 12-H ) :  -0.0537 B( 16-H , 18-H ) :  -0.0879 


                     *******************************
                     * LOEWDIN POPULATION ANALYSIS *
                     *******************************

----------------------
LOEWDIN ATOMIC CHARGES
----------------------
   0 C :   -0.255333
   1 C :   -0.188604
   2 C :   -0.141996
   3 C :   -0.140655
   4 C :   -0.256550
   5 C :   -0.236512
   6 C :   -0.117843
   7 O :    0.190409
   8 C :   -0.305271
   9 O :    0.034197
  10 H :    0.129180
  11 H :    0.130869
  12 H :    0.129956
  13 H :    0.152635
  14 H :    0.157492
  15 H :    0.161027
  16 H :    0.114263
  17 H :    0.117946
  18 H :    0.114278
  19 H :    0.210512

-------------------------------
LOEWDIN REDUCED ORBITAL CHARGES
-------------------------------
  0 C s       :     2.814633  s :     2.814633
      pz      :     1.075224  p :     3.163839
      px      :     1.036823
      py      :     1.051791
      dz2     :     0.035962  d :     0.252336
      dxz     :     0.069710
      dyz     :     0.026197
      dx2y2   :     0.072373
      dxy     :     0.048093
      f0      :     0.003523  f :     0.024526
      f+1     :     0.002878
      f-1     :     0.001531
      f+2     :     0.002347
      f-2     :     0.004347
      f+3     :     0.005633
      f-3     :     0.004267

  1 C s       :     2.712457  s :     2.712457
      pz      :     0.843084  p :     2.885147
      px      :     1.005920
      py      :     1.036142
      dz2     :     0.031629  d :     0.532768
      dxz     :     0.080174
      dyz     :     0.080785
      dx2y2   :     0.161947
      dxy     :     0.178234
      f0      :     0.004054  f :     0.058233
      f+1     :     0.003943
      f-1     :     0.004109
      f+2     :     0.008107
      f-2     :     0.006265
      f+3     :     0.022152
      f-3     :     0.009602

  2 C s       :     2.755695  s :     2.755695
      pz      :     0.919259  p :     2.957498
      px      :     1.001243
      py      :     1.036996
      dz2     :     0.024778  d :     0.386233
      dxz     :     0.028064
      dyz     :     0.067615
      dx2y2   :     0.122097
      dxy     :     0.143679
      f0      :     0.002899  f :     0.042570
      f+1     :     0.003267
      f-1     :     0.003981
      f+2     :     0.005369
      f-2     :     0.004040
      f+3     :     0.014921
      f-3     :     0.008093

  3 C s       :     2.760156  s :     2.760156
      pz      :     0.919661  p :     2.960545
      px      :     1.047734
      py      :     0.993150
      dz2     :     0.025210  d :     0.377184
      dxz     :     0.088408
      dyz     :     0.012696
      dx2y2   :     0.152805
      dxy     :     0.098064
      f0      :     0.003089  f :     0.042769
      f+1     :     0.004442
      f-1     :     0.003100
      f+2     :     0.001606
      f-2     :     0.008578
      f+3     :     0.013537
      f-3     :     0.008416

  4 C s       :     2.715039  s :     2.715039
      pz      :     0.893654  p :     2.790374
      px      :     0.921483
      py      :     0.975237
      dz2     :     0.044274  d :     0.658571
      dxz     :     0.125590
      dyz     :     0.090319
      dx2y2   :     0.211332
      dxy     :     0.187056
      f0      :     0.006950  f :     0.092566
      f+1     :     0.007792
      f-1     :     0.005662
      f+2     :     0.009390
      f-2     :     0.014893
      f+3     :     0.030839
      f-3     :     0.017041

  5 C s       :     2.709714  s :     2.709714
      pz      :     0.884616  p :     2.776112
      px      :     0.881680
      py      :     1.009816
      dz2     :     0.044954  d :     0.657859
      dxz     :     0.136128
      dyz     :     0.080267
      dx2y2   :     0.222857
      dxy     :     0.173652
      f0      :     0.006628  f :     0.092827
      f+1     :     0.008459
      f-1     :     0.004995
      f+2     :     0.013545
      f-2     :     0.011314
      f+3     :     0.031388
      f-3     :     0.016498

  6 C s       :     2.750684  s :     2.750684
      pz      :     0.936927  p :     2.958158
      px      :     1.030411
      py      :     0.990819
      dz2     :     0.025496  d :     0.367314
      dxz     :     0.079571
      dyz     :     0.013090
      dx2y2   :     0.144037
      dxy     :     0.105121
      f0      :     0.002949  f :     0.041687
      f+1     :     0.004322
      f-1     :     0.003083
      f+2     :     0.001555
      f-2     :     0.008001
      f+3     :     0.013363
      f-3     :     0.008414

  7 O s       :     3.252932  s :     3.252932
      pz      :     1.653762  p :     4.442911
      px      :     1.433637
      py      :     1.355512
      dz2     :     0.009871  d :     0.107363
      dxz     :     0.013053
      dyz     :     0.015037
      dx2y2   :     0.038263
      dxy     :     0.031138
      f0      :     0.000709  f :     0.006384
      f+1     :     0.000507
      f-1     :     0.000554
      f+2     :     0.000966
      f-2     :     0.000280
      f+3     :     0.001971
      f-3     :     0.001398

  8 C s       :     2.861569  s :     2.861569
      pz      :     1.112186  p :     3.019940
      px      :     1.107962
      py      :     0.799792
      dz2     :     0.047657  d :     0.371395
      dxz     :     0.022017
      dyz     :     0.122747
      dx2y2   :     0.107756
      dxy     :     0.071218
      f0      :     0.005775  f :     0.052368
      f+1     :     0.003239
      f-1     :     0.007526
      f+2     :     0.008320
      f-2     :     0.003681
      f+3     :     0.012535
      f-3     :     0.011291

  9 O s       :     3.327674  s :     3.327674
      pz      :     1.737092  p :     4.565953
      px      :     1.536455
      py      :     1.292406
      dz2     :     0.007645  d :     0.067604
      dxz     :     0.010965
      dyz     :     0.003819
      dx2y2   :     0.027376
      dxy     :     0.017797
      f0      :     0.000400  f :     0.004572
      f+1     :     0.000388
      f-1     :     0.000671
      f+2     :     0.000134
      f-2     :     0.000481
      f+3     :     0.001533
      f-3     :     0.000964

 10 H s       :     0.810269  s :     0.810269
      pz      :     0.015510  p :     0.060551
      px      :     0.013003
      py      :     0.032038

 11 H s       :     0.808440  s :     0.808440
      pz      :     0.032312  p :     0.060691
      px      :     0.015396
      py      :     0.012982

 12 H s       :     0.809398  s :     0.809398
      pz      :     0.021089  p :     0.060646
      px      :     0.023467
      py      :     0.016091

 13 H s       :     0.787957  s :     0.787957
      pz      :     0.013950  p :     0.059409
      px      :     0.030340
      py      :     0.015119

 14 H s       :     0.782765  s :     0.782765
      pz      :     0.013726  p :     0.059744
      px      :     0.010277
      py      :     0.035741

 15 H s       :     0.777195  s :     0.777195
      pz      :     0.014701  p :     0.061778
      px      :     0.010483
      py      :     0.036594

 16 H s       :     0.824232  s :     0.824232
      pz      :     0.031001  p :     0.061505
      px      :     0.017421
      py      :     0.013084

 17 H s       :     0.821087  s :     0.821087
      pz      :     0.013402  p :     0.060967
      px      :     0.038973
      py      :     0.008592

 18 H s       :     0.824213  s :     0.824213
      pz      :     0.031225  p :     0.061508
      px      :     0.017372
      py      :     0.012911

 19 H s       :     0.637674  s :     0.637674
      pz      :     0.041356  p :     0.151814
      px      :     0.033911
      py      :     0.076547


---------------------------------
LOEWDIN BOND ORDERS (THRESH 0.050000)
---------------------------------
B(  0-C ,  1-C ) :   1.2138 B(  0-C ,  2-C ) :   0.1768 B(  0-C ,  6-C ) :   0.1757 
B(  0-C , 10-H ) :   0.8936 B(  0-C , 11-H ) :   0.8924 B(  0-C , 12-H ) :   0.8938 
B(  1-C ,  2-C ) :   1.5100 B(  1-C ,  3-C ) :   0.2367 B(  1-C ,  4-C ) :   0.0954 
B(  1-C ,  5-C ) :   0.2321 B(  1-C ,  6-C ) :   1.4677 B(  1-C , 10-H ) :   0.0812 
B(  1-C , 11-H ) :   0.0817 B(  1-C , 12-H ) :   0.0815 B(  1-C , 13-H ) :   0.0936 
B(  1-C , 15-H ) :   0.0916 B(  2-C ,  3-C ) :   1.5661 B(  2-C ,  4-C ) :   0.2425 
B(  2-C ,  5-C ) :   0.1003 B(  2-C ,  6-C ) :   0.2331 B(  2-C , 13-H ) :   0.8197 
B(  2-C , 14-H ) :   0.0936 B(  3-C ,  4-C ) :   1.5382 B(  3-C ,  5-C ) :   0.2279 
B(  3-C ,  6-C ) :   0.1031 B(  3-C ,  9-O ) :   0.1431 B(  3-C , 13-H ) :   0.0961 
B(  3-C , 14-H ) :   0.8161 B(  4-C ,  5-C ) :   1.3736 B(  4-C ,  6-C ) :   0.2243 
B(  4-C ,  7-O ) :   0.1470 B(  4-C ,  9-O ) :   1.6113 B(  4-C , 14-H ) :   0.0999 
B(  4-C , 19-H ) :   0.1017 B(  5-C ,  6-C ) :   1.5120 B(  5-C ,  7-O ) :   1.5378 
B(  5-C ,  8-C ) :   0.1808 B(  5-C ,  9-O ) :   0.1429 B(  5-C , 15-H ) :   0.0943 
B(  6-C ,  7-O ) :   0.1323 B(  6-C ,  8-C ) :   0.0540 B(  6-C , 15-H ) :   0.8010 
B(  7-O ,  8-C ) :   1.4183 B(  7-O , 17-H ) :   0.0526 B(  8-C , 16-H ) :   0.9316 
B(  8-C , 17-H ) :   0.9339 B(  8-C , 18-H ) :   0.9315 B(  9-O , 19-H ) :   0.9800 


------------------------------------------
LOEWDIN REDUCED ORBITAL POPULATIONS PER MO
-------------------------------------------
THRESHOLD FOR PRINTING IS 0.1%%
                      0         1         2         3         4         5   
                 -21.70522 -21.70063 -12.11015 -12.10719 -12.08814 -12.05502
                   2.00000   2.00000   2.00000   2.00000   2.00000   2.00000
                  --------  --------  --------  --------  --------  --------
 1 C  s               0.0       0.0       0.0       0.0       0.0      97.2
 2 C  s               0.0       0.0       0.0       0.0       0.0       0.5
 2 C  dx2y2           0.0       0.0       0.0       0.0       0.0       0.2
 3 C  dxy             0.0       0.0       0.0       0.1       0.0       0.0
 4 C  s               0.0       0.0      14.5      84.4       0.0       0.0
 4 C  dx2y2           0.0       0.0       0.2       0.0       0.0       0.0
 5 C  s               0.0       0.0      84.4      14.5       0.0       0.0
 5 C  dx2y2           0.0       0.0       0.0       0.2       0.0       0.0
 6 C  s               0.0       0.0       0.0       0.0       0.0       1.0
 6 C  dxy             0.0       0.0       0.1       0.0       0.0       0.1
 7 O  s              99.8       0.0       0.0       0.0       0.0       0.0
 8 C  s               0.0       0.0       0.0       0.0      99.7       0.0
 9 O  s               0.0      99.8       0.0       0.0       0.0       0.0

                      6         7         8         9        10        11   
                 -12.04877 -12.04532 -12.04140 -12.03290  -1.72101  -1.71026
                   2.00000   2.00000   2.00000   2.00000   2.00000   2.00000
                  --------  --------  --------  --------  --------  --------
 0 C  s               0.0       0.0       0.1      99.3       0.0       0.0
 1 C  s               0.0       0.9       0.6       0.1       0.0       0.0
 1 C  dx2y2           0.0       0.1       0.2       0.0       0.0       0.0
 1 C  dxy             0.0       0.1       0.0       0.1       0.0       0.0
 2 C  s               1.9       0.4      96.1       0.1       0.0       0.0
 2 C  dxy             0.2       0.0       0.0       0.0       0.0       0.0
 3 C  s              96.9       0.1       1.9       0.0       0.2       0.2
 3 C  px              0.0       0.0       0.1       0.0       0.5       0.8
 3 C  dx2y2           0.0       0.0       0.0       0.0       0.1       0.2
 3 C  dxy             0.0       0.0       0.2       0.0       0.0       0.0
 4 C  s               0.0       0.0       0.0       0.0       3.5       4.0
 4 C  px              0.1       0.0       0.0       0.0       3.1       4.6
 4 C  py              0.0       0.0       0.0       0.0       0.3       4.1
 4 C  dz2             0.1       0.0       0.0       0.0       0.6       0.7
 4 C  dx2y2           0.1       0.0       0.0       0.0       0.0       0.6
 4 C  dxy             0.1       0.0       0.0       0.0       0.2       3.0
 4 C  f+1             0.0       0.0       0.0       0.0       0.1       0.1
 4 C  f-3             0.1       0.0       0.0       0.0       0.1       0.4
 5 C  s               0.0       0.0       0.0       0.0       6.2       0.8
 5 C  px              0.0       0.1       0.0       0.0       7.0       1.7
 5 C  py              0.0       0.0       0.0       0.0       0.4       2.4
 5 C  dz2             0.0       0.1       0.0       0.0       1.1       0.1
 5 C  dx2y2           0.0       0.0       0.0       0.0       0.8       1.1
 5 C  dxy             0.0       0.2       0.0       0.0       0.8       1.0
 5 C  f+1             0.0       0.0       0.0       0.0       0.2       0.0
 5 C  f-3             0.0       0.1       0.0       0.0       0.3       0.1
 6 C  s               0.1      97.5       0.3       0.0       0.3       0.0
 6 C  px              0.0       0.0       0.0       0.0       1.0       0.2
 6 C  py              0.0       0.0       0.0       0.0       0.1       0.0
 6 C  dx2y2           0.0       0.0       0.0       0.0       0.2       0.1
 7 O  s               0.0       0.0       0.0       0.0      38.9      14.6
 7 O  px              0.0       0.0       0.0       0.0       0.8       0.2
 7 O  py              0.0       0.0       0.0       0.0       0.1       0.2
 8 C  s               0.0       0.0       0.0       0.0       3.4       1.3
 8 C  px              0.0       0.0       0.0       0.0       0.1       0.0
 8 C  py              0.0       0.0       0.0       0.0       6.3       2.3
 8 C  dz2             0.0       0.0       0.0       0.0       0.6       0.2
 8 C  dx2y2           0.0       0.0       0.0       0.0       1.7       0.7
 8 C  dxy             0.0       0.0       0.0       0.0       0.1       0.1
 8 C  f-1             0.0       0.0       0.0       0.0       0.1       0.1
 8 C  f-3             0.0       0.0       0.0       0.0       0.2       0.1
 9 O  s               0.0       0.0       0.0       0.0      14.6      42.4
 9 O  px              0.0       0.0       0.0       0.0       0.4       0.8
16 H  s               0.0       0.0       0.0       0.0       0.3       0.1
17 H  s               0.0       0.0       0.0       0.0       0.4       0.1
18 H  s               0.0       0.0       0.0       0.0       0.3       0.1
19 H  s               0.0       0.0       0.0       0.0       2.9       7.8
19 H  py              0.0       0.0       0.0       0.0       0.7       2.2

                     12        13        14        15        16        17   
                  -1.38828  -1.30657  -1.28446  -1.22643  -1.19851  -1.13751
                   2.00000   2.00000   2.00000   2.00000   2.00000   2.00000
                  --------  --------  --------  --------  --------  --------
 0 C  s               1.4       5.6       1.7       3.1      17.6       7.2
 0 C  px              1.0       1.4       0.5       0.0       0.1       0.5
 0 C  py              0.5       0.8       0.0       0.2       0.0       0.7
 0 C  dz2             0.1       0.1       0.0       0.0       0.0       0.1
 0 C  dx2y2           0.0       0.0       0.1       0.0       0.0       0.0
 0 C  dxy             0.2       0.3       0.0       0.1       0.0       0.2
 1 C  s              10.6      13.5       2.6       0.8       0.5       1.7
 1 C  px              1.5       0.7       0.7       5.5       6.6       0.7
 1 C  py              0.6       0.1       4.9       1.1       5.2       6.2
 1 C  dz2             0.6       0.4       0.1       0.0       0.0       0.0
 1 C  dx2y2           0.0       0.1       1.1       0.7       0.3       0.6
 1 C  dxy             0.0       0.0       0.2       0.3       0.9       0.8
 1 C  f-3             0.1       0.1       0.0       0.0       0.0       0.0
 2 C  s               9.2       6.6       4.7       3.7       3.7       3.1
 2 C  px              2.3       0.2       2.4       0.3       0.6       1.2
 2 C  py              0.7       2.9       4.4       0.1       0.8       3.8
 2 C  dz2             0.5       0.2       0.1       0.0       0.0       0.0
 2 C  dx2y2           0.0       0.8       0.6       0.1       0.0       0.4
 2 C  dxy             0.0       0.0       0.8       0.2       0.1       0.6
 3 C  s               9.3       0.0      17.0       0.1       0.5       5.1
 3 C  px              0.0       3.9       0.0       2.2       5.1       2.1
 3 C  py              3.2       0.0       0.7       0.0       0.1       0.8
 3 C  dz2             0.5       0.0       0.3       0.0       0.0       0.0
 3 C  dx2y2           0.0       0.0       0.4       0.0       0.1       0.0
 3 C  dxy             0.0       1.2       0.0       0.4       0.7       0.3
 3 C  f-3             0.1       0.0       0.1       0.0       0.0       0.0
 4 C  s               9.0       6.1       3.8       0.8       5.6       0.2
 4 C  px              3.5       0.1       5.1       0.2       1.2      12.0
 4 C  py              1.9       2.4       3.8       0.2       0.0       1.3
 4 C  dz2             0.3       0.1       0.0       0.0       0.1       0.0
 4 C  dx2y2           0.0       0.5       1.1       0.2       0.0       0.4
 4 C  dxy             0.2       0.5       0.6       0.4       0.1       0.4
 4 C  f+3             0.0       0.0       0.0       0.1       0.0       0.0
 5 C  s               9.9       7.1       4.3       0.8       0.2       0.2
 5 C  px              4.1       0.6       0.6      10.9       0.4       0.5
 5 C  py              0.9       2.7       3.5       0.6       5.1       2.1
 5 C  dz2             0.3       0.0       0.0       0.1       0.0       0.0
 5 C  dx2y2           0.1       0.5       0.5       0.8       0.9       0.0
 5 C  dxy             0.1       0.0       1.4       0.2       0.0       0.4
 5 C  f+1             0.0       0.0       0.0       0.1       0.0       0.0
 5 C  f+3             0.0       0.1       0.0       0.1       0.0       0.2
 6 C  s              10.2       0.7      10.1       6.3       1.6       0.3
 6 C  px              0.1       6.8       0.0       1.6       1.1       1.6
 6 C  py              3.2       0.0       0.3       0.3       0.1       0.4
 6 C  dz2             0.5       0.0       0.2       0.0       0.0       0.0
 6 C  dx2y2           0.0       0.1       0.5       0.1       0.0       0.1
 6 C  dxy             0.0       1.4       0.1       0.2       0.1       0.5
 7 O  s               0.6       0.2       0.2       1.4       0.0       0.0
 7 O  px              1.8       4.4       3.5       1.7       1.0       0.7
 7 O  py              1.3       7.3       2.4      17.4       0.4       0.1
 7 O  dx2y2           0.1       0.3       0.3       0.4       0.1       0.1
 8 C  s               0.6       4.4       2.2      16.5       1.3       0.2
 8 C  px              0.1       0.0       0.2       0.0       0.1       0.1
 8 C  py              0.3       0.8       0.4       0.3       0.0       0.0
 9 O  s               0.8       0.7       0.5       0.0       0.7       0.0
 9 O  px              1.0       1.3       1.4       0.2       4.8       1.1
 9 O  py              1.0       2.7       0.2       0.1      10.1      21.8
 9 O  dx2y2           0.0       0.0       0.1       0.0       0.1       0.1
 9 O  dxy             0.0       0.1       0.0       0.0       0.3       0.3
10 H  s               0.2       1.0       0.4       0.6       4.5       2.7
10 H  py              0.0       0.1       0.0       0.1       0.4       0.2
11 H  s               0.2       1.0       0.3       0.7       4.5       2.5
11 H  pz              0.0       0.1       0.0       0.1       0.4       0.2
12 H  s               0.2       1.0       0.3       0.8       4.4       2.3
12 H  pz              0.0       0.0       0.0       0.0       0.2       0.1
12 H  px              0.0       0.1       0.0       0.1       0.3       0.1
13 H  s               1.0       1.0       0.7       0.9       0.7       0.8
14 H  s               1.0       0.0       2.7       0.0       0.1       1.9
14 H  py              0.1       0.0       0.3       0.0       0.0       0.2
15 H  s               1.1       0.2       1.7       1.4       0.3       0.3
15 H  py              0.1       0.0       0.2       0.1       0.0       0.0
16 H  s               0.1       0.7       0.3       3.8       0.3       0.0
16 H  pz              0.0       0.0       0.0       0.3       0.0       0.0
17 H  s               0.1       0.9       0.5       4.2       0.4       0.1
17 H  px              0.0       0.1       0.1       0.5       0.0       0.0
18 H  s               0.1       0.7       0.3       3.8       0.3       0.0
18 H  pz              0.0       0.0       0.0       0.3       0.0       0.0
19 H  s               0.4       1.0       0.2       0.0       3.3       6.1
19 H  px              0.0       0.0       0.0       0.0       0.2       0.1
19 H  py              0.1       0.1       0.0       0.0       0.2       0.3

                     18        19        20        21        22        23   
                  -1.10801  -1.06391  -1.03769  -1.01233  -0.97999  -0.97363
                   2.00000   2.00000   2.00000   2.00000   2.00000   2.00000
                  --------  --------  --------  --------  --------  --------
 0 C  s               1.6       0.2       1.5       0.1       0.0       0.1
 0 C  px              1.1       0.1       1.8       1.1       0.0       0.4
 0 C  py              0.0       0.3       1.0       0.3       0.0       0.4
 0 C  dx2y2           0.3       0.0       0.0       0.4       0.0       0.0
 0 C  dxy             0.0       0.1       0.2       0.0       0.0       0.1
 1 C  s               0.9       0.6       2.8       0.2       0.0       0.8
 1 C  px              5.7       0.1       0.0       3.2       0.0       0.1
 1 C  py              3.6       1.3       0.2       6.6       0.0       0.2
 1 C  dx2y2           0.2       0.0       0.1       0.0       0.0       0.0
 1 C  dxy             0.5       0.1       0.2       0.0       0.0       0.1
 2 C  s               3.1       0.3       0.4       0.9       0.0       1.0
 2 C  px              0.9       0.1       0.3       3.3       0.0       0.7
 2 C  py              0.2       5.7       6.5       2.2       0.0       4.0
 2 C  dx2y2           0.0       0.0       0.2       0.0       0.0       0.0
 2 C  dxy             0.1       0.2       0.1       0.1       0.0       0.0
 3 C  s               0.4       2.2       0.1       1.5       0.0       0.3
 3 C  px              4.5       3.0       7.3       0.7       0.0       4.5
 3 C  py              0.5       3.2       0.1       0.2       0.0       0.2
 3 C  dx2y2           0.0       0.3       0.0       0.3       0.0       0.4
 3 C  dxy             0.0       0.6       0.0       0.1       0.0       0.2
 4 C  s               0.3       1.0       0.4       0.2       0.0       0.1
 4 C  pz              0.0       0.0       0.0       0.0       1.5       0.0
 4 C  px              0.6       3.2       0.6       0.5       0.0       3.1
 4 C  py              7.1      10.5       4.3       1.6       0.0       0.1
 4 C  dxz             0.0       0.0       0.0       0.0       0.2       0.0
 4 C  dyz             0.0       0.0       0.0       0.0       0.1       0.0
 4 C  dx2y2           0.2       1.2       0.7       0.9       0.0       1.5
 4 C  dxy             0.0       0.1       0.4       1.1       0.0       0.4
 4 C  f+3             0.0       0.0       0.3       0.0       0.0       0.2
 5 C  s               4.4       0.3       0.3       0.4       0.0       0.1
 5 C  pz              0.0       0.0       0.0       0.0       8.9       0.0
 5 C  px              0.4       0.9       7.0       3.9       0.0       0.4
 5 C  py              0.1      15.3       0.2       3.1       0.0       0.5
 5 C  dz2             0.2       0.0       0.0       0.0       0.0       0.0
 5 C  dxz             0.0       0.0       0.0       0.0       2.7       0.0
 5 C  dyz             0.0       0.0       0.0       0.0       0.3       0.0
 5 C  dx2y2           0.8       0.1       0.1       0.6       0.0       0.5
 5 C  dxy             0.1       0.6       0.7       0.0       0.0       2.0
 5 C  f0              0.0       0.0       0.0       0.0       0.3       0.0
 5 C  f+2             0.0       0.0       0.0       0.0       0.2       0.0
 5 C  f-2             0.0       0.0       0.0       0.0       0.2       0.0
 5 C  f+3             0.0       0.0       0.0       0.1       0.0       0.2
 6 C  s               3.3       2.1       0.6       0.1       0.0       0.8
 6 C  pz              0.0       0.0       0.0       0.0       0.3       0.0
 6 C  px              7.1       0.8       3.6      10.8       0.0       0.4
 6 C  py              0.3       4.1       0.1       0.7       0.0       0.5
 6 C  dxz             0.0       0.0       0.0       0.0       0.2       0.0
 6 C  dx2y2           0.0       0.3       0.4       0.0       0.0       0.3
 6 C  dxy             0.5       0.1       0.6       0.2       0.0       0.1
 7 O  s               3.3       0.6       0.6       0.1       0.0       1.1
 7 O  pz              0.0       0.0       0.0       0.0      63.6       0.0
[...]
 7 O  f+3             1.9       0.0       1.1       8.8       0.1       1.2
 7 O  f-3             0.0       0.0       0.1       0.0       0.4       8.1
 8 C  s               0.3       0.0       0.1       0.3       0.8       1.0
 8 C  pz              0.0       0.2       0.0       0.0       0.0       0.0
 8 C  px              0.1       0.0       0.0       0.3       0.0       0.0
 8 C  py              0.2       0.0       0.2       0.1       0.7       1.3
 8 C  dz2             0.0       0.0       0.0       0.0       0.1       0.2
 8 C  dyz             0.0       0.7       0.0       0.0       0.0       0.0
 8 C  dx2y2           0.1       0.0       0.1       0.0       0.2       0.6
 8 C  dxy             0.0       0.0       0.0       0.7       0.0       0.0
 8 C  f0              0.0       0.2       0.0       0.0       0.0       0.0
 8 C  f-1             0.0       0.0       0.0       0.2       0.0       0.1
 8 C  f+2             0.0       0.3       0.0       0.0       0.0       0.0
 8 C  f+3             0.0       0.0       0.1       0.3       0.0       0.0
 9 O  s               1.9       0.0       0.8       0.2       2.1       0.6
 9 O  pz              0.0       0.1       0.0       0.0       0.0       0.0
 9 O  px              1.5       0.0       0.6       0.0       0.0       0.0
 9 O  py              1.7       0.0       2.6       0.1       0.6       0.1
 9 O  dz2            29.5       0.0       5.5       0.0       4.7       1.0
 9 O  dxz             0.0       3.0       0.0       0.0       0.0       0.0
 9 O  dyz             0.0       2.5       0.0       0.0       0.0       0.0
 9 O  dx2y2           6.5       0.0       1.5       1.8      36.7       5.8
 9 O  dxy             2.3       0.0      68.2       0.1       0.1       1.6
 9 O  f0              0.0       0.4       0.0       0.0       0.0       0.0
 9 O  f+1             4.7       0.0       0.5       0.0       0.1       0.2
 9 O  f-1             1.6       0.0       4.3       0.4       1.9       0.1
 9 O  f+2             0.0       0.2       0.0       0.0       0.0       0.0
 9 O  f-2             0.0       0.9       0.0       0.0       0.0       0.0
 9 O  f+3             0.1       0.0       0.0       1.7      13.8       5.2
 9 O  f-3             5.3       0.0       1.8       0.4       3.2       1.2
19 H  s               1.9       0.0       0.7       0.4       4.7       0.8
19 H  py              0.2       0.0       0.0       0.0       0.3       0.1

                    360       361       362       363       364       365   
                  20.54735  20.76165  20.83074  21.12233  21.19760  21.25682
                   0.00000   0.00000   0.00000   0.00000   0.00000   0.00000
                  --------  --------  --------  --------  --------  --------
 0 C  s               0.6       1.6      91.1       3.0       0.4       1.1
 1 C  s              13.2       1.0       0.4       8.4       6.8       0.2
 1 C  px              0.0       0.0       0.2       0.2       0.1       0.0
 1 C  py              0.0       0.0       0.1       0.2       0.4       0.0
 1 C  dx2y2           0.0       0.0       0.0       0.1       0.2       0.0
 1 C  dxy             0.0       0.0       0.2       0.0       0.0       0.0
 2 C  s              17.4       0.5       2.5      54.0       8.4       0.2
 2 C  py              0.0       0.0       0.0       0.1       0.3       0.0
 3 C  s              22.5       0.2       0.6      20.1      42.9       7.2
 3 C  px              0.0       0.0       0.0       0.3       0.0       0.2
 3 C  dxy             0.0       0.0       0.0       0.1       0.0       0.1
 4 C  s              11.2       0.1       0.8       5.0       0.0      38.8
 4 C  px              0.2       0.0       0.0       0.0       0.2       0.0
 4 C  py              0.0       0.0       0.0       0.0       0.4       0.1
 4 C  dx2y2           0.0       0.0       0.0       0.0       0.2       0.1
 5 C  s               9.9       0.1       0.1       0.4       3.3      29.7
 5 C  px              0.2       0.0       0.0       0.0       0.1       0.0
 5 C  py              0.0       0.0       0.0       0.0       0.3       0.3
 5 C  dx2y2           0.0       0.0       0.0       0.0       0.1       0.2
 6 C  s              20.1       3.1       0.5       6.8      34.7      20.0
 6 C  px              0.0       0.0       0.0       0.2       0.0       0.2
 7 O  s               0.2       0.1       0.0       0.0       0.0       0.2
 7 O  px              0.1       0.0       0.0       0.0       0.0       0.1
 7 O  py              0.0       0.2       0.0       0.0       0.0       0.0
 7 O  dx2y2           0.0       0.1       0.0       0.0       0.0       0.0
 8 C  s               3.0      91.4       2.2       0.0       0.5       0.6
 9 O  s               0.2       0.0       0.0       0.0       0.0       0.1
10 H  s               0.0       0.0       0.2       0.0       0.0       0.0
11 H  s               0.0       0.0       0.2       0.0       0.0       0.0
12 H  s               0.0       0.0       0.2       0.0       0.0       0.0
13 H  s               0.1       0.0       0.0       0.1       0.0       0.0
15 H  s               0.1       0.0       0.0       0.0       0.1       0.0
16 H  s               0.0       0.2       0.0       0.0       0.0       0.0
17 H  s               0.0       0.2       0.0       0.0       0.0       0.0
17 H  px              0.0       0.1       0.0       0.0       0.0       0.0
18 H  s               0.0       0.2       0.0       0.0       0.0       0.0

                    366       367       368       369   
                  21.40289  21.81452  41.54787  41.91659
                   0.00000   0.00000   0.00000   0.00000
                  --------  --------  --------  --------
 0 C  s               0.2       0.1       0.0       0.0
 1 C  s              49.3      19.0       0.0       0.0
 2 C  s               7.6       7.1       0.0       0.0
 3 C  s               0.2       4.2       0.0       0.0
 4 C  s              10.0      31.5       0.0       0.0
 5 C  s              25.1      29.2       0.0       0.0
 6 C  s               6.0       6.8       0.0       0.0
 6 C  px              0.2       0.0       0.0       0.0
 7 O  s               0.0       0.1      12.6      87.0
 7 O  px              0.1       0.1       0.0       0.0
 8 C  s               0.1       0.1       0.0       0.1
 9 O  s               0.0       0.1      87.1      12.6


                      *****************************
                      * MAYER POPULATION ANALYSIS *
                      *****************************

  NA   - Mulliken gross atomic population
  ZA   - Total nuclear charge
  QA   - Mulliken gross atomic charge
  VA   - Mayer's total valence
  BVA  - Mayer's bonded valence
  FA   - Mayer's free valence

  ATOM       NA         ZA         QA         VA         BVA        FA
  0 C      6.3962     6.0000    -0.3962     3.8645     3.8645    -0.0000
  1 C      5.8814     6.0000     0.1186     3.6997     3.6997    -0.0000
  2 C      6.2865     6.0000    -0.2865     3.8896     3.8896     0.0000
  3 C      6.2010     6.0000    -0.2010     3.8259     3.8259    -0.0000
  4 C      5.8492     6.0000     0.1508     3.9932     3.9932     0.0000
  5 C      5.7443     6.0000     0.2557     3.8892     3.8892     0.0000
  6 C      6.3616     6.0000    -0.3616     3.8801     3.8801    -0.0000
  7 O      8.3158     8.0000    -0.3158     2.0515     2.0515     0.0000
  8 C      6.2338     6.0000    -0.2338     3.8526     3.8526     0.0000
  9 O      8.4779     8.0000    -0.4779     2.0091     2.0091     0.0000
 10 H      0.8600     1.0000     0.1400     0.9696     0.9696     0.0000
 11 H      0.8605     1.0000     0.1395     0.9613     0.9613     0.0000
 12 H      0.8598     1.0000     0.1402     0.9652     0.9652    -0.0000
 13 H      0.8422     1.0000     0.1578     0.9642     0.9642     0.0000
 14 H      0.8336     1.0000     0.1664     0.9666     0.9666    -0.0000
 15 H      0.8239     1.0000     0.1761     0.9706     0.9706     0.0000
 16 H      0.8546     1.0000     0.1454     0.9600     0.9600    -0.0000
 17 H      0.8417     1.0000     0.1583     0.9652     0.9652     0.0000
 18 H      0.8548     1.0000     0.1452     0.9601     0.9601    -0.0000
 19 H      0.6212     1.0000     0.3788     0.8698     0.8698    -0.0000

  Mayer bond orders larger than 0.100000
B(  0-C ,  1-C ) :   0.9201 B(  0-C , 10-H ) :   0.9905 B(  0-C , 11-H ) :   0.9604 
B(  0-C , 12-H ) :   0.9825 B(  1-C ,  2-C ) :   1.4073 B(  1-C ,  6-C ) :   1.3593 
B(  2-C ,  3-C ) :   1.3628 B(  2-C , 13-H ) :   0.9769 B(  3-C ,  4-C ) :   1.4314 
B(  3-C , 14-H ) :   0.9731 B(  4-C ,  5-C ) :   1.3228 B(  4-C ,  9-O ) :   1.1172 
B(  5-C ,  6-C ) :   1.4024 B(  5-C ,  7-O ) :   1.1402 B(  6-C , 15-H ) :   0.9522 
B(  7-O ,  8-C ) :   0.9178 B(  8-C , 16-H ) :   0.9710 B(  8-C , 17-H ) :   0.9696 
B(  8-C , 18-H ) :   0.9709 B(  9-O , 19-H ) :   0.8474 

-------
TIMINGS
-------

Total SCF time: 0 days 0 hours 4 min 34 sec 

Total time                  ....     274.157 sec
Sum of individual times     ....     269.616 sec  ( 98.3%)

SCF preparation             ....       0.392 sec  (  0.1%)
Fock matrix formation       ....     267.122 sec  ( 97.4%)
  Startup                   ....       0.073 sec  (  0.0% of F)
  Split-RI-J                ....      10.970 sec  (  4.1% of F)
  Chain of spheres X        ....     222.375 sec  ( 83.2% of F)
  XC integration            ....      25.460 sec  (  9.5% of F)
    XC Preparation          ....       0.000 sec  (  0.0% of XC)
    Basis function eval.    ....       5.713 sec  ( 22.4% of XC)
    Density eval.           ....       5.560 sec  ( 21.8% of XC)
    XC-Functional eval.     ....       5.185 sec  ( 20.4% of XC)
    XC-Potential eval.      ....       8.063 sec  ( 31.7% of XC)
  CPCM terms                ....      11.470 sec  (  4.3% of F)
Diagonalization             ....       0.000 sec  (  0.0%)
Density matrix formation    ....       0.255 sec  (  0.1%)
Total Energy calculation    ....       0.113 sec  (  0.0%)
Population analysis         ....       0.264 sec  (  0.1%)
Orbital Transformation      ....       0.141 sec  (  0.1%)
Orbital Orthonormalization  ....       0.000 sec  (  0.0%)
DIIS solution               ....       0.596 sec  (  0.2%)
  MO trafo                  ....       0.000 sec  (  0.0 % of DIIS)
  Orb grad                  ....       0.000 sec  (  0.0 % of DIIS)
  Energy W gradient         ....       0.000 sec  (  0.0 % of DIIS)
  DIIS error                ....       0.027 sec  (  4.5 % of DIIS)
  DIIS work                 ....       0.483 sec  ( 81.0 % of DIIS)
  Form Q                    ....       0.000 sec  (  0.0 % of DIIS)
  Form QpQm                 ....       0.000 sec  (  0.0 % of DIIS)
  Exp/Cayley                ....       0.000 sec  (  0.0 % of DIIS)
  Orb update                ....       0.000 sec  (  0.0 % of DIIS)
  Wake-sleep                ....       0.015 sec  (  2.5 % of DIIS)
SOSCF solution              ....       0.446 sec  (  0.2%)
  MO trafo                  ....       0.139 sec  ( 31.1 % of SOSCF)
  Orb grad                  ....       0.004 sec  (  0.8 % of SOSCF)
  Rot update                ....       0.103 sec  ( 23.1 % of SOSCF)
  Step                      ....       0.200 sec  ( 44.8 % of SOSCF)
Grid generation             ....       0.287 sec  (  0.1%)
Finished LeanSCF after 274.3 sec

Maximum memory used throughout the entire LEANSCF-calculation: 53.9 MB
------------------   -----------------
gCP correction             0.012288368
------------------   -----------------

-------------------------   --------------------
FINAL SINGLE POINT ENERGY      -461.341957684151
-------------------------   --------------------


------------------------------------------------------------------------------
                              ORCA PROPERTY CALCULATIONS
------------------------------------------------------------------------------

GBWName                                 ... sp_solv.gbw
Number of atoms                         ...     20
Number of basis functions               ...    370
Max core memory                         ...   1024 MB

Electric properties:
Dipole moment                           ... YES
Quadrupole moment                       ...  NO
Static polarizability (Dipole/Dipole)   ...  NO
Static polarizability (Dipole/Quad.)    ...  NO
Static polarizability (Quad./Quad.)     ...  NO
Static polarizability (Velocity)        ...  NO

Atomic electric properties:
Dipole moment                           ...  NO
Quadrupole moment                       ...  NO
Static polarizability                   ...  NO

Choice of electric origin               ... Center of mass
Position of electric origin             ...     0.008762    -0.010642    -0.000926

General magnetic properties:
Magnetizability                         ...  NO

EPR properties:
g-Tensor (aka g-matrix)                 ...  NO
Zero-Field splitting spin-orbit         ...  NO
Zero-field splitting spin-spin          ...  NO
Hyperfine couplings                     ...  NO (   0 nuclei)
Quadrupole couplings                    ...  NO (   0 nuclei)
Contact density                         ...  NO (   0 nuclei)

NMR properties:
Chemical shifts                         ...  NO (   0 nuclei)
Spin-rotation constants                 ...  NO (   0 nuclei)
Spin-spin couplings                     ...  NO (   0 nuclei,    0 pairs)

Choice of magnetic origin               ... GIAO
Position of magnetic origin             ...     0.000000     0.000000     0.000000

Properties with geometric perturbations:
SCF Hessian                             ...  NO
IR spectrum                             ...  NO
VCD spectrum                            ...  NO
X-ray spectroscopy properties:
SCF XES/XAS/RIXS spectra                ...  NO


-------------
DIPOLE MOMENT
-------------

Method             : SCF
Type of density    : Electron Density
Multiplicity       :   1
Irrep              :   0
Energy             :  -461.3542460522513124 Eh
Relativity type    : 
Basis              : AO
                                X                 Y                 Z
Electronic contribution:      4.689828897      -6.097281602       0.020816233
Nuclear contribution   :     -5.495492435       6.358628033      -0.030490734
                        -----------------------------------------
Total Dipole Moment    :     -0.805663538       0.261346431      -0.009674500
                        -----------------------------------------
Magnitude (a.u.)       :      0.847047395
Magnitude (Debye)      :      2.153023375



--------------------
Rotational spectrum 
--------------------
 
Rotational constants in cm-1:             0.061640             0.039291             0.024216 
Rotational constants in MHz :          1847.908562          1177.924598           725.978518 

Dipole components along the rotational axes: 
x,y,z [a.u.] :    -0.811010    -0.244236    -0.010087 
x,y,z [Debye]:    -2.061422    -0.620798    -0.025639 

 

Dipole moment calculation done in   0.0 sec 

Maximum memory used throughout the entire PROP-calculation: 33.9 MB

--------------------------------
SUGGESTED CITATIONS FOR THIS RUN
--------------------------------

Below you find a list of papers that are relevant to this ORCA run
We neither can nor want to force you to cite these papers, but we appreciate if you do
You receive ORCA, which is the product of decades of hard work by many enthusiastic individuals, for free
The only thing we kindly ask in return is that you cite our papers,
We deeply appreciate it, if you show your appreciation for ORCA by not just citing the generic ORCA reference.

Please note that relegating all ORCA citations to the supporting information does *not* help us.
SI sections are not indexed - citations you put there will not count into any citation statistics
But we need these citations in order to attract the funding resources that allow us to do what we are doing

Therefore, if you are a happy ORCA user, please consider citing a few of the papers listed below in the main body of your paper

In addition to the list printed below, the program has created the file sp_solv.bibtex that contains the list in bibtex format
You can import this file easily into all common literature databanks and citation aid programs


List of essential papers. We consider these as the minimum necessary citations

  1. Neese,F.
     Software update: the ORCA program system, version 5.0
     WIRES Comput. Molec. Sci., 2022 12(1)e1606
     doi.org/10.1002/wcms.1606

List of papers to cite with high priority. The work reported in these papers was absolutely
necessary for this run to complete.
Our perspective: the developers of density functionals and basis sets usually get cited in chemistry papers
Good! But without the algorithms to do something with them, the functionals or basis sets would not do anything.
Hence, in our opinion, the algorithm design and method developments papers are equally worthy of getting cited

  1. Neese,F.
     An improvement of the resolution of the identity approximation for the formation of the Coulomb matrix
     J. Comp. Chem., 2003 24(14)1740-1747
     doi.org/10.1002/jcc.10318
  2. Neese,F.; Wennmohs,F.; Hansen,A.; Becker,U.
     Efficient, approximate and parallel Hartree-Fock and hybrid DFT calculations. A 'chain-of-spheres' algorithm for the Hartree-Fock exchange
     Chem. Phys., 2009 356(1-3)98-109
     doi.org/10.1016/j.chemphys.2008.10.036
  3. Garcia-Rates,M.; Neese,F.
     Effect of the Solute Cavity on the Solvation Energy and its Derivatives within the Framework of the Gaussian Charge Scheme
     J. Comput. Chem., 2020 41 922-939
     doi.org/10.1002/jcc.26139
  4. Helmich-Paris,B.; de Souza,B.; Neese,F.; Izsák,R.
     An improved chain of spheres for exchange algorithm
     J. Chem. Phys., 2021 155 104109
     doi.org/doi: 10.1063/5.0058766.
  5. Neese,F.
     The SHARK Integral Generation and Digestion System
     J. Comp. Chem., 2022  1-16
     doi.org/10.1002/jcc.26942

List of suggested additional citations. These are papers that are important in the 'surrounding' of 
of this run, or papers that preceded the highly important papers. If you like your results we are grateful for a citation.

  1. Izsak,R.; Neese,F.
     An overlap fitted chain of spheres exchange method
     J. Chem. Phys., 2011 135 144105
     doi.org/10.1063/1.3646921
  2. Izsak,R.; Hansen,A.; Neese,F.
     The resolution of identity and chain of spheres approximations for the LPNO-CCSD singles Fock term
     Molec. Phys., 2012 110 2413-2417
     doi.org/10.1080/00268976.2012.687466
  3. Neese,F.
     The ORCA program system
     WIRES Comput. Molec. Sci., 2012 2(1)73-78
     doi.org/10.1002/wcms.81
  4. Izsak,R.; Neese,F.; Klopper,W.
     Robust fitting techniques in the chain of spheres approximation to the Fock exchange: The role of the complementary space
     J. Chem. Phys., 2013 139 
     doi.org/10.1063/1.4819264
  5. Neese,F.
     Software update: the ORCA program system, version 4.0
     WIRES Comput. Molec. Sci., 2018 8(1)1-6
     doi.org/10.1002/wcms.1327
  6. Neese,F.; Wennmohs,F.; Becker,U.; Riplinger,C.
     The ORCA quantum chemistry program package
     J. Chem. Phys., 2020 152 Art. No. L224108
     doi.org/10.1063/5.0004608

List of optional additional citations

  1. Neese,F.
     Approximate second-order SCF convergence for spin unrestricted wavefunctions
     Chem. Phys. Lett., 2000 325(1-3)93-98
     doi.org/10.1016/s0009-2614(00)00662-x

Timings for individual modules:

Sum of individual times          ...      278.136 sec (=   4.636 min)
Startup calculation              ...        3.305 sec (=   0.055 min)   1.2 %
SCF iterations                   ...      274.709 sec (=   4.578 min)  98.8 %
Property calculations            ...        0.122 sec (=   0.002 min)   0.0 %
                             ****ORCA TERMINATED NORMALLY****
TOTAL RUN TIME: 0 days 0 hours 4 minutes 38 seconds 812 msec
