      -----------------------------------------------------------      
     |                   =====================                   |     
     |                           x T B                           |     
     |                   =====================                   |     
     |                         S. Grimme                         |     
     |          Mulliken Center for Theoretical Chemistry        |     
     |                    University of Bonn                     |     
      -----------------------------------------------------------      

   * xtb version 6.7.1 (edcfbbe) compiled by 'albert@albert-system' on 2024-07-22

   xtb is free software: you can redistribute it and/or modify it under
   the terms of the GNU Lesser General Public License as published by
   the Free Software Foundation, either version 3 of the License, or
   (at your option) any later version.
   
   xtb is distributed in the hope that it will be useful,
   but WITHOUT ANY WARRANTY; without even the implied warranty of
   MERCHANTABILITY or FITNESS FOR A PARTICULAR PURPOSE.  See the
   GNU Lesser General Public License for more details.
   
   Cite this work as:
   * C. Bannwarth, E. Caldeweyher, S. Ehlert, A. Hansen, P. Pracht,
     J. Seibert, S. Spicher, S. Grimme, WIREs Comput. Mol. Sci., 2020, 11,
     e01493. DOI: 10.1002/wcms.1493
   
   for GFN2-xTB:
   * C. Bannwarth, S. Ehlert and S. Grimme., J. Chem. Theory Comput., 2019,
     15, 1652-1671. DOI: 10.1021/acs.jctc.8b01176
   for GFN1-xTB:
   * S. Grimme, C. Bannwarth, P. Shushkov, J. Chem. Theory Comput., 2017,
     13, 1989-2009. DOI: 10.1021/acs.jctc.7b00118
   for GFN0-xTB:
   * P. Pracht, E. Caldeweyher, S. Ehlert, S. Grimme, ChemRxiv, 2019, preprint.
     DOI: 10.26434/chemrxiv.8326202.v1
   for GFN-FF:
   * S. Spicher and S. Grimme, Angew. Chem. Int. Ed., 2020, 59, 15665-15673.
     DOI: 10.1002/anie.202004239
   
   for ALPB and GBSA implicit solvation:
   * S. Ehlert, M. Stahn, S. Spicher, S. Grimme, J. Chem. Theory Comput.,
     2021, 17, 4250-4261. DOI: 10.1021/acs.jctc.1c00471
   
   for ddCOSMO and CPCM-X implicit solvation:
   * M. Stahn, S. Ehlert, S. Grimme, J. Phys. Chem. A,
     2023, XX, XXXX-XXXX. DOI: 10.1021/acs.jpca.3c04382
   
   for DFT-D4:
   * E. Caldeweyher, C. Bannwarth and S. Grimme, J. Chem. Phys., 2017,
     147, 034112. DOI: 10.1063/1.4993215
   * E. Caldeweyher, S. Ehlert, A. Hansen, H. Neugebauer, S. Spicher,
     C. Bannwarth and S. Grimme, J. Chem. Phys., 2019, 150, 154122.
     DOI: 10.1063/1.5090222
   * E. Caldeweyher, J.-M. Mewes, S. Ehlert and S. Grimme, Phys. Chem. Chem. Phys.
     2020, 22, 8499-8512. DOI: 10.1039/D0CP00502A
   
   for sTDA-xTB:
   * S. Grimme and C. Bannwarth, J. Chem. Phys., 2016, 145, 054103.
     DOI: 10.1063/1.4959605
   
   in the mass-spec context:
   * V. Asgeirsson, C. Bauer and S. Grimme, Chem. Sci., 2017, 8, 4879.
     DOI: 10.1039/c7sc00601b
   * J. Koopman and S. Grimme, ACS Omega 2019, 4, 12, 15120-15133.
     DOI: 10.1021/acsomega.9b02011
   
   for metadynamics refer to:
   * S. Grimme, J. Chem. Theory Comput., 2019, 155, 2847-2862
     DOI: 10.1021/acs.jctc.9b00143
   
   for SPH calculations refer to:
   * S. Spicher and S. Grimme, J. Chem. Theory Comput., 2021, 17, 1701-1714
     DOI: 10.1021/acs.jctc.0c01306
   
   for ONIOM refer to:
   * C. Plett, A. Katbashev, S. Ehlert, S. Grimme, M. Bursch,
     Phys. Chem. Chem. Phys., 2023, 25, 17860-17868. DOI: 10.1039/D3CP02178E
   
   for DIPRO refer to:
   * J. Kohn, N. Gildemeister, S. Grimme, D. Fazzi, A. Hansen,
     J. Chem. Phys., 2023, just accepted.
   
   for PTB refer to:
   * S. Grimme, M. Mueller, A. Hansen, J. Chem. Phys., 2023, 158, 124111.
     DOI: 10.1063/5.0137838
   
   with help from (in alphabetical order)
   P. Atkinson, C. Bannwarth, F. Bohle, G. Brandenburg, E. Caldeweyher
   M. Checinski, S. Dohm, S. Ehlert, S. Ehrlich, I. Gerasimov, C. Hölzer
   A. Katbashev, J. Kohn, J. Koopman, C. Lavigne, S. Lehtola, F. März, M. Müller,
   F. Musil, H. Neugebauer, J. Pisarek, C. Plett, P. Pracht, F. Pultar,
   J. Seibert, P. Shushkov, S. Spicher, M. Stahn, M. Steiner, T. Strunk,
   J. Stückrath, T. Rose, and J. Unsleber
   
 * started run on 2025/04/03 at 21:39:13.754     
   ID    Z sym.   atoms
    1    6 C      1-3
    2    8 O      4
    3    1 H      5-12

           -------------------------------------------------
          |                Calculation Setup                |
           -------------------------------------------------

          program call               : /srv/scratch/z5358697/.xtb/bin/xtb xtb_rrho.coord --gfn2 --ohess vtight --chrg 0 --enso --norestart -I rrho-xcontrol-inp --parallel 1 --alpb water
          hostname                   : k148
          coordinate file            : xtb_rrho.coord
          omp threads                :                     1


           -------------------------------------------------
          |                 G F N 2 - x T B                 |
           -------------------------------------------------

        Reference                      10.1021/acs.jctc.8b01176
      * Hamiltonian:
        H0-scaling (s, p, d)           1.850000    2.230000    2.230000
        zeta-weighting                 0.500000
      * Dispersion:
        s8                             2.700000
        a1                             0.520000
        a2                             5.000000
        s9                             5.000000
      * Repulsion:
        kExp                           1.500000    1.000000
        rExp                           1.000000
      * Coulomb:
        alpha                          2.000000
        third order                    shell-resolved
        anisotropic                    true
        a3                             3.000000
        a5                             4.000000
        cn-shift                       1.200000
        cn-exp                         4.000000
        max-rad                        5.000000

      * Solvation model:               ALPB
        Solvent                        water
        Parameter file                 internal GFN2-xTB/ALPB
        Dielectric constant                8.0200E+01
        Reference state                gsolv [1 M gas/solution]
        Free energy shift                  1.0808E-03 Eh       6.7819E-01 kcal/mol
        Temperature                        2.9815E+02 K
        Density                            1.0000E+00 kg/L
        Solvent mass                       1.8000E+01 g/mol
        Interaction kernel             P16
        Born radius scaling (c1)           1.4744E+00
        Born radii integrator          GBOBC
        Born offset                        0.0000E+00 a0       0.0000E+00 AA
        H-bond correction              true
        Ion screening                  false
        Surface tension                    1.0000E-05 Eh       1.5569E+01 dyn/cm
        Grid points                               974 per atom

          ...................................................
          :                      SETUP                      :
          :.................................................:
          :  # basis functions                  24          :
          :  # atomic orbitals                  24          :
          :  # shells                           16          :
          :  # electrons                        26          :
          :  max. iterations                   250          :
          :  Hamiltonian                  GFN2-xTB          :
          :  restarted?                      false          :
          :  GBSA solvation                   true          :
          :  PC potential                    false          :
          :  electronic temp.          300.0000000     K    :
          :  accuracy                    1.0000000          :
          :  -> integral cutoff          0.2500000E+02      :
          :  -> integral neglect         0.1000000E-07      :
          :  -> SCF convergence          0.1000000E-05 Eh   :
          :  -> wf. convergence          0.1000000E-03 e    :
          :  Broyden damping             0.4000000          :
          :  net charge                          0          :
          :  unpaired electrons                  0          :
          ...................................................

 iter      E             dE          RMSdq      gap      omega  full diag
   1    -14.7095280 -0.147095E+02  0.344E+00   12.10       0.0  T
   2    -14.7313179 -0.217899E-01  0.180E+00   11.77       1.0  T
   3    -14.7319174 -0.599530E-03  0.637E-01   11.79       1.0  T
   4    -14.7321648 -0.247392E-03  0.153E-01   11.74       1.0  T
   5    -14.7322058 -0.409931E-04  0.733E-02   11.76       1.0  T
   6    -14.7322079 -0.212670E-05  0.132E-02   11.77       2.2  T
   7    -14.7322081 -0.209121E-06  0.364E-03   11.77       7.9  T
   8    -14.7322081 -0.207002E-07  0.172E-03   11.77      16.7  T
   9    -14.7322081 -0.102627E-07  0.247E-04   11.77     117.0  T
  10    -14.7322081  0.113653E-09  0.194E-04   11.77     149.1  T

   *** convergence criteria satisfied after 10 iterations ***

         #    Occupation            Energy/Eh            Energy/eV
      -------------------------------------------------------------
         1        2.0000           -0.6814010             -18.5419
       ...           ...                  ...                  ...
         7        2.0000           -0.5021899             -13.6653
         8        2.0000           -0.4880509             -13.2805
         9        2.0000           -0.4655227             -12.6675
        10        2.0000           -0.4548463             -12.3770
        11        2.0000           -0.4509240             -12.2703
        12        2.0000           -0.4316340             -11.7454
        13        2.0000           -0.4113045             -11.1922 (HOMO)
        14                          0.0211131               0.5745 (LUMO)
        15                          0.0982391               2.6732
        16                          0.1275305               3.4703
        17                          0.1395355               3.7970
        18                          0.1519311               4.1343
       ...                                ...                  ...
        24                          0.2745705               7.4714
      -------------------------------------------------------------
                  HL-Gap            0.4324176 Eh           11.7667 eV
             Fermi-level           -0.1950957 Eh           -5.3088 eV

 SCC (total)                   0 d,  0 h,  0 min,  0.006 sec
 SCC setup                      ...        0 min,  0.001 sec ( 11.058%)
 Dispersion                     ...        0 min,  0.000 sec (  0.758%)
 classical contributions        ...        0 min,  0.000 sec (  0.228%)
 integral evaluation            ...        0 min,  0.001 sec (  9.577%)
 iterations                     ...        0 min,  0.003 sec ( 51.971%)
 molecular gradient             ...        0 min,  0.001 sec ( 24.034%)
 printout                       ...        0 min,  0.000 sec (  2.059%)

         :::::::::::::::::::::::::::::::::::::::::::::::::::::
         ::                     SUMMARY                     ::
         :::::::::::::::::::::::::::::::::::::::::::::::::::::
         :: total energy             -14.569183529883 Eh    ::
         :: total w/o Gsasa/hb       -14.566096095360 Eh    ::
         :: gradient norm              0.028324611206 Eh/a0 ::
         :: HOMO-LUMO gap             11.766681475219 eV    ::
         ::.................................................::
         :: SCC energy               -14.732204687563 Eh    ::
         :: -> isotropic ES            0.037364422049 Eh    ::
         :: -> anisotropic ES          0.002289445369 Eh    ::
         :: -> anisotropic XC          0.005133566519 Eh    ::
         :: -> dispersion             -0.004901301440 Eh    ::
         :: -> Gsolv                  -0.007977181654 Eh    ::
         ::    -> Gelec               -0.004889747132 Eh    ::
         ::    -> Gsasa                0.000794076107 Eh    ::
         ::    -> Ghb                 -0.004962270328 Eh    ::
         ::    -> Gshift               0.001080759698 Eh    ::
         :: repulsion energy           0.163021157680 Eh    ::
         :: add. restraining           0.000000000000 Eh    ::
         :: total charge               0.000000000000 e     ::
         :::::::::::::::::::::::::::::::::::::::::::::::::::::

      ----------------------------------------------------------- 
     |                   =====================                   |
     |                        A N C O P T                        |
     |                   =====================                   |
     |               Approximate Normal Coordinate               |
     |                Rational Function Optimizer                |
      ----------------------------------------------------------- 
      ----------------------------------------------------------- 
     |                   =====================                   |
     |                        A N C O P T                        |
     |                   =====================                   |
     |               Approximate Normal Coordinate               |
     |                Rational Function Optimizer                |
      ----------------------------------------------------------- 

          ...................................................
          :                      SETUP                      :
          :.................................................:
          :   optimization level         verytight          :
          :   max. optcycles                   240          :
          :   ANC micro-cycles                  20          :
          :   degrees of freedom                30          :
          :.................................................:
          :   RF solver                   davidson          :
          :   write xtbopt.log                true          :
          :   linear?                        false          :
          :   energy convergence         0.1000000E-06 Eh   :
          :   grad. convergence          0.2000000E-03 Eh/α :
          :   maxmium RF displ.          1.0000000          :
          :   Hlow (freq-cutoff)         0.1000000E-01      :
          :   Hmax (freq-cutoff)         5.0000000          :
          :   S6 in model hess.         20.0000000          :
          ...................................................

generating ANC from exact Hessian ...
Using Lindh-Hessian (1995)
 Shifting diagonal of input Hessian by   3.271804423539190E-004
 Lowest  eigenvalues of input Hessian
    0.000000    0.000000    0.000000    0.000000    0.000000    0.000000
    0.010000    0.011216    0.013231    0.014335    0.023187    0.052064
    0.054844    0.057239    0.061288    0.064302    0.078279    0.083634
 Highest eigenvalues
    1.095676    1.104016    1.146325    1.264339    1.267598    1.383238
 

........................................................................
.............................. CYCLE    1 ..............................
........................................................................

 iter      E             dE          RMSdq      gap      omega  full diag
   1    -14.7322081 -0.147322E+02  0.248E-05   11.77       0.0  T
   2    -14.7322081 -0.243361E-11  0.116E-05   11.77    2498.0  T
   3    -14.7322081 -0.150990E-12  0.670E-06   11.77    4306.8  T
     SCC iter.                  ...        0 min,  0.001 sec
     gradient                   ...        0 min,  0.001 sec
 * total energy  :   -14.5691835 Eh     change       -0.2319176E-09 Eh
   gradient norm :     0.0283233 Eh/α   predicted     0.0000000E+00 (-100.00%)
   displ. norm   :     0.0805986 α      lambda       -0.9974206E-03
   maximum displ.:     0.0523742 α      in ANC's #2, #12, #20, ...

........................................................................
.............................. CYCLE    2 ..............................
........................................................................

 iter      E             dE          RMSdq      gap      omega  full diag
   1    -14.7377640 -0.147378E+02  0.912E-02   12.13       0.0  T
   2    -14.7377752 -0.111719E-04  0.518E-02   12.13       1.0  T
   3    -14.7377755 -0.373990E-06  0.193E-02   12.14       1.5  T
   4    -14.7377759 -0.353682E-06  0.324E-03   12.14       8.9  T
   5    -14.7377759 -0.205952E-07  0.182E-03   12.14      15.8  T
   6    -14.7377759 -0.372731E-08  0.611E-04   12.14      47.3  T
   7    -14.7377759 -0.541126E-09  0.117E-04   12.14     246.6  T
     SCC iter.                  ...        0 min,  0.001 sec
     gradient                   ...        0 min,  0.002 sec
 * total energy  :   -14.5698567 Eh     change       -0.6731465E-03 Eh
   gradient norm :     0.0141891 Eh/α   predicted    -0.5019505E-03 ( -25.43%)
   displ. norm   :     0.0675349 α      lambda       -0.3467229E-03
   maximum displ.:     0.0520583 α      in ANC's #2, #5, #30, ...

........................................................................
.............................. CYCLE    3 ..............................
........................................................................

 iter      E             dE          RMSdq      gap      omega  full diag
   1    -14.7402141 -0.147402E+02  0.513E-02   12.45       0.0  T
   2    -14.7402205 -0.639589E-05  0.294E-02   12.45       1.0  T
   3    -14.7402208 -0.320247E-06  0.144E-02   12.45       2.0  T
   4    -14.7402209 -0.120095E-06  0.251E-03   12.45      11.5  T
   5    -14.7402209 -0.142357E-07  0.126E-03   12.45      22.9  T
   6    -14.7402209 -0.210246E-08  0.537E-04   12.45      53.8  T
   7    -14.7402209 -0.350674E-09  0.733E-05   12.45     393.9  T
     SCC iter.                  ...        0 min,  0.001 sec
     gradient                   ...        0 min,  0.002 sec
 * total energy  :   -14.5700498 Eh     change       -0.1930908E-03 Eh
   gradient norm :     0.0035432 Eh/α   predicted    -0.1741510E-03 (  -9.81%)
   displ. norm   :     0.0351347 α      lambda       -0.3551123E-04
   maximum displ.:     0.0320242 α      in ANC's #2, #5, #12, ...

........................................................................
.............................. CYCLE    4 ..............................
........................................................................

 iter      E             dE          RMSdq      gap      omega  full diag
   1    -14.7395912 -0.147396E+02  0.213E-02   12.51       0.0  T
   2    -14.7395914 -0.239793E-06  0.129E-02   12.51       2.2  T
   3    -14.7395914 -0.229311E-08  0.316E-03   12.51       9.1  T
   4    -14.7395914 -0.300663E-07  0.719E-04   12.51      40.1  T
   5    -14.7395914 -0.488622E-09  0.273E-04   12.51     105.6  T
     SCC iter.                  ...        0 min,  0.001 sec
     gradient                   ...        0 min,  0.002 sec
 * total energy  :   -14.5700727 Eh     change       -0.2291281E-04 Eh
   gradient norm :     0.0010572 Eh/α   predicted    -0.1777581E-04 ( -22.42%)
   displ. norm   :     0.0429293 α      lambda       -0.9561316E-05
   maximum displ.:     0.0359210 α      in ANC's #2, #3, #5, ...

........................................................................
.............................. CYCLE    5 ..............................
........................................................................

 iter      E             dE          RMSdq      gap      omega  full diag
   1    -14.7388549 -0.147389E+02  0.220E-02   12.53       0.0  T
   2    -14.7388549 -0.501383E-07  0.130E-02   12.52       2.2  T
   3    -14.7388549 -0.868909E-08  0.113E-03   12.53      25.5  T
   4    -14.7388549 -0.459324E-08  0.558E-04   12.53      51.7  T
   5    -14.7388549 -0.173562E-09  0.233E-04   12.53     124.0  T
     SCC iter.                  ...        0 min,  0.001 sec
     gradient                   ...        0 min,  0.001 sec
 * total energy  :   -14.5700786 Eh     change       -0.5932010E-05 Eh
   gradient norm :     0.0011144 Eh/α   predicted    -0.4785284E-05 ( -19.33%)
   displ. norm   :     0.0095769 α      lambda       -0.2121672E-05
   maximum displ.:     0.0081952 α      in ANC's #2, #3, #7, ...

........................................................................
.............................. CYCLE    6 ..............................
........................................................................

 iter      E             dE          RMSdq      gap      omega  full diag
   1    -14.7390736 -0.147391E+02  0.575E-03   12.51       0.0  T
   2    -14.7390736 -0.624572E-08  0.340E-03   12.51       8.5  T
   3    -14.7390736 -0.612683E-09  0.442E-04   12.51      65.4  T
   4    -14.7390736 -0.792591E-09  0.173E-04   12.51     167.0  T
     SCC iter.                  ...        0 min,  0.001 sec
     gradient                   ...        0 min,  0.001 sec
 * total energy  :   -14.5700809 Eh     change       -0.2249342E-05 Eh
   gradient norm :     0.0004800 Eh/α   predicted    -0.1061268E-05 ( -52.82%)
   displ. norm   :     0.0143935 α      lambda       -0.1114993E-05
   maximum displ.:     0.0122653 α      in ANC's #2, #3, #20, ...

........................................................................
.............................. CYCLE    7 ..............................
........................................................................

 iter      E             dE          RMSdq      gap      omega  full diag
   1    -14.7392843 -0.147393E+02  0.503E-03   12.51       0.0  T
   2    -14.7392843 -0.393513E-08  0.304E-03   12.51       9.5  T
   3    -14.7392843 -0.286301E-09  0.331E-04   12.51      87.3  T
   4    -14.7392843 -0.536941E-09  0.125E-04   12.51     231.1  T
     SCC iter.                  ...        0 min,  0.001 sec
     gradient                   ...        0 min,  0.001 sec
 * total energy  :   -14.5700818 Eh     change       -0.9194583E-06 Eh
   gradient norm :     0.0001604 Eh/α   predicted    -0.5581747E-06 ( -39.29%)
   displ. norm   :     0.0071994 α      lambda       -0.2414984E-06
   maximum displ.:     0.0068744 α      in ANC's #2, #5, #3, ...

........................................................................
.............................. CYCLE    8 ..............................
........................................................................

 iter      E             dE          RMSdq      gap      omega  full diag
   1    -14.7392521 -0.147393E+02  0.344E-03   12.50       0.0  T
   2    -14.7392521 -0.519959E-09  0.205E-03   12.50      14.1  T
   3    -14.7392521 -0.196978E-09  0.129E-04   12.50     223.5  T
   4    -14.7392521 -0.565112E-10  0.733E-05   12.50     393.6  T
     SCC iter.                  ...        0 min,  0.001 sec
     gradient                   ...        0 min,  0.001 sec
 * total energy  :   -14.5700820 Eh     change       -0.2005092E-06 Eh
   gradient norm :     0.0000979 Eh/α   predicted    -0.1210555E-06 ( -39.63%)
   displ. norm   :     0.0029029 α      lambda       -0.5826329E-07
   maximum displ.:     0.0026674 α      in ANC's #2, #3, #10, ...

........................................................................
.............................. CYCLE    9 ..............................
........................................................................

 iter      E             dE          RMSdq      gap      omega  full diag
   1    -14.7392289 -0.147392E+02  0.149E-03   12.51       0.0  T
   2    -14.7392289 -0.178606E-09  0.879E-04   12.51      32.8  T
   3    -14.7392289 -0.198828E-10  0.721E-05   12.51     400.1  T
     SCC iter.                  ...        0 min,  0.000 sec
     gradient                   ...        0 min,  0.001 sec
 * total energy  :   -14.5700820 Eh     change       -0.5129682E-07 Eh
   gradient norm :     0.0000385 Eh/α   predicted    -0.2822915E-07 ( -44.97%)
   displ. norm   :     0.0017812 α      lambda       -0.1200695E-07
   maximum displ.:     0.0015949 α      in ANC's #2, #5, #3, ...

   *** GEOMETRY OPTIMIZATION CONVERGED AFTER 9 ITERATIONS ***

------------------------------------------------------------------------
 total energy gain   :        -0.0008985 Eh       -0.5638 kcal/mol
 total RMSD          :         0.0660703 a0        0.0350 Å
 total power (kW/mol):        -0.2621133 (step)  -60.1117 (real)
------------------------------------------------------------------------

 ANCopt (total)                0 d,  0 h,  0 min,  0.039 sec
 optimizer setup                ...        0 min,  0.000 sec (  0.769%)
 model hessian                  ...        0 min,  0.003 sec (  6.790%)
 ANC generation                 ...        0 min,  0.000 sec (  0.514%)
 coordinate transformation      ...        0 min,  0.000 sec (  0.103%)
 single point calculation       ...        0 min,  0.030 sec ( 77.553%)
 optimization log               ...        0 min,  0.005 sec ( 11.694%)
 hessian update                 ...        0 min,  0.000 sec (  0.115%)
 rational function              ...        0 min,  0.001 sec (  1.426%)

================
 final structure:
================
$coord
       -2.38681128936220       -1.37147302567637       -0.19997763705518      C
        0.00005973222303       -0.00463177591889        0.68364777399076      C
        2.37755891036191       -1.38994994459726       -0.19646044251212      C
        0.01057404559315        2.55501172070474       -0.11379059665550      O
       -4.05341410229127       -0.31519434123749        0.37238883634384      H
       -2.38929391113257       -1.55538648105440       -2.24795564411910      H
       -2.46928005278306       -3.24547680780428        0.63121176779431      H
       -0.00099038174363        0.11736734229719        2.75150776650210      H
        4.05146387168980       -0.34667027924193        0.37843986374989      H
        2.38168474047689       -1.57380458188687       -2.24444225974449      H
        2.44422168083395       -3.26457034258054        0.63475889145444      H
        0.01204346713474        2.59687900480098       -1.94227947785274      H
$end
 
 Bond Distances (Angstroems)
 ---------------------------
C1-C2=1.5288         C1-H5=1.0872         C1-H6=1.0881         C1-H7=1.0857         C2-C1=1.5288         C2-C3=1.5288         
C2-O4=1.4187         C2-H8=1.0962         C3-C2=1.5288         C3-H9=1.0872         C3-H10=1.0881        C3-H11=1.0857        
O4-C2=1.4187         O4-H12=0.9678        H5-C1=1.0872         H6-C1=1.0881         H7-C1=1.0857         H8-C2=1.0962         
H9-C3=1.0872         H10-C3=1.0881        H11-C3=1.0857        H12-O4=0.9678        
 C  H  Rav=1.0883 sigma=0.0033  Rmin=1.0857  Rmax=1.0962     7
 C  C  Rav=1.5288 sigma=0.0000  Rmin=1.5288  Rmax=1.5288     2
 O  H  Rav=0.9678 sigma=0.0000  Rmin=0.9678  Rmax=0.9678     1
 O  C  Rav=1.4187 sigma=0.0000  Rmin=1.4187  Rmax=1.4187     1
 
 selected bond angles (degree)
 --------------------
H5-C1-C2=109.98                H6-C1-C2=110.36                H6-C1-H5=108.81                H7-C1-C2=109.96                
H7-C1-H5=108.91                H7-C1-H6=108.77                C3-C2-C1=111.09                O4-C2-C1=111.34                
O4-C2-C3=111.34                H8-C2-C1=109.44                H8-C2-C3=109.44                H8-C2-O4=103.93                
H9-C3-C2=109.98                H10-C3-C2=110.36               H10-C3-H9=108.81               H11-C3-C2=109.96               
H11-C3-H9=108.91               H11-C3-H10=108.77              H12-O4-C2=108.62               
 
 selected dihedral angles (degree)
 ---------------------------------
C3-C2-C1-H5=182.48            C3-C2-C1-H6=302.54            C3-C2-C1-H7= 62.54            O4-C2-C1-H5=307.20            
O4-C2-C1-H6= 67.26            O4-C2-C1-H7=187.26            H8-C2-C1-H5= 61.53            H8-C2-C1-H6=181.59            
H8-C2-C1-H7=301.59            H9-C3-C2-C1=177.52            H9-C3-C2-O4= 52.80            H9-C3-C2-H8=298.48            
H10-C3-C2-C1= 57.46           H10-C3-C2-O4=292.74           H10-C3-C2-H8=178.41           H11-C3-C2-C1=297.46           
H11-C3-C2-O4=172.74           H11-C3-C2-H8= 58.42           H12-O4-C2-C1=297.71           H12-O4-C2-C3= 62.29           
H12-O4-C2-H8=180.00           
           -------------------------------------------------
          |                Final Singlepoint                |
           -------------------------------------------------

          ...................................................
          :                      SETUP                      :
          :.................................................:
          :  # basis functions                  24          :
          :  # atomic orbitals                  24          :
          :  # shells                           16          :
          :  # electrons                        26          :
          :  max. iterations                   250          :
          :  Hamiltonian                  GFN2-xTB          :
          :  restarted?                      false          :
          :  GBSA solvation                   true          :
          :  PC potential                    false          :
          :  electronic temp.          300.0000000     K    :
          :  accuracy                    1.0000000          :
          :  -> integral cutoff          0.2500000E+02      :
          :  -> integral neglect         0.1000000E-07      :
          :  -> SCF convergence          0.1000000E-05 Eh   :
          :  -> wf. convergence          0.1000000E-03 e    :
          :  Broyden damping             0.4000000          :
          :  net charge                          0          :
          :  unpaired electrons                  0          :
          ...................................................

 iter      E             dE          RMSdq      gap      omega  full diag
   1    -14.7392289 -0.147392E+02  0.330E-05   12.51       0.0  T
   2    -14.7392289 -0.333955E-12  0.212E-05   12.51    1359.2  T
   3    -14.7392289 -0.142109E-12  0.322E-06   12.51    8977.2  T

   *** convergence criteria satisfied after 3 iterations ***

         #    Occupation            Energy/Eh            Energy/eV
      -------------------------------------------------------------
         1        2.0000           -0.6847404             -18.6327
       ...           ...                  ...                  ...
         7        2.0000           -0.5040004             -13.7145
         8        2.0000           -0.4871559             -13.2562
         9        2.0000           -0.4654236             -12.6648
        10        2.0000           -0.4559785             -12.4078
        11        2.0000           -0.4509334             -12.2705
        12        2.0000           -0.4304109             -11.7121
        13        2.0000           -0.4087634             -11.1230 (HOMO)
        14                          0.0508281               1.3831 (LUMO)
        15                          0.0988381               2.6895
        16                          0.1321002               3.5946
        17                          0.1329979               3.6191
        18                          0.1612945               4.3890
       ...                                ...                  ...
        24                          0.2802621               7.6263
      -------------------------------------------------------------
                  HL-Gap            0.4595914 Eh           12.5061 eV
             Fermi-level           -0.1789676 Eh           -4.8700 eV

 SCC (total)                   0 d,  0 h,  0 min,  0.003 sec
 SCC setup                      ...        0 min,  0.001 sec ( 17.926%)
 Dispersion                     ...        0 min,  0.000 sec (  0.969%)
 classical contributions        ...        0 min,  0.000 sec (  0.340%)
 integral evaluation            ...        0 min,  0.001 sec ( 16.502%)
 iterations                     ...        0 min,  0.001 sec ( 17.774%)
 molecular gradient             ...        0 min,  0.001 sec ( 42.881%)
 printout                       ...        0 min,  0.000 sec (  3.095%)

         :::::::::::::::::::::::::::::::::::::::::::::::::::::
         ::                     SUMMARY                     ::
         :::::::::::::::::::::::::::::::::::::::::::::::::::::
         :: total energy             -14.570082032928 Eh    ::
         :: total w/o Gsasa/hb       -14.566797103518 Eh    ::
         :: gradient norm              0.000038596678 Eh/a0 ::
         :: HOMO-LUMO gap             12.506118803837 eV    ::
         ::.................................................::
         :: SCC energy               -14.739225495844 Eh    ::
         :: -> isotropic ES            0.036358517252 Eh    ::
         :: -> anisotropic ES          0.002087693687 Eh    ::
         :: -> anisotropic XC          0.004608007890 Eh    ::
         :: -> dispersion             -0.004916079748 Eh    ::
         :: -> Gsolv                  -0.007891172458 Eh    ::
         ::    -> Gelec               -0.004606243048 Eh    ::
         ::    -> Gsasa                0.000743315713 Eh    ::
         ::    -> Ghb                 -0.005109004821 Eh    ::
         ::    -> Gshift               0.001080759698 Eh    ::
         :: repulsion energy           0.169143462916 Eh    ::
         :: add. restraining           0.000000000000 Eh    ::
         :: total charge              -0.000000000000 e     ::
         :::::::::::::::::::::::::::::::::::::::::::::::::::::

           ------------------------------------------------- 
          |                Numerical Hessian                |
           ------------------------------------------------- 
step length          :   0.00500
SCC accuracy         :   0.30000
Hessian scale factor :   1.00000
frozen atoms in %    :   0.00000    0
RMS gradient         :   0.00004
estimated CPU  time      0.00 min
estimated wall time      0.00 min

writing file <hessian>.

 projected vibrational frequencies (cm⁻¹)
eigval :       -0.00    -0.00     0.00     0.00     0.00     0.00
eigval :      191.30   231.66   320.37   353.82   418.25   477.90
eigval :      862.06   937.60   965.20   968.11  1061.38  1133.59
eigval :     1161.76  1234.72  1305.54  1333.75  1392.73  1405.26
eigval :     1478.28  1484.92  1486.29  1495.75  2925.06  3023.01
eigval :     3026.07  3039.61  3041.31  3049.67  3053.32  3487.94
           -------------------------------------------------
          |                Property Printout                |
           -------------------------------------------------

    * Orbital Energies and Occupations

         #    Occupation            Energy/Eh            Energy/eV
      -------------------------------------------------------------
         1        2.0000           -0.6847404             -18.6327
         2        2.0000           -0.6264099             -17.0455
         3        2.0000           -0.5929892             -16.1361
         4        2.0000           -0.5866601             -15.9638
         5        2.0000           -0.5367302             -14.6052
         6        2.0000           -0.5257981             -14.3077
         7        2.0000           -0.5040004             -13.7145
         8        2.0000           -0.4871559             -13.2562
         9        2.0000           -0.4654236             -12.6648
        10        2.0000           -0.4559785             -12.4078
        11        2.0000           -0.4509335             -12.2705
        12        2.0000           -0.4304109             -11.7121
        13        2.0000           -0.4087634             -11.1230 (HOMO)
        14                          0.0508281               1.3831 (LUMO)
        15                          0.0988381               2.6895
        16                          0.1321002               3.5946
        17                          0.1329979               3.6191
        18                          0.1612945               4.3890
        19                          0.1995668               5.4305
        20                          0.2059139               5.6032
        21                          0.2322013               6.3185
        22                          0.2601188               7.0782
        23                          0.2706972               7.3660
        24                          0.2802621               7.6263
      -------------------------------------------------------------
                  HL-Gap            0.4595914 Eh           12.5061 eV
             Fermi-level           -0.1789676 Eh           -4.8700 eV

     #   Z          covCN         q      C6AA      α(0)
     1   6 C        3.752    -0.132    23.088     6.852
     2   6 C        3.722     0.118    18.758     6.185
     3   6 C        3.752    -0.132    23.088     6.852
     4   8 O        1.654    -0.524    23.417     6.533
     5   1 H        0.925     0.048     2.342     2.393
     6   1 H        0.925     0.048     2.341     2.393
     7   1 H        0.925     0.049     2.337     2.391
     8   1 H        0.924     0.033     2.541     2.493
     9   1 H        0.925     0.048     2.342     2.393
    10   1 H        0.925     0.048     2.341     2.393
    11   1 H        0.925     0.049     2.337     2.391
    12   1 H        0.805     0.346     0.598     1.215

 Mol. C6AA /au·bohr⁶  :        915.198498
 Mol. C8AA /au·bohr⁸  :      18649.627499
 Mol. α(0) /au        :         44.482383


Wiberg/Mayer (AO) data.
largest (>0.10) Wiberg bond orders for each atom

 ---------------------------------------------------------------------------
     #   Z sym  total        # sym  WBO       # sym  WBO       # sym  WBO
 ---------------------------------------------------------------------------
     1   6 C    3.994 --     2 C    1.001     5 H    0.986     7 H    0.985
                             6 H    0.985
     2   6 C    3.951 --     1 C    1.001     3 C    1.001     4 O    0.979
                             8 H    0.966
     3   6 C    3.994 --     2 C    1.001     9 H    0.986    11 H    0.985
                            10 H    0.985
     4   8 O    1.913 --     2 C    0.979    12 H    0.864
     5   1 H    0.998 --     1 C    0.986
     6   1 H    0.998 --     1 C    0.985
     7   1 H    0.998 --     1 C    0.985
     8   1 H    0.999 --     2 C    0.966
     9   1 H    0.998 --     3 C    0.986
    10   1 H    0.998 --     3 C    0.985
    11   1 H    0.998 --     3 C    0.985
    12   1 H    0.880 --     4 O    0.864
 ---------------------------------------------------------------------------

Topologies differ in total number of bonds
Writing topology from bond orders to xtbtopo.mol

molecular dipole:
                 x           y           z       tot (Debye)
 q only:       -0.002      -0.574      -0.507
   full:       -0.002      -0.673      -0.622       2.328
molecular quadrupole (traceless):
                xx          xy          yy          xz          yz          zz
 q only:        0.318      -0.008      -1.994      -0.010      -2.289       1.677
  q+dip:        0.169      -0.012      -3.370      -0.013      -2.613       3.201
   full:        0.101      -0.011      -3.031      -0.013      -2.789       2.930

           -------------------------------------------------
          |                Geometry Summary                 |
           -------------------------------------------------

      molecular mass/u    :       60.0951386
   center of mass at/Å    :        0.0003083       0.0000811      -0.0004454
  moments of inertia/u·Å² :        0.5965396E+02   0.6231320E+02   0.1054677E+03
rotational constants/cm⁻¹ :        0.2825903E+00   0.2705307E+00   0.1598369E+00

 * 11 selected distances

     #   Z          #   Z                                           value/Å
     1   6 C        2   6 C                                       1.5287822 (max)
     2   6 C        3   6 C                                       1.5287820
     2   6 C        4   8 O                                       1.4187274
     1   6 C        5   1 H                                       1.0871847
     1   6 C        6   1 H                                       1.0881053
     1   6 C        7   1 H                                       1.0857251
     2   6 C        8   1 H                                       1.0961674
     3   6 C        9   1 H                                       1.0871857
     3   6 C       10   1 H                                       1.0881059
     3   6 C       11   1 H                                       1.0857257
     4   8 O       12   1 H                                       0.9678487 (min)

 * 4 distinct bonds (by element types)

   Z      Z             #   av. dist./Å        max./Å        min./Å
   1 H    6 C           7     1.0883143     1.0961674     1.0857251
   6 C    6 C           2     1.5287821     1.5287822     1.5287820
   1 H    8 O           1     0.9678487     0.9678487     0.9678487
   6 C    8 O           1     1.4187274     1.4187274     1.4187274

           -------------------------------------------------
          |               Frequency Printout                |
           -------------------------------------------------
 projected vibrational frequencies (cm⁻¹)
eigval :       -0.00    -0.00     0.00     0.00     0.00     0.00
eigval :      191.30   231.66   320.37   353.82   418.25   477.90
eigval :      862.06   937.60   965.20   968.11  1061.38  1133.59
eigval :     1161.76  1234.72  1305.54  1333.75  1392.73  1405.26
eigval :     1478.28  1484.92  1486.29  1495.75  2925.06  3023.01
eigval :     3026.07  3039.61  3041.31  3049.67  3053.32  3487.94
 reduced masses (amu)
   1:  9.78   2: 10.03   3:  9.37   4: 10.25   5: 11.70   6: 13.31   7:  1.23   8:  1.84
   9:  1.68  10:  8.22  11: 11.17  12:  7.81  13:  9.83  14:  3.09  15:  4.02  16:  7.40
  17:  4.80  18:  7.89  19:  7.35  20:  5.31  21:  4.17  22:  3.25  23:  3.37  24:  3.23
  25:  1.60  26:  1.57  27:  1.55  28:  1.55  29:  1.74  30:  1.81  31:  1.79  32:  1.76
  33:  1.72  34:  1.58  35:  1.63  36:  1.87
 IR intensities (km·mol⁻¹)
   1:  1.37   2:  0.99   3:  1.39   4:  0.47   5:  0.00   6:  2.53   7:  0.12   8:  0.41
   9:181.11  10:  0.51  11: 58.08  12:  4.22  13: 17.13  14:  3.51  15:  0.28  16: 11.10
  17:155.41  18: 31.63  19: 55.93  20: 28.01  21: 18.73  22:109.18  23:  7.17  24:  9.18
  25:  0.39  26:  0.01  27:  1.59  28:  3.01  29: 82.35  30:  0.17  31:119.27  32: 62.14
  33: 26.13  34:  7.69  35: 69.32  36: 48.71
 Raman intensities (Ä⁴*amu⁻¹)
   1:  0.00   2:  0.00   3:  0.00   4:  0.00   5:  0.00   6:  0.00   7:  0.00   8:  0.00
   9:  0.00  10:  0.00  11:  0.00  12:  0.00  13:  0.00  14:  0.00  15:  0.00  16:  0.00
  17:  0.00  18:  0.00  19:  0.00  20:  0.00  21:  0.00  22:  0.00  23:  0.00  24:  0.00
  25:  0.00  26:  0.00  27:  0.00  28:  0.00  29:  0.00  30:  0.00  31:  0.00  32:  0.00
  33:  0.00  34:  0.00  35:  0.00  36:  0.00
 output can be read by thermo (or use thermo option).
 writing <g98.out> molden fake output.
 recommended (thermochemical) frequency scaling factor: 1.0
           -------------------------------------------------
          |             Thermodynamic Functions             |
           -------------------------------------------------

Molecule has the following symmetry elements: (sigma) 
It seems to be the Cs point group
cs  symmetry found (for desy threshold:  0.10E+00) used in thermo

          ...................................................
          :                      SETUP                      :
          :.................................................:
          :  # frequencies                          30      :
          :  # imaginary freq.                       0      :
          :  linear?                             false      :
          :  only rotor calc.                    false      :
          :  symmetry                               cs      :
          :  rotational number                       1      :
          :  scaling factor                  1.0000000      :
          :  rotor cutoff                    0.0000000 cm⁻¹ :
          :  imag. cutoff                 -100.0000000 cm⁻¹ :
          :.................................................:

    mode    ω/cm⁻¹     T·S(HO)/kcal·mol⁻¹    T·S(FR)/kcal·mol⁻¹   T·S(vib)
   ------------------------------------------------------------------------
       1    191.30    -0.66047 (100.00%)    -0.65871 (  0.00%)    -0.66047
       2    231.66    -0.55636 (100.00%)    -0.60205 (  0.00%)    -0.55636
   ------------------------------------------------------------------------

   temp. (K)  partition function   enthalpy   heat capacity  entropy
                                   cal/mol     cal/K/mol   cal/K/mol   J/K/mol
 298.15  VIB   5.26                 1698.680     13.199      8.997
         ROT  0.478E+05              888.752      2.981     24.394
         INT  0.252E+06             2587.432     16.180     33.391
         TR   0.451E+27             1481.254      4.968     38.183
         TOT                        4068.6862    21.1479    71.5742   299.4666

       T/K    H(0)-H(T)+PV         H(T)/Eh          T*S/Eh         G(T)/Eh
   ------------------------------------------------------------------------
    298.15    0.648386E-02    0.112068E+00    0.340072E-01    0.780611E-01
   ------------------------------------------------------------------------

         :::::::::::::::::::::::::::::::::::::::::::::::::::::
         ::                  THERMODYNAMIC                  ::
         :::::::::::::::::::::::::::::::::::::::::::::::::::::
         :: total free energy         -14.492020896338 Eh   ::
         ::.................................................::
         :: total energy              -14.570082032984 Eh   ::
         :: zero point energy           0.105584499694 Eh   ::
         :: G(RRHO) w/o ZPVE           -0.027523363048 Eh   ::
         :: G(RRHO) contrib.            0.078061136647 Eh   ::
         :::::::::::::::::::::::::::::::::::::::::::::::::::::

optimized geometry written to: xtbopt.coord


           -------------------------------------------------
          | TOTAL ENERGY              -14.570082032984 Eh   |
          | TOTAL ENTHALPY            -14.458013669069 Eh   |
          | TOTAL FREE ENERGY         -14.492020896338 Eh   |
          | GRADIENT NORM               0.000038601332 Eh/α |
          | HOMO-LUMO GAP              12.506119335680 eV   |
           -------------------------------------------------

------------------------------------------------------------------------
 * finished run on 2025/04/03 at 21:39:14.100     
------------------------------------------------------------------------
 total:
 * wall-time:     0 d,  0 h,  0 min,  0.346 sec
 *  cpu-time:     0 d,  0 h,  0 min,  0.279 sec
 * ratio c/w:     0.805 speedup
 SCF:
 * wall-time:     0 d,  0 h,  0 min,  0.006 sec
 *  cpu-time:     0 d,  0 h,  0 min,  0.006 sec
 * ratio c/w:     0.986 speedup
 ANC optimizer:
 * wall-time:     0 d,  0 h,  0 min,  0.053 sec
 *  cpu-time:     0 d,  0 h,  0 min,  0.040 sec
 * ratio c/w:     0.743 speedup
 analytical hessian:
 * wall-time:     0 d,  0 h,  0 min,  0.232 sec
 *  cpu-time:     0 d,  0 h,  0 min,  0.224 sec
 * ratio c/w:     0.962 speedup

