17
 energy: -22.497556345358 gnorm: 0.027214290483 xtb: 6.7.1 (edcfbbe)
C            2.89971245602117       -0.07170183064164        0.00911396464483
C            1.40117424876267        0.00073996008469       -0.00450854827332
C            0.70885202684025        1.21285545705021       -0.00293981229334
C           -0.67796492489520        1.21135260681285       -0.00076619239894
C           -1.36803144446823       -0.00334948214838       -0.00001327938081
N           -0.71529258608465       -1.17883959610636       -0.00466008986250
C            0.62573971753779       -1.15696699648400       -0.00763090702759
C           -2.86738818326613       -0.02890185334548        0.00489801858731
H            3.26617416162937       -0.41511733459318        0.98311162489380
H            3.26781858363924       -0.77751175032582       -0.74186784608335
H            3.34108179290658        0.90794396402635       -0.18981093845257
H            1.25655924610466        2.15139048473286       -0.00536131941776
H           -1.23180344849158        2.14540128286277       -0.00155905598537
H            1.11732971428341       -2.12956322170456       -0.01463721142413
H           -3.23956979851559       -1.05454726067388       -0.01174555396848
H           -3.26062422698045        0.47209934304963        0.89618249982071
H           -3.26768344521106        0.50419984199373       -0.86415086904067
17
 energy: -22.498651057909 gnorm: 0.008738856217 xtb: 6.7.1 (edcfbbe)
C            2.88794561166270       -0.07109199971495        0.00775486206258
C            1.39388591125947        0.00219843216024       -0.00387569323979
C            0.70980854712037        1.21448675222146       -0.00225982532672
C           -0.67225697185677        1.21429905696799       -0.00101188465465
C           -1.35792217097926        0.00123494735987       -0.00042477157852
N           -0.71176629365429       -1.16489420164652       -0.00485331451023
C            0.61565861231356       -1.14993023464502       -0.00705356931485
C           -2.85308816301061       -0.03358878074167        0.00453332667477
H            3.24201645946744       -0.41427160460873        0.98112524017938
H            3.24508485173100       -0.77702599956164       -0.74157144372511
H            3.32512824036786        0.90574536966204       -0.19112772135578
H            1.25709978363427        2.14814374857258       -0.00337428455603
H           -1.22457162035291        2.14342237959726       -0.00096784842649
H            1.09086997320834       -2.12484759660698       -0.01245675498689
H           -3.20791217372235       -1.06067780999527       -0.01183331923310
H           -3.23824144188475        0.46218057471531        0.89629519223107
H           -3.24565526549182        0.49410058085382       -0.86524370590181
17
 energy: -22.498749828949 gnorm: 0.001622848928 xtb: 6.7.1 (edcfbbe)
C            2.88510040397162       -0.07178576254989        0.00707059653912
C            1.39190132524609        0.00306992043431       -0.00440992019396
C            0.71083717478430        1.21635072159700       -0.00201100658343
C           -0.67075703792078        1.21894005727002       -0.00029784209231
C           -1.35465482430163        0.00535863570655       -0.00018866831345
N           -0.71000660576754       -1.15673789924658       -0.00430925535564
C            0.61228836605630       -1.14773497172869       -0.00673594491590
C           -2.84971931681678       -0.03564227960497        0.00412753353104
H            3.23393035839661       -0.41461787315399        0.98043361442803
H            3.23734207580702       -0.77866765214140       -0.74101479685576
H            3.32065811711185        0.90373306376210       -0.19237331686506
H            1.25934778614724        2.14759588996609       -0.00257770206492
H           -1.22240805843599        2.14658835960895       -0.00010661424085
H            1.07910679942884       -2.12521190031868       -0.01165444658815
H           -3.19125905950196       -1.06563558156322       -0.01216499693849
H           -3.23417150086689        0.45609716892021        0.89576571147254
H           -3.24145211352603        0.48778371763198       -0.86589846062500
17
 energy: -22.498757491852 gnorm: 0.000731308139 xtb: 6.7.1 (edcfbbe)
C            2.88573171945384       -0.07228244635326        0.00670140683984
C            1.39201059646023        0.00343324507797       -0.00449689284884
C            0.71144904767430        1.21707371839763       -0.00169765886933
C           -0.67070043644374        1.22229788934787        0.00008230435784
C           -1.35489007535265        0.00842688925681       -0.00017637553309
N           -0.71022489194171       -1.15327014300501       -0.00414068281723
C            0.61197473629969       -1.14757123953283       -0.00652436173120
C           -2.85077713296781       -0.03656646597408        0.00384916901973
H            3.23360452699292       -0.41452231659488        0.98044937431116
H            3.23650307430936       -0.78052505691514       -0.74059070687671
H            3.32180479914686        0.90261056288642       -0.19386657780305
H            1.26153166860958        2.14745962274785       -0.00208494741915
H           -1.22135456578883        2.15047956392241        0.00096651690628
H            1.07598028465129       -2.12636348001668       -0.01130024728124
H           -3.18553396881173       -1.06870554655082       -0.01240230684953
H           -3.23706813036983        0.45308510595040        0.89542547778111
H           -3.24395736210951        0.48442371194514       -0.86653900684876
17
 energy: -22.498758393569 gnorm: 0.000196862239 xtb: 6.7.1 (edcfbbe)
C            2.88596418938373       -0.07245390552754        0.00652557661372
C            1.39205733290109        0.00354855340137       -0.00448878382050
C            0.71153058452511        1.21706858411537       -0.00138361440592
C           -0.67065097682785        1.22323072959294        0.00062301705863
C           -1.35521037218017        0.00956536418688        0.00007390020610
N           -0.71064354678980       -1.15250580067908       -0.00410171120596
C            0.61198116064392       -1.14745986050430       -0.00655091918980
C           -2.85120602788245       -0.03701573411525        0.00363403539879
H            3.23434533759062       -0.41365196088385        0.98063218092611
H            3.23659831677831       -0.78169069761365       -0.74010023286264
H            3.32256810763247        0.90207698482169       -0.19532652326063
H            1.26227000045703        2.14729591391063       -0.00167053034691
H           -1.22046862492414        2.15202059168977        0.00161243832193
H            1.07551847912600       -2.12640599250298       -0.01127670902018
H           -3.18452701198851       -1.06963632138202       -0.01258986358757
H           -3.23884022577133        0.45221557975323        0.89500439576778
H           -3.24520283286178        0.48328158632659       -0.86696217225512
17
 energy: -22.498758597884 gnorm: 0.000123388148 xtb: 6.7.1 (edcfbbe)
C            2.88583974417234       -0.07251996542041        0.00636961733418
C            1.39201128490045        0.00359159640703       -0.00434892013777
C            0.71155961732803        1.21711698893627       -0.00103749833503
C           -0.67060695375693        1.22341824601787        0.00090116301979
C           -1.35518324107061        0.00985147296951        0.00007096086897
N           -0.71068160988792       -1.15224838474093       -0.00415761166153
C            0.61186321220546       -1.14732594095517       -0.00648994056981
C           -2.85107316509081       -0.03716500069447        0.00348993138380
H            3.23438310252278       -0.41260314881393        0.98079096897908
H            3.23622804422867       -0.78263793170333       -0.73951140202292
H            3.32246157143749        0.90174679895965       -0.19667695923781
H            1.26240807838541        2.14727715137872       -0.00121590147440
H           -1.22012089532016        2.15236055167097        0.00217648476673
H            1.07514700981806       -2.12633937323950       -0.01149074512073
H           -3.18386713833510       -1.06992545666465       -0.01262239347629
H           -3.23912546122730        0.45208223629325        0.89467385974838
H           -3.24515931049762        0.48280377418891       -0.86726712972682
17
 energy: -22.498758984746 gnorm: 0.000184398731 xtb: 6.7.1 (edcfbbe)
C            2.88569801570645       -0.07260947490974        0.00598977548944
C            1.39200405049222        0.00364275743436       -0.00431273069298
C            0.71161948099814        1.21719539631284       -0.00017271381103
C           -0.67057439769092        1.22355917864560        0.00189962249443
C           -1.35520216596305        0.01016433175241        0.00031749568206
N           -0.71072752945267       -1.15201015974054       -0.00442539680570
C            0.61170038832105       -1.14713949575011       -0.00685571148002
C           -2.85091615094607       -0.03733578974094        0.00311458284816
H            3.23466244947739       -0.40927763343231        0.98144762271421
H            3.23563269515262       -0.78537040055587       -0.73754065048250
H            3.32232431050651        0.90091284967492       -0.20060436208664
H            1.26252886708824        2.14729745899374        0.00013108843225
H           -1.21963091987208        2.15274981035540        0.00370622918371
H            1.07474151583638       -2.12624785607383       -0.01206026251942
H           -3.18311939549252       -1.07025533771582       -0.01266932101309
H           -3.23975642936939        0.45222158013050        0.89379536581261
H           -3.24490089498003        0.48198639920918       -0.86810614942767
17
 energy: -22.498759581674 gnorm: 0.000365765560 xtb: 6.7.1 (edcfbbe)
C            2.88564750691297       -0.07266100955705        0.00548399738320
C            1.39203236725293        0.00364861994883       -0.00415241818275
C            0.71167270473059        1.21721337309923        0.00114494599548
C           -0.67055794766004        1.22352134884678        0.00327377597645
C           -1.35525549009878        0.01027056510505        0.00042749991797
N           -0.71075534677162       -1.15196833326174       -0.00500487948609
C            0.61158805137550       -1.14704075367924       -0.00724502831008
C           -2.85086331221288       -0.03740732974315        0.00261742763016
H            3.23525076569612       -0.40373110259000        0.98266445716576
H            3.23505966530237       -0.78966941812138       -0.73419174334567
H            3.32221266495126        0.89969182554228       -0.20680251359388
H            1.26252803023321        2.14731762622207        0.00209513304910
H           -1.21931662364463        2.15288809412268        0.00603610333374
H            1.07458881847163       -2.12618083468170       -0.01340905970349
H           -3.18288337045430       -1.07038024136300       -0.01277815863290
H           -3.24042495236091        0.45270480627494        0.89268994829127
H           -3.24443964191113        0.48126637842518       -0.86919500315046
17
 energy: -22.498760568124 gnorm: 0.000460015658 xtb: 6.7.1 (edcfbbe)
C            2.88565747115990       -0.07266399807276        0.00491336956872
C            1.39205940764494        0.00357724462719       -0.00421879411949
C            0.71170649348042        1.21714558924961        0.00277480697347
C           -0.67054213079140        1.22333580251323        0.00516625438775
C           -1.35528778380754        0.01015282050737        0.00070537328824
N           -0.71075499537929       -1.15209646474052       -0.00598623683443
C            0.61153303296618       -1.14707159422121       -0.00830910791844
C           -2.85088278769314       -0.03735832775183        0.00203156988525
H            3.23596106198735       -0.39578526757248        0.98457842673782
H            3.23458736266950       -0.79557881059820       -0.72922230918964
H            3.32204928380962        0.89804853442723       -0.21528940078458
H            1.26243130062064        2.14729649112534        0.00460359623172
H           -1.21925304496043        2.15273558632861        0.00906078151645
H            1.07464540848451       -2.12618608052952       -0.01515893002783
H           -3.18309963126162       -1.07027719748701       -0.01320533284567
H           -3.24100942427893        0.45327225621358        0.89155437806246
H           -3.24371713483845        0.48093703057115       -0.87034396059399
17
 energy: -22.498763538171 gnorm: 0.000860977783 xtb: 6.7.1 (edcfbbe)
C            2.88575669887848       -0.07260117498254        0.00336594815276
C            1.39211516933459        0.00320505673956       -0.00461384661755
C            0.71178170231660        1.21680993557020        0.00772722766926
C           -0.67048606486965        1.22278935475456        0.01094219904899
C           -1.35535910190198        0.00966588197939        0.00127851117643
N           -0.71080325323050       -1.15258076821949       -0.00954894356252
C            0.61147124031103       -1.14739359476383       -0.01198707179634
C           -2.85103899197135       -0.03709653081471        0.00033872127644
H            3.23806007399276       -0.36853870896945        0.99150474271163
H            3.23351368164228       -0.81549392129380       -0.71162857694290
H            3.32151759166402        0.89244119060322       -0.24361212989309
H            1.26224572579509        2.14707268639536        0.01289278357525
H           -1.21934224425400        2.15212289855492        0.01883973843486
H            1.07492612603914       -2.12640678118716       -0.02221841164313
H           -3.18406136504977       -1.06979662013263       -0.01454109034933
H           -3.24248990621456        0.45494460679157        0.88844380162473
H           -3.24172319266993        0.48034010356461       -0.87352911852767
17
 energy: -22.498765905962 gnorm: 0.001340019859 xtb: 6.7.1 (edcfbbe)
C            2.88582803353609       -0.07247670769633        0.00222165533845
C            1.39211052672102        0.00271579990899       -0.00524387731060
C            0.71181551115725        1.21637680032814        0.01249653446770
C           -0.67041741592496        1.22225239261146        0.01615219468145
C           -1.35540950239951        0.00910669762611        0.00150686142791
N           -0.71091124481538       -1.15307795297104       -0.01359644825914
C            0.61142933714893       -1.14782930261600       -0.01642182396610
C           -2.85123382800607       -0.03677643845345       -0.00095658735662
H            3.23979832899714       -0.34149624444980        0.99806883353363
H            3.23313976792407       -0.83430653596194       -0.69331397966379
H            3.32100058221347        0.88634662450540       -0.27057365071845
H            1.26217126223468        2.14666201623502        0.02075974653362
H           -1.21959421039019        2.15138924407592        0.02774963535521
H            1.07514003721938       -2.12675380350800       -0.02979925543689
H           -3.18520374143829       -1.06921552102312       -0.01532107599027
H           -3.24341912321984        0.45667198764723        0.88598514008700
H           -3.24016043114552        0.47989455833120       -0.87605941838531
17
 energy: -22.498769767309 gnorm: 0.001260062941 xtb: 6.7.1 (edcfbbe)
C            2.88591490961336       -0.07225684627666        0.00177373205503
C            1.39208786781488        0.00209053305991       -0.00618166534569
C            0.71182000426799        1.21581899795751        0.01621108445270
C           -0.67031869306924        1.22164976312304        0.02023217029090
C           -1.35541328314527        0.00838652538464        0.00143470340189
N           -0.71103786212243       -1.15365977315134       -0.01794193450181
C            0.61147521938425       -1.14841202974790       -0.02128184404114
C           -2.85145931991248       -0.03634568901347       -0.00165562262818
H            3.24082888548449       -0.31659660060674        1.00368410215263
H            3.23354322929172       -0.85023929387951       -0.67525326336856
H            3.32043418889337        0.88002111199814       -0.29377823831668
H            1.26219670908181        2.14605454517621        0.02782872306265
H           -1.22007290905137        2.15041918924728        0.03509570180304
H            1.07540853857094       -2.12723712053423       -0.03812297751511
H           -3.18665205677254       -1.06845611764038       -0.01479392984510
H           -3.24347581279853        0.45892214183993        0.88427536486905
H           -3.23919572571870        0.47932427765335       -0.87787162218780
17
 energy: -22.498776386823 gnorm: 0.000532867416 xtb: 6.7.1 (edcfbbe)
C            2.88603354600189       -0.07193114255098        0.00248124060138
C            1.39200896475411        0.00115215325724       -0.00773573748030
C            0.71186615781605        1.21502930149737        0.01978148792548
C           -0.67004858769454        1.22133020870642        0.02363700826026
C           -1.35527897626715        0.00784199500436        0.00031357150466
N           -0.71129620794450       -1.15397977144316       -0.02470853806796
C            0.61159621295374       -1.14918012665771       -0.02867669412675
C           -2.85159514426484       -0.03594271329324       -0.00142922600989
H            3.24030169745008       -0.28754008764708        1.01027284635155
H            3.23476791297563       -0.86724310315517       -0.65201196918961
H            3.31962196951374        0.87162035239779       -0.31834507022899
H            1.26285315183297        2.14489459946953        0.03541151926511
H           -1.22043256483878        2.14964161750786        0.04210405146528
H            1.07518445401343       -2.12803001891199       -0.05041315989004
H           -3.18764876819538       -1.06784036898011       -0.01184650245032
H           -3.24231889674165        0.46195774672539        0.88355108318500
H           -3.23953103155255        0.47770297266324       -0.87873142677703
17
 energy: -22.498461594181 gnorm: 0.015658712586 xtb: 6.7.1 (edcfbbe)
C            2.88630536076477       -0.07097280745838        0.00323948285655
C            1.39169153695888       -0.00271651847588       -0.01429782100506
C            0.71231963679388        1.21189744877635        0.03993755632521
C           -0.66877326512433        1.22036723227816        0.04501171748941
C           -1.35484705751758        0.00656051740966       -0.00321772509052
N           -0.71256550481137       -1.15462116431422       -0.05651341095536
C            0.61152232176800       -1.15184474597676       -0.06231890520693
C           -2.85177256407389       -0.03482406128214       -0.00286593064979
H            3.24019885964924       -0.13547485672815        1.04715320060838
H            3.23678267149247       -0.96362815849373       -0.53629184624479
H            3.31584075845799        0.83097247196858       -0.45520498687028
H            1.26594013027796        2.14012248398341        0.07642731405567
H           -1.22016723859195        2.14771739943394        0.08348802336907
H            1.07299373486265       -2.13106596286809       -0.10872189238362
H           -3.18955661328629       -1.06631348091120       -0.00335054266436
H           -3.24068254784923        0.47345862946933        0.87694183183919
H           -3.23914632995895        0.46984918777891       -0.88576158113498
17
 energy: -22.498777727615 gnorm: 0.002964018273 xtb: 6.7.1 (edcfbbe)
C            2.88604341705122       -0.07151977674346        0.00379529598101
C            1.39176721330919       -0.00070839899030       -0.01113974149205
C            0.71206902732977        1.21356170851474        0.02812649503179
C           -0.66942332320964        1.22110007853938        0.03245504746962
C           -1.35508320807110        0.00757377383648       -0.00184239884279
N           -0.71201572228874       -1.15394084244876       -0.04050481712447
C            0.61140960137043       -1.15025398562780       -0.04524989237156
C           -2.85152456444135       -0.03560574490386       -0.00134669404198
H            3.23918356755887       -0.21785176614089        1.02707270199589
H            3.23623779944552       -0.91013423617958       -0.59721545895445
H            3.31823056333653        0.85189889459292       -0.37911242800800
H            1.26460501789278        2.14244250496298        0.05384779816340
H           -1.21988791049055        2.14914384644385        0.06020105099591
H            1.07355070791439       -2.12938459306414       -0.07945437708949
H           -3.18776794824994       -1.06747532364568       -0.00578716750766
H           -3.24080887157479        0.46779216468547        0.88112228688760
H           -3.24050147707036        0.47284531075845       -0.88131321675495
17
 energy: -22.498787144637 gnorm: 0.001338597770 xtb: 6.7.1 (edcfbbe)
C            2.88590403903583       -0.07164483229807        0.00442102548712
C            1.39171736974762       -0.00066938297721       -0.01132399646181
C            0.71207357149126        1.21363954301788        0.02771590442289
C           -0.66942961812644        1.22123712240842        0.03166819961557
C           -1.35515468947139        0.00786670310710       -0.00240519067692
N           -0.71211211371106       -1.15365091133018       -0.04131732343692
C            0.61124301847019       -1.15000082046757       -0.04600249282606
C           -2.85143776817440       -0.03579196461441       -0.00077252240719
H            3.23844969324391       -0.21853376842940        1.02623191910681
H            3.23670978633889       -0.90849595190369       -0.59616811287702
H            3.31873839572512        0.85069651964910       -0.37680530862037
H            1.26472956698343        2.14238434522498        0.05313818278493
H           -1.21946961412259        2.14949136876124        0.05922885534649
H            1.07311064787474       -2.12918136691906       -0.08059388203559
H           -3.18717701492486       -1.06778855489430       -0.00445204595112
H           -3.24035122135525        0.46785861108385        0.88172322021080
H           -3.24146015921274        0.47206695517111       -0.88063194734379
17
 energy: -22.498789485700 gnorm: 0.000666823502 xtb: 6.7.1 (edcfbbe)
C            2.88569326623525       -0.07185020179047        0.00503355897069
C            1.39177179064191       -0.00058601997650       -0.01156275819343
C            0.71222442394869        1.21373100461304        0.02779011486485
C           -0.66932608593403        1.22142568363759        0.03144409462379
C           -1.35520905960355        0.00839361443390       -0.00307898061681
N           -0.71217539679164       -1.15316501919005       -0.04290164474503
C            0.61104412275780       -1.14959983195936       -0.04748063124872
C           -2.85125026838612       -0.03609942370633       -0.00028942495030
H            3.23746580391192       -0.21535073155649        1.02591495072137
H            3.23657014923626       -0.90932698408716       -0.59197331174725
H            3.31903431691462        0.84798395212388       -0.37815145389118
H            1.26497609528032        2.14234003223151        0.05363529895486
H           -1.21858148137552        2.15009449476626        0.05944876230184
H            1.07252975991379       -2.12885284097166       -0.08303039574336
H           -3.18606979485293       -1.06834617663615       -0.00301903233691
H           -3.24010874250971        0.46790116983338        0.88205988919514
H           -3.24250500957480        0.47079089282442       -0.88018455182173
17
 energy: -22.498790685288 gnorm: 0.000288252731 xtb: 6.7.1 (edcfbbe)
C            2.88569555594971       -0.07188661566542        0.00481090048833
C            1.39178243687855       -0.00059658386731       -0.01159875949657
C            0.71225475815505        1.21370424373568        0.02852712611902
C           -0.66930895674202        1.22141156969117        0.03224663045801
C           -1.35522238117149        0.00845307149209       -0.00302516643871
N           -0.71219537810293       -1.15312804925453       -0.04339148024939
C            0.61098328126232       -1.14957559712867       -0.04797713648318
C           -2.85123120967822       -0.03611727364823       -0.00053926145154
H            3.23772079428453       -0.21138360636746        1.02660054597834
H            3.23632010884861       -0.91203998279718       -0.58923074164025
H            3.31889328392118        0.84681079982408       -0.38216502127567
H            1.26496808785764        2.14232325364178        0.05484390388570
H           -1.21844369681291        2.15014101643127        0.06080279253709
H            1.07246102332292       -2.12882965146633       -0.08402521811531
H           -3.18593749613436       -1.06839878143264       -0.00326727748965
H           -3.24036469615632        0.46796070300844        0.88164603355272
H           -3.24229162587001        0.47063509839305       -0.88060338604112
17
 energy: -22.498793034136 gnorm: 0.000904737365 xtb: 6.7.1 (edcfbbe)
C            2.88561893278905       -0.07203360610630        0.00433107879806
C            1.39180019414773       -0.00073379207308       -0.01187891046348
C            0.71241330243300        1.21353421642158        0.03155336138720
C           -0.66920097372568        1.22133419697379        0.03541524704625
C           -1.35530686937206        0.00876396175252       -0.00315332670178
N           -0.71234270573177       -1.15289024125226       -0.04645108419695
C            0.61066270830316       -1.14942022008328       -0.05100806368692
C           -2.85113112946231       -0.03624039098852       -0.00127914842237
H            3.23848846676000       -0.19262334731780        1.02920316424641
H            3.23552979315172       -0.92362568967705       -0.57501860953226
H            3.31852357979255        0.84029540002414       -0.39985397745087
H            1.26508374230245        2.14209073575306        0.06030890101706
H           -1.21766641711608        2.15038651871739        0.06657911484830
H            1.07195540024436       -2.12869194356530       -0.08975261373672
H           -3.18527982082851       -1.06867810725093       -0.00338238313004
H           -3.24112735726724        0.46854499167288        0.88012870138802
H           -3.24193695660810        0.46947093158894       -0.88208696707210
17
 energy: -22.498794531708 gnorm: 0.001125112757 xtb: 6.7.1 (edcfbbe)
C            2.88556489840641       -0.07210072843220        0.00412522366053
C            1.39181322274578       -0.00088895037914       -0.01206793348644
C            0.71251825494287        1.21337327573555        0.03349283266318
C           -0.66911550720286        1.22124706673235        0.03735242076496
C           -1.35535143151216        0.00889960155497       -0.00333701772623
N           -0.71244089285751       -1.15276901577522       -0.04855932702063
C            0.61049639771336       -1.14937007730799       -0.05310849619610
C           -2.85108748908944       -0.03628216556708       -0.00166657124856
H            3.23891687902471       -0.18049361189851        1.03038772253155
H            3.23517776757193       -0.93048195427595       -0.56551979347671
H            3.31823081049642        0.83569232604312       -0.41077857903339
H            1.26521376535655        2.14184662707720        0.06374239088308
H           -1.21722840829534        2.15045229571348        0.07009486779336
H            1.07165286207027       -2.12864728932979       -0.09356222230206
H           -3.18500387295403       -1.06878318917517       -0.00321254766212
H           -3.24147806715762        0.46909495516206        0.87923185130773
H           -3.24179529944707        0.46869444871210       -0.88296033711434
17
 energy: -22.498799139187 gnorm: 0.001595706277 xtb: 6.7.1 (edcfbbe)
C            2.88544252496196       -0.07216642596106        0.00357533206100
C            1.39182273193040       -0.00153774021820       -0.01248809312245
C            0.71280019937004        1.21272276891547        0.03931596640781
C           -0.66883878011838        1.22083911391160        0.04319264606789
C           -1.35545727694928        0.00906149597715       -0.00383620796285
N           -0.71275962061152       -1.15256438584120       -0.05495724293133
C            0.61007846207431       -1.14940222045846       -0.05941077054935
C           -2.85102908843988       -0.03626438814684       -0.00288953836906
H            3.24049205215455       -0.14327428762053        1.03285071097069
H            3.23425869327036       -0.95023153762083       -0.53605401942729
H            3.31721174661055        0.82094269762656       -0.44384652074920
H            1.26567840235590        2.14088089274654        0.07436382786217
H           -1.21619329361500        2.15031649199686        0.08076770430824
H            1.07084886737208       -2.12866677463982       -0.10495909564291
H           -3.18467609200687       -1.06882820002693       -0.00268851564474
H           -3.24239498160903        0.47109724467742        0.87642673377349
H           -3.24120065693792        0.46655886927207       -0.88570843271431
17
 energy: -22.498802250235 gnorm: 0.000443737025 xtb: 6.7.1 (edcfbbe)
C            2.88557161982876       -0.07196996616656        0.00346720559116
C            1.39176939151689       -0.00177006107673       -0.01241887704813
C            0.71268528890830        1.21248209146892        0.03947174500010
C           -0.66890114710395        1.22070795312574        0.04356694517194
C           -1.35551933429332        0.00868308674266       -0.00352596207983
N           -0.71285183191752       -1.15281039986796       -0.05487410839000
C            0.61024573569557       -1.14976356340879       -0.05941115669306