      -----------------------------------------------------------      
     |                   =====================                   |     
     |                           x T B                           |     
     |                   =====================                   |     
     |                         S. Grimme                         |     
     |          Mulliken Center for Theoretical Chemistry        |     
     |                    University of Bonn                     |     
      -----------------------------------------------------------      

   * xtb version 6.7.1 (edcfbbe) compiled by 'albert@albert-system' on 2024-07-22

   xtb is free software: you can redistribute it and/or modify it under
   the terms of the GNU Lesser General Public License as published by
   the Free Software Foundation, either version 3 of the License, or
   (at your option) any later version.
   
   xtb is distributed in the hope that it will be useful,
   but WITHOUT ANY WARRANTY; without even the implied warranty of
   MERCHANTABILITY or FITNESS FOR A PARTICULAR PURPOSE.  See the
   GNU Lesser General Public License for more details.
   
   Cite this work as:
   * C. Bannwarth, E. Caldeweyher, S. Ehlert, A. Hansen, P. Pracht,
     J. Seibert, S. Spicher, S. Grimme, WIREs Comput. Mol. Sci., 2020, 11,
     e01493. DOI: 10.1002/wcms.1493
   
   for GFN2-xTB:
   * C. Bannwarth, S. Ehlert and S. Grimme., J. Chem. Theory Comput., 2019,
     15, 1652-1671. DOI: 10.1021/acs.jctc.8b01176
   for GFN1-xTB:
   * S. Grimme, C. Bannwarth, P. Shushkov, J. Chem. Theory Comput., 2017,
     13, 1989-2009. DOI: 10.1021/acs.jctc.7b00118
   for GFN0-xTB:
   * P. Pracht, E. Caldeweyher, S. Ehlert, S. Grimme, ChemRxiv, 2019, preprint.
     DOI: 10.26434/chemrxiv.8326202.v1
   for GFN-FF:
   * S. Spicher and S. Grimme, Angew. Chem. Int. Ed., 2020, 59, 15665-15673.
     DOI: 10.1002/anie.202004239
   
   for ALPB and GBSA implicit solvation:
   * S. Ehlert, M. Stahn, S. Spicher, S. Grimme, J. Chem. Theory Comput.,
     2021, 17, 4250-4261. DOI: 10.1021/acs.jctc.1c00471
   
   for ddCOSMO and CPCM-X implicit solvation:
   * M. Stahn, S. Ehlert, S. Grimme, J. Phys. Chem. A,
     2023, XX, XXXX-XXXX. DOI: 10.1021/acs.jpca.3c04382
   
   for DFT-D4:
   * E. Caldeweyher, C. Bannwarth and S. Grimme, J. Chem. Phys., 2017,
     147, 034112. DOI: 10.1063/1.4993215
   * E. Caldeweyher, S. Ehlert, A. Hansen, H. Neugebauer, S. Spicher,
     C. Bannwarth and S. Grimme, J. Chem. Phys., 2019, 150, 154122.
     DOI: 10.1063/1.5090222
   * E. Caldeweyher, J.-M. Mewes, S. Ehlert and S. Grimme, Phys. Chem. Chem. Phys.
     2020, 22, 8499-8512. DOI: 10.1039/D0CP00502A
   
   for sTDA-xTB:
   * S. Grimme and C. Bannwarth, J. Chem. Phys., 2016, 145, 054103.
     DOI: 10.1063/1.4959605
   
   in the mass-spec context:
   * V. Asgeirsson, C. Bauer and S. Grimme, Chem. Sci., 2017, 8, 4879.
     DOI: 10.1039/c7sc00601b
   * J. Koopman and S. Grimme, ACS Omega 2019, 4, 12, 15120-15133.
     DOI: 10.1021/acsomega.9b02011
   
   for metadynamics refer to:
   * S. Grimme, J. Chem. Theory Comput., 2019, 155, 2847-2862
     DOI: 10.1021/acs.jctc.9b00143
   
   for SPH calculations refer to:
   * S. Spicher and S. Grimme, J. Chem. Theory Comput., 2021, 17, 1701-1714
     DOI: 10.1021/acs.jctc.0c01306
   
   for ONIOM refer to:
   * C. Plett, A. Katbashev, S. Ehlert, S. Grimme, M. Bursch,
     Phys. Chem. Chem. Phys., 2023, 25, 17860-17868. DOI: 10.1039/D3CP02178E
   
   for DIPRO refer to:
   * J. Kohn, N. Gildemeister, S. Grimme, D. Fazzi, A. Hansen,
     J. Chem. Phys., 2023, just accepted.
   
   for PTB refer to:
   * S. Grimme, M. Mueller, A. Hansen, J. Chem. Phys., 2023, 158, 124111.
     DOI: 10.1063/5.0137838
   
   with help from (in alphabetical order)
   P. Atkinson, C. Bannwarth, F. Bohle, G. Brandenburg, E. Caldeweyher
   M. Checinski, S. Dohm, S. Ehlert, S. Ehrlich, I. Gerasimov, C. Hölzer
   A. Katbashev, J. Kohn, J. Koopman, C. Lavigne, S. Lehtola, F. März, M. Müller,
   F. Musil, H. Neugebauer, J. Pisarek, C. Plett, P. Pracht, F. Pultar,
   J. Seibert, P. Shushkov, S. Spicher, M. Stahn, M. Steiner, T. Strunk,
   J. Stückrath, T. Rose, and J. Unsleber
   
 * started run on 2025/04/06 at 11:44:48.385     
   ID    Z sym.   atoms
    1    6 C      1-4, 6, 8-12
    2    8 O      5
    3    1 H      7, 13-27

           -------------------------------------------------
          |                Calculation Setup                |
           -------------------------------------------------

          program call               : /srv/scratch/z5358697/.xtb/bin/xtb xtb_opt.coord --opt normal --orca -I xtb_opt-xcontrol-inp
          hostname                   : k163
          coordinate file            : xtb_opt.coord
          omp threads                :                     7

           -------------------------------------------------
          |                   Orca driver                   |
           -------------------------------------------------
orca executable           : /apps/z_install_tree/linux-rocky8-ivybridge/gcc-12.2.0/orca-6.0.0-srtngmq3qlimg2qxbl6avaaiffipurdx/bin/orca
orca input file           : xtb_opt.inp
orca input line           : 
orca parallel             : true
orca number of threads    : 7
                         * ORCA takes the control...
  ------------------------------------------------------------------------

                                 *****************
                                 * O   R   C   A *
                                 *****************

                                            #,                                       
                                            ###                                      
                                            ####                                     
                                            #####                                    
                                            ######                                   
                                           ########,                                 
                                     ,,################,,,,,                         
                               ,,#################################,,                 
                          ,,##########################################,,             
                       ,#########################################, ''#####,          
                    ,#############################################,,   '####,        
                  ,##################################################,,,,####,       
                ,###########''''           ''''###############################       
              ,#####''   ,,,,##########,,,,          '''####'''          '####       
            ,##' ,,,,###########################,,,                        '##       
           ' ,,###''''                  '''############,,,                           
         ,,##''                                '''############,,,,        ,,,,,,###''
      ,#''                                            '''#######################'''  
     '                                                          ''''####''''         
             ,#######,   #######,   ,#######,      ##                                
            ,#'     '#,  ##    ##  ,#'     '#,    #''#        ,####,   ,####,        
            ##       ##  ##   ,#'  ##            #'  '#       #'       #'  '#        
            ##       ##  #######   ##           ,######,      #####,   #    #        
            '#,     ,#'  ##    ##  '#,     ,#' ,#      #,     #,   #   #,  ,#        
             '#######'   ##     ##  '#######'  #'      '#     '####' # '####'        



                #########################################################
                #                        -***-                          #
                #          Department of theory and spectroscopy        #
                #                                                       #
                #                      Frank Neese                      #
                #                                                       #
                #     Directorship, Architecture, Infrastructure        #
                #                    SHARK, DRIVERS                     #
                #        Core code/Algorithms in most modules           #
                #                                                       #
                #        Max Planck Institute fuer Kohlenforschung      #
                #                Kaiser Wilhelm Platz 1                 #
                #                 D-45470 Muelheim/Ruhr                 #
                #                      Germany                          #
                #                                                       #
                #                  All rights reserved                  #
                #                        -***-                          #
                #########################################################


                         Program Version 6.0.0  -   RELEASE  -


 With contributions from (in alphabetic order):
   Daniel Aravena         : Magnetic Suceptibility
   Michael Atanasov       : Ab Initio Ligand Field Theory (pilot matlab implementation)
   Alexander A. Auer      : GIAO ZORA, VPT2 properties, NMR spectrum
   Ute Becker             : All parallelization in ORCA, NUMFREQ, NUMCALC
   Giovanni Bistoni       : ED, misc. LED, open-shell LED, HFLD
   Martin Brehm           : Molecular dynamics
   Dmytro Bykov           : pre 5.0 version of the SCF Hessian
   Marcos Casanova-Páez   : Triplet and SCS-CIS(D). UHF-(DLPNO)-IP/EA/STEOM-CCSD. UHF-CVS-IP/STEOM-CCSD
   Vijay G. Chilkuri      : MRCI spin determinant printing, contributions to CSF-ICE
   Pauline Colinet        : FMM embedding
   Dipayan Datta          : RHF DLPNO-CCSD density
   Achintya Kumar Dutta   : EOM-CC, STEOM-CC
   Nicolas Foglia         : Exact transition moments, OPA infrastructure, MCD improvements
   Dmitry Ganyushin       : Spin-Orbit,Spin-Spin,Magnetic field MRCI
   Miquel Garcia          : C-PCM and meta-GGA Hessian, CCSD/C-PCM, Gaussian charge scheme
   Tiago L. C. Gouveia    : GS-ROHF, GS-ROCIS
   Yang Guo               : DLPNO-NEVPT2, F12-NEVPT2, CIM, IAO-localization
   Andreas Hansen         : Spin unrestricted coupled pair/coupled cluster methods
   Ingolf Harden          : AUTO-CI MPn and infrastructure 
   Benjamin Helmich-Paris : MC-RPA, TRAH-(SCF,CASSCF), AVAS, COSX integrals, SCF dyn. polar.
   Lee Huntington         : MR-EOM, pCC
   Robert Izsak           : Overlap fitted RIJCOSX, COSX-SCS-MP3, EOM
   Riya Kayal             : Wick's Theorem for AUTO-CI, AUTO-CI UHF-CCSDT
   Emily Kempfer          : AUTO-CI, RHF CISDT and CCSDT
   Christian Kollmar      : KDIIS, OOCD, Brueckner-CCSD(T), CCSD density, CASPT2, CASPT2-K, improved NEVPT2
   Axel Koslowski         : Symmetry handling
   Simone Kossmann        : Meta GGA functionals, TD-DFT gradient, OOMP2, (MP2 Hessian; deprecated post 5.0)
   Lucas Lang             : DCDCAS
   Marvin Lechner         : AUTO-CI (C++ implementation), FIC-MRCC
   Spencer Leger          : CASSCF response
   Dagmar Lenk            : GEPOL surface, SMD, ORCA-2-JSON
   Dimitrios Liakos       : Extrapolation schemes; Compound Job, initial MDCI parallelization
   Dimitrios Manganas     : Further ROCIS development; embedding schemes. LFT, Crystal Embedding
   Dimitrios Pantazis     : SARC Basis sets
   Anastasios Papadopoulos: AUTO-CI, single reference methods and gradients
   Taras Petrenko         : pre 6.0 DFT Hessian and TD-DFT gradient, (ASA, deprecated), ECA, 1-Electron XAS/XES, NRVS
   Peter Pinski           : DLPNO-MP2, DLPNO-MP2 Gradient
   Christoph Reimann      : Effective Core Potentials
   Marius Retegan         : Local ZFS, SOC
   Christoph Riplinger    : Optimizer, TS searches, QM/MM, DLPNO-CCSD(T), (RO)-DLPNO pert. Triples
   Michael Roemelt        : Original ROCIS implementation
   Masaaki Saitow         : Open-shell DLPNO-CCSD energy and density
   Barbara Sandhoefer     : DKH picture change effects
   Kantharuban Sivalingam : CASSCF convergence/infrastructure, NEVPT2 and variants, FIC-MRCI
   Bernardo de Souza      : ESD, SOC TD-DFT
   Georgi Stoychev        : AutoAux, RI-MP2 NMR, DLPNO-MP2 response, X2C
   Van Anh Tran           : RI-MP2 g-tensors
   Willem Van den Heuvel  : Paramagnetic NMR
   Zikuan Wang            : NOTCH, Electric field optimization 
   Frank Wennmohs         : Technical directorship and infrastructure
   Hang Xu                : AUTO-CI-Response properties 


 We gratefully acknowledge several colleagues who have allowed us to
 interface, adapt or use parts of their codes:
   Stefan Grimme, W. Hujo, H. Kruse, P. Pracht,  : VdW corrections, initial TS optimization,
                  C. Bannwarth, S. Ehlert,         DFT functionals, gCP, sTDA/sTD-DF
                  L. Wittmann, M. Mueller
   Ed Valeev, F. Pavosevic, A. Kumar             : LibInt (2-el integral package), F12 methods
   Garnet Chan, S. Sharma, J. Yang, R. Olivares  : DMRG
   Ulf Ekstrom                                   : XCFun DFT Library
   Mihaly Kallay                                 : mrcc  (arbitrary order and MRCC methods)
   Frank Weinhold                                : gennbo (NPA and NBO analysis)
   Simon Mueller                                 : openCOSMO-RS
   Christopher J. Cramer and Donald G. Truhlar   : smd solvation model
   Lars Goerigk                                  : TD-DFT with DH, B97 family of functionals
   V. Asgeirsson, H. Jonsson                     : NEB implementation
   FAccTs GmbH                                   : IRC, NEB, NEB-TS, DLPNO-Multilevel, CI-OPT
                                                   MM, QMMM, 2- and 3-layer-ONIOM, Crystal-QMMM,
                                                   LR-CPCM, SF, NACMEs, symmetry and pop. for TD-DFT,
                                                   nearIR, NL-DFT gradient (VV10), updates on ESD,
                                                   ML-optimized integration grids, MBIS, APM,
                                                   GOAT, DOCKER, SOLVATOR, interface openCOSMO-RS
   S Lehtola, MJT Oliveira, MAL Marques          : LibXC Library
   Liviu Ungur et al                             : ANISO software


 Your calculation uses the libint2 library for the computation of 2-el integrals
 For citations please refer to: http://libint.valeyev.net

 Your ORCA version has been built with support for libXC version: 6.2.2
 For citations please refer to: https://libxc.gitlab.io

 This ORCA versions uses:
   CBLAS   interface :  Fast vector & matrix operations
   LAPACKE interface :  Fast linear algebra routines
   SCALAPACK package :  Parallel linear algebra routines
   Shared memory     :  Shared parallel matrices
   BLAS/LAPACK       :  OpenBLAS 0.3.27  USE64BITINT DYNAMIC_ARCH NO_AFFINITY SapphireRapids SINGLE_THREADED
        Core in use  :  SapphireRapids
   Copyright (c) 2011-2014, The OpenBLAS Project




***************************************
The coordinates will be read from file: xtb_opt.xyz
***************************************


Your calculation utilizes the geometrical counterpoise correction gCP
Please cite in your paper:
H.Kruse, S. Grimme J.Chem.Phys., 136, (2012), 154101 
   

Your calculation utilizes the atom-pairwise dispersion correction
based on EEQ partial charges (D4)


Your calculation utilizes the SMD solvation module
Please cite in your paper:
A.V. Marenich, C.J. Cramer, D.G. Truhlar J. Phys. Chem. B, 113, (2009), 6378 

================================================================================

----- Orbital basis set information -----
Your calculation utilizes the basis: def2-mTZVPP
   Stefan Grimme, Andreas Hansen, Sebastian Ehlert, and Jan-Michael Mewes 
   J. Chem. Phys. 154, 064103 (2021). DOI: 10.1063/5.0040021

----- AuxJ basis set information -----
Your calculation utilizes the auxiliary basis: def2/J
   F. Weigend, Phys. Chem. Chem. Phys. 8, 1057 (2006).

================================================================================
                                        WARNINGS
                       Please study these warnings very carefully!
================================================================================

WARNING: Old DensityContainer found on disk!
         Will remove this file - 
         If you want to keep old densities, please start your calculation with a different basename. 

Using LibXC functional ID 497 : Re-regularized SCAN exchange by Furness et al
[ 1]  J. W. Furness, A. D. Kaplan, J. Ning, J. P. Perdew, and J. Sun.,  J. Phys. Chem. Lett. 11, 8208-8215 (2020)
[ 2]  J. W. Furness, A. D. Kaplan, J. Ning, J. P. Perdew, and J. Sun.,  J. Phys. Chem. Lett. 11, 9248-9248 (2020)
Using LibXC functional ID 498 : Re-regularized SCAN correlation by Furness et al
[ 1]  J. W. Furness, A. D. Kaplan, J. Ning, J. P. Perdew, and J. Sun.,  J. Phys. Chem. Lett. 11, 8208-8215 (2020)
[ 2]  J. W. Furness, A. D. Kaplan, J. Ning, J. P. Perdew, and J. Sun.,  J. Phys. Chem. Lett. 11, 9248-9248 (2020)
Using LibXC functional ID 497 : Re-regularized SCAN exchange by Furness et al
[ 1]  J. W. Furness, A. D. Kaplan, J. Ning, J. P. Perdew, and J. Sun.,  J. Phys. Chem. Lett. 11, 8208-8215 (2020)
[ 2]  J. W. Furness, A. D. Kaplan, J. Ning, J. P. Perdew, and J. Sun.,  J. Phys. Chem. Lett. 11, 9248-9248 (2020)
Using LibXC functional ID 498 : Re-regularized SCAN correlation by Furness et al
[ 1]  J. W. Furness, A. D. Kaplan, J. Ning, J. P. Perdew, and J. Sun.,  J. Phys. Chem. Lett. 11, 8208-8215 (2020)
[ 2]  J. W. Furness, A. D. Kaplan, J. Ning, J. P. Perdew, and J. Sun.,  J. Phys. Chem. Lett. 11, 9248-9248 (2020)

================================================================================
                                       INPUT FILE
================================================================================
NAME = xtb_opt.inp
|  1> ! r2scan-3c def2/J RI DEFGRID2 scfconv7 ENGRAD tightSCF miniprint
|  2> %cpcm
|  3>     smd true
|  4>     smdsolvent "water"
|  5> end
|  6> * xyzfile 0 1 xtb_opt.xyz
|  7> 
|  8>                          ****END OF INPUT****
================================================================================

                     *******************************
                     * Energy+Gradient Calculation *
                     *******************************

---------------------------------
CARTESIAN COORDINATES (ANGSTROEM)
---------------------------------
  C      3.240960   -0.053235    1.005519
  C      1.922652   -0.089988    0.313614
  C      1.349090    1.025247   -0.195137
  C      0.035790    1.020493   -0.819543
  O     -0.407999    2.033490   -1.383833
  C     -0.784173   -0.248118   -0.703084
  H     -1.520480   -0.242991   -1.516570
  C      0.160587   -1.445689   -0.860307
  C      1.258739   -1.427947    0.199131
  C     -1.571474   -0.237692    0.638595
  C     -2.548565    0.939168    0.697188
  C     -2.328591   -1.552395    0.838393
  H      3.624396    0.964082    1.111520
  H      3.970964   -0.658032    0.453441
  H      3.153442   -0.511417    1.998807
  H      1.861690    1.983647   -0.143915
  H     -0.395794   -2.385926   -0.824805
  H      0.627878   -1.389775   -1.851446
  H      0.854181   -1.689310    1.188985
  H      2.022057   -2.185499   -0.014690
  H     -0.850465   -0.125213    1.460136
  H     -3.250860    0.898564   -0.142913
  H     -2.038254    1.904146    0.663438
  H     -3.130216    0.901201    1.622073
  H     -2.948723   -1.492130    1.739118
  H     -1.656424   -2.406942    0.957096
  H     -2.990743   -1.752502   -0.013208

----------------------------
CARTESIAN COORDINATES (A.U.)
----------------------------
  NO LB      ZA    FRAG     MASS         X           Y           Z
   0 C     6.0000    0    12.011    6.124526   -0.100600    1.900156
   1 C     6.0000    0    12.011    3.633287   -0.170053    0.592644
   2 C     6.0000    0    12.011    2.549410    1.937436   -0.368755
   3 C     6.0000    0    12.011    0.067633    1.928452   -1.548711
   4 O     8.0000    0    15.999   -0.771006    3.842738   -2.615065
   5 C     6.0000    0    12.011   -1.481873   -0.468875   -1.328636
   6 H     1.0000    0     1.008   -2.873291   -0.459186   -2.865902
   7 C     6.0000    0    12.011    0.303465   -2.731957   -1.625744
   8 C     6.0000    0    12.011    2.378672   -2.698428    0.376303
   9 C     6.0000    0    12.011   -2.969655   -0.449172    1.206769
  10 C     6.0000    0    12.011   -4.816091    1.774770    1.317495
  11 C     6.0000    0    12.011   -4.400400   -2.933601    1.584333
  12 H     1.0000    0     1.008    6.849115    1.821851    2.100468
  13 H     1.0000    0     1.008    7.504034   -1.243500    0.856880
  14 H     1.0000    0     1.008    5.959142   -0.966439    3.777198
  15 H     1.0000    0     1.008    3.518085    3.748549   -0.271959
  16 H     1.0000    0     1.008   -0.747942   -4.508746   -1.558656
  17 H     1.0000    0     1.008    1.186517   -2.626294   -3.498727
  18 H     1.0000    0     1.008    1.614168   -3.192333    2.246856
  19 H     1.0000    0     1.008    3.821135   -4.129995   -0.027759
  20 H     1.0000    0     1.008   -1.607146   -0.236619    2.759258
  21 H     1.0000    0     1.008   -6.143235    1.698039   -0.270067
  22 H     1.0000    0     1.008   -3.851743    3.598314    1.253715
  23 H     1.0000    0     1.008   -5.915250    1.703022    3.065274
  24 H     1.0000    0     1.008   -5.572279   -2.819717    3.286456
  25 H     1.0000    0     1.008   -3.130188   -4.548462    1.808650
  26 H     1.0000    0     1.008   -5.651686   -3.311749   -0.024960

------------------------------------------------------------------------------
                   ___                                                        
                  /   \      - P O W E R E D   B Y -                         
                 /     \                                                     
                 |  |  |   _    _      __       _____    __    __             
                 |  |  |  | |  | |    /  \     |  _  \  |  |  /  |          
                  \  \/   | |  | |   /    \    | | | |  |  | /  /          
                 / \  \   | |__| |  /  /\  \   | |_| |  |  |/  /          
                |  |  |   |  __  | /  /__\  \  |    /   |      \           
                |  |  |   | |  | | |   __   |  |    \   |  |\   \          
                \     /   | |  | | |  |  |  |  | |\  \  |  | \   \       
                 \___/    |_|  |_| |__|  |__|  |_| \__\ |__|  \__/        
                                                                              
                      - O R C A' S   B I G   F R I E N D -                    
                                      &                                       
                       - I N T E G R A L  F E E D E R -                       
                                                                              
 v1 FN, 2020, v2 2021, v3 2022-2024                                           
------------------------------------------------------------------------------


----------------------
SHARK INTEGRAL PACKAGE
----------------------

Number of atoms                             ...     27
Number of basis functions                   ...    294
Number of shells                            ...    148
Maximum angular momentum                    ...      2
Integral batch strategy                     ... SHARK/LIBINT Hybrid
RI-J (if used) integral strategy            ... SPLIT-RIJ (Revised 2003 algorithm where possible)
Printlevel                                  ...      1
Contraction scheme used                     ... SEGMENTED contraction
Prescreening option                         ... SCHWARTZ
   Thresh                                   ... 3.000e-11
   Tcut                                     ... 1.000e-12
   Tpresel                                  ... 1.000e-12 
Coulomb Range Separation                    ... NOT USED
Exchange Range Separation                   ... NOT USED
Multipole approximations                    ... NOT USED
Finite Nucleus Model                        ... NOT USED
CABS basis                                  ... NOT available
Auxiliary Coulomb fitting basis             ... AVAILABLE
   # of basis functions in Aux-J            ...    715
   # of shells in Aux-J                     ...    245
   Maximum angular momentum in Aux-J        ...      4
Auxiliary J/K fitting basis                 ... NOT available
Auxiliary Correlation fitting basis         ... NOT available
Auxiliary 'external' fitting basis          ... NOT available

Checking pre-screening integrals            ... done (  0.0 sec) Dimension = 148
Check shell pair data                       ... done (  0.0 sec)
Shell pair information
Shell pair cut-off parameter TPreSel        ...   1.0e-12
Total number of shell pairs                 ...     11026
Shell pairs after pre-screening             ...      9694
Total number of primitive shell pairs       ...     39350
Primitive shell pairs kept                  ...     23916
          la=0 lb=0:   3310 shell pairs
          la=1 lb=0:   3759 shell pairs
          la=1 lb=1:   1100 shell pairs
          la=2 lb=0:    923 shell pairs
          la=2 lb=1:    528 shell pairs
          la=2 lb=2:     74 shell pairs

Calculating one electron integrals          ... done (  0.0 sec)
Calculating RI/J V-Matrix + Cholesky decomp.... done (  0.1 sec)
Calculating Nuclear repulsion               ... done (  0.0 sec) ENN=    643.266669122105 Eh

Diagonalization of the overlap matrix:
Smallest eigenvalue                        ... 5.828e-05
Time for diagonalization                   ...    0.007 sec
Threshold for overlap eigenvalues          ... 1.000e-07
Number of eigenvalues below threshold      ... 0
Time for construction of square roots      ...    0.017 sec
Total time needed                          ...    0.032 sec

-------------------
DFT GRID GENERATION
-------------------

General Integration Accuracy     IntAcc      ... 4.388
Radial Grid Type                 RadialGrid  ... OptM3 with GC (2021)
Angular Grid (max. ang.)         AngularGrid ... 4 (Lebedev-302)
Angular grid pruning method      GridPruning ... 4 (adaptive)
Weight generation scheme         WeightScheme... mBecke (2022)
Basis function cutoff            BFCut       ... 1.0000e-11
Integration weight cutoff        WCut        ... 1.0000e-14
Partially contracted basis set               ... off
Rotationally invariant grid construction     ... off
Angular grids for H and He will be reduced by one unit
Diffuse basis detected: some atoms will have their outermost
                        angular grid increased by 1.

Total number of grid points                  ...   116825
Total number of batches                      ...     1837
Average number of points per batch           ...       63
Average number of grid points per atom       ...     4327
Initializing property integral containers    ... done (  0.0 sec)

SHARK setup successfully completed in   1.5 seconds

Maximum memory used throughout the entire STARTUP-calculation: 55.6 MB
Occupation numbers will be reassigned to an Aufbau configuration
             **** ENERGY FILE WAS UPDATED (xtb_opt.en.tmp) ****
Finished Guess after   0.3 sec
Maximum memory used throughout the entire GUESS-calculation: 23.2 MB
--------------------
CPCM SOLVATION MODEL
--------------------
CPCM parameters:
  Epsilon                                         ...      78.3550
  Refrac                                          ...       1.3328
  Rsolv                                           ...       1.3000
  Surface type                                    ... GAUSSIAN VDW
  Discretization scheme                           ... Constant charge density
    Threshold for H atoms                         ...       5.0000 (charges/Ang^2)
    Threshold for non-H atoms                     ...       5.0000 (charges/Ang^2)
  Epsilon function type                           ...         CPCM
Solvent:                                          ... WATER
SMD-CDS solvent descriptors:
  Soln                                            ...       1.3328
  Soln25                                          ...       1.3323
  Sola                                            ...       0.0000
  Solb                                            ...       0.0000
  Solg                                            ...       0.0000
  Solc                                            ...       0.0000
  Solh                                            ...       0.0000
Radii:
  Scheme                                          ... Element-dependent radii
  Radius for C  used is    3.4960 Bohr (=   1.8500 Ang.)
  Radius for O  used is    2.8724 Bohr (=   1.5200 Ang.)
  Radius for H  used is    2.2677 Bohr (=   1.2000 Ang.)
Calculating surface                               ...        done! (  0.0s)
Cavity surface points                             ...         1919
Cavity Volume                                     ...    1173.3752
Cavity Surface-area                               ...     713.4436
Calculating surface distance matrix               ...        done! (  0.0s)
Performing Cholesky decomposition & store         ...        done! (  0.1s)
Overall time for CPCM initialization              ...                 0.2s

----------------------------------------D-I-I-S--------------------------------------------
Iteration    Energy (Eh)           Delta-E    RMSDP     MaxDP     DIISErr   Damp  Time(sec)
-------------------------------------------------------------------------------------------
               ***  Starting incremental Fock matrix formation  ***
                              *** Initializing SOSCF ***
---------------------------------------S-O-S-C-F--------------------------------------
Iteration    Energy (Eh)           Delta-E    RMSDP     MaxDP     MaxGrad    Time(sec)
--------------------------------------------------------------------------------------
    1    -465.8141064986762103     0.00e+00  1.46e-06  4.09e-05  1.01e-05     5.0
               *** Restarting incremental Fock matrix formation ***
    2    -465.8141064992626070    -5.86e-10  2.00e-06  4.49e-05  1.32e-05     4.9
                  *** Gradient check signals convergence ***

               *****************************************************
               *                     SUCCESS                       *
               *           SCF CONVERGED AFTER   2 CYCLES          *
               *****************************************************


SMD CDS free energy correction energy :                 4.91071     Kcal/mol
Total Energy after SMD CDS correction =              -465.806280790 Eh
             **** ENERGY FILE WAS UPDATED (xtb_opt.en.tmp) ****

----------------
TOTAL SCF ENERGY
----------------

Total Energy       :       -465.80628078986285 Eh          -12675.23330 eV

Components:
Nuclear Repulsion  :        643.26666912210453 Eh           17504.17596 eV
Electronic Energy  :      -1109.05601449262076 Eh          -30178.94842 eV
One Electron Energy:      -1905.66173776774690 Eh          -51855.69218 eV
Two Electron Energy:        796.60572327512614 Eh           21676.74375 eV
CPCM Dielectric    :         -0.02476112874630 Eh              -0.67378 eV
SMD CDS (Gcds)     :          0.00782570939976 Eh               0.21295 eV

Virial components:
Potential Energy   :       -929.33832064026410 Eh          -25288.58135 eV
Kinetic Energy     :        463.53203985040130 Eh           12613.34805 eV
Virial Ratio       :          2.00490632953915

DFT components:
N(Alpha)           :       42.000149256461 electrons
N(Beta)            :       42.000149256461 electrons
N(Total)           :       84.000298512922 electrons
E(X)               :      -66.009794295885 Eh       
E(C)               :       -2.668936519147 Eh       
E(XC)              :      -68.678730815032 Eh       

CPCM Solvation Model Properties:
Surface-charge          :         -0.05532877114998
Corrected charge        :         -0.00000000000000
Outlying charge corr.   :          0.00021357871133 Eh               0.00581 eV
Free-energy (cav+disp)  :          0.00782570939976 Eh               0.21295 eV

---------------
SCF CONVERGENCE
---------------

  Last Energy change         ...    5.8640e-10  Tolerance :   1.0000e-07
  Last MAX-Density change    ...    4.4907e-05  Tolerance :   1.0000e-07
  Last RMS-Density change    ...    2.0008e-06  Tolerance :   5.0000e-09
  Last DIIS Error            ...    3.7121e-05  Tolerance :   1.0000e-07
  Last Orbital Gradient      ...    1.3229e-05  Tolerance :   1.0000e-04
  Last Orbital Rotation      ...    6.1967e-05  Tolerance :   1.0000e-04


----------------
ORBITAL ENERGIES
----------------

  NO   OCC          E(Eh)            E(eV) 
   0   2.0000     -18.936588      -515.2908 
   1   2.0000     -10.114447      -275.2281 
   2   2.0000     -10.068046      -273.9655 
   3   2.0000     -10.037525      -273.1350 
   4   2.0000     -10.034948      -273.0648 
   5   2.0000     -10.033841      -273.0347 
   6   2.0000     -10.028167      -272.8803 
   7   2.0000     -10.027922      -272.8736 
   8   2.0000     -10.026465      -272.8340 
   9   2.0000     -10.012264      -272.4476 
  10   2.0000     -10.010660      -272.4039 
  11   2.0000      -0.995020       -27.0759 
  12   2.0000      -0.816820       -22.2268 
  13   2.0000      -0.770892       -20.9770 
  14   2.0000      -0.718120       -19.5410 
  15   2.0000      -0.694146       -18.8887 
  16   2.0000      -0.652817       -17.7641 
  17   2.0000      -0.642584       -17.4856 
  18   2.0000      -0.581776       -15.8309 
  19   2.0000      -0.545229       -14.8364 
  20   2.0000      -0.530536       -14.4366 
  21   2.0000      -0.474048       -12.8995 
  22   2.0000      -0.443361       -12.0645 
  23   2.0000      -0.431254       -11.7350 
  24   2.0000      -0.421373       -11.4662 
  25   2.0000      -0.408765       -11.1231 
  26   2.0000      -0.403488       -10.9795 
  27   2.0000      -0.389084       -10.5875 
  28   2.0000      -0.369137       -10.0447 
  29   2.0000      -0.365295        -9.9402 
  30   2.0000      -0.358505        -9.7554 
  31   2.0000      -0.351311        -9.5597 
  32   2.0000      -0.346189        -9.4203 
  33   2.0000      -0.342837        -9.3291 
  34   2.0000      -0.329253        -8.9594 
  35   2.0000      -0.313896        -8.5416 
  36   2.0000      -0.303188        -8.2502 
  37   2.0000      -0.297286        -8.0896 
  38   2.0000      -0.286606        -7.7990 
  39   2.0000      -0.276850        -7.5335 
  40   2.0000      -0.238570        -6.4918 
  41   2.0000      -0.216306        -5.8860 
  42   0.0000      -0.080850        -2.2000 
  43   0.0000       0.030749         0.8367 
  44   0.0000       0.076535         2.0826 
  45   0.0000       0.105652         2.8749 
  46   0.0000       0.109629         2.9832 
  47   0.0000       0.114962         3.1283 
  48   0.0000       0.123729         3.3668 
  49   0.0000       0.126971         3.4551 
  50   0.0000       0.133566         3.6345 
  51   0.0000       0.141824         3.8592 
  52   0.0000       0.143660         3.9092 
*Only the first 10 virtual orbitals were printed.
Total SCF time: 0 days 0 hours 0 min 10 sec 
Finished LeanSCF after  10.7 sec

Maximum memory used throughout the entire LEANSCF-calculation: 48.9 MB


-------------------------------------------------------------------------------
                          DFT DISPERSION CORRECTION                            
                                                                               
                                DFTD4 V3.4.0                                   
-------------------------------------------------------------------------------
-------------------------   ----------------
Dispersion correction           -0.009779625
-------------------------   ----------------

------------------   -----------------
gCP correction             0.011353109
------------------   -----------------

-------------------------   --------------------
FINAL SINGLE POINT ENERGY      -465.804707306260
-------------------------   --------------------

------------------------------------------------------------------------------
                         ORCA SCF GRADIENT CALCULATION
------------------------------------------------------------------------------

Nuc. rep. gradient        (SHARK) ... done (  0.0 sec)
HCore & Overlap gradient  (SHARK) ... done (  0.5 sec)
Split-RIJ-J gradient      (SHARK) ... done (  2.7 sec)
XC gradient                       ... done ( 10.0 sec)
CPCM gradient                     ... done (  2.0 sec)
SMD gradient                      ... done (  0.0 sec)
Dispersion correction             ... done (  0.0 sec)

-------------------
DISPERSION GRADIENT
-------------------

   1   C   :    0.000128390    0.000006091    0.000055058
   2   C   :    0.000131590    0.000004358    0.000017986
   3   C   :    0.000094964    0.000089734   -0.000025274
   4   C   :    0.000007182    0.000092428   -0.000076028
   5   O   :   -0.000010193    0.000128137   -0.000086396
   6   C   :   -0.000040073   -0.000005520   -0.000054136
   7   H   :   -0.000024964    0.000004310   -0.000041286
   8   C   :    0.000014162   -0.000092591   -0.000073393
   9   C   :    0.000078636   -0.000087349    0.000007379
  10   C   :   -0.000092914   -0.000003785    0.000038058
  11   C   :   -0.000122844    0.000066767    0.000043454
  12   C   :   -0.000111795   -0.000081276    0.000049281
  13   H   :    0.000042408    0.000013068    0.000019198
  14   H   :    0.000046026   -0.000002009    0.000013544
  15   H   :    0.000044838   -0.000001040    0.000030426
  16   H   :    0.000033471    0.000053424   -0.000007479
  17   H   :   -0.000000547   -0.000054606   -0.000027237
  18   H   :    0.000013543   -0.000033285   -0.000048251
  19   H   :    0.000030988   -0.000042408    0.000021087
  20   H   :    0.000037419   -0.000043144   -0.000003282
  21   H   :   -0.000041352    0.000001356    0.000033427
  22   H   :   -0.000048261    0.000024033    0.000006557
  23   H   :   -0.000041797    0.000043552    0.000014767
  24   H   :   -0.000041601    0.000022163    0.000029238
  25   H   :   -0.000040020   -0.000023346    0.000030241
  26   H   :   -0.000040388   -0.000047875    0.000024219
  27   H   :   -0.000046866   -0.000031186    0.000008844

Difference to translation invariance:
           :   -0.0000000000   -0.0000000000   -0.0000000000

Difference to rotation invariance:
           :    0.0000000000   -0.0000000000    0.0000000000

Norm of the Dispersion gradient    ...    0.0004798486
RMS gradient                       ...    0.0000533165
MAX gradient                       ...    0.0001315904
gCP correction                   ... done

------------------
CARTESIAN GRADIENT
------------------

   1   C   :    0.000200765   -0.000152797    0.000044780
   2   C   :   -0.000218191    0.000148148   -0.000094605
   3   C   :    0.000332416   -0.000325580   -0.000007750
   4   C   :   -0.000083227    0.000301574   -0.000015993
   5   O   :   -0.000053411    0.000123229    0.000151663
   6   C   :   -0.000199970   -0.000482558    0.000286369
   7   H   :   -0.000122148   -0.000043336   -0.000005331
   8   C   :   -0.000282506    0.000115749   -0.000253628
   9   C   :    0.000080226   -0.000175697    0.000167831
  10   C   :    0.000573159    0.000086438   -0.000668662
  11   C   :   -0.000679874    0.000996415    0.000493941
  12   C   :   -0.000097680   -0.000022897    0.000157599
  13   H   :    0.000046278    0.000205050    0.000037549
  14   H   :   -0.000068253   -0.000014902   -0.000024779
  15   H   :   -0.000041374   -0.000030558    0.000081565
  16   H   :    0.000004928    0.000191608   -0.000061537
  17   H   :    0.000026788   -0.000040375   -0.000006313
  18   H   :    0.000053001    0.000002490    0.000013527
  19   H   :   -0.000072056    0.000002224    0.000011749
  20   H   :    0.000061172   -0.000036957    0.000012168
  21   H   :    0.000215224    0.000103456    0.000196359
  22   H   :    0.000508119    0.000033103    0.000471400
  23   H   :   -0.000481865   -0.000835235   -0.000015146
  24   H   :    0.000319177    0.000046821   -0.001022489
  25   H   :   -0.000082454    0.000011725    0.000109966
  26   H   :    0.000151300   -0.000152902    0.000078762
  27   H   :   -0.000089542   -0.000054238   -0.000138994

Difference to translation invariance:
           :   -0.0000000000   -0.0000000000    0.0000000000

Difference to rotation invariance:
           :   -0.0006505111   -0.0003970348   -0.0000600038

Norm of the Cartesian gradient     ...    0.0025469546
RMS gradient                       ...    0.0002829950
MAX gradient                       ...    0.0010224894

-------
TIMINGS
-------

Total SCF gradient time     ....       16.781 sec

Densities                   ....       0.001 sec  (  0.0%)
One electron gradient       ....       0.502 sec  (  3.0%)
RI-J Coulomb gradient       ....       2.715 sec  ( 16.2%)
XC gradient                 ....      10.032 sec  ( 59.8%)
CPCM gradient               ....       1.993 sec  ( 11.9%)
   A-Matrix (El+Nuc)        ....       0.091 sec  (  0.5%)
   Potential                ....       1.902 sec  ( 11.3%)
SMD gradient                ....       0.013 sec  (  0.1%)

Maximum memory used throughout the entire SCFGRAD-calculation: 44.7 MB

------------------------------------------------------------------------------
                              ORCA PROPERTY CALCULATIONS
------------------------------------------------------------------------------

GBWName                                 ... xtb_opt.gbw
Number of atoms                         ...     27
Number of basis functions               ...    294
Max core memory                         ...   1024 MB

Electric properties:
Dipole moment                           ... YES
Quadrupole moment                       ...  NO
Static polarizability (Dipole/Dipole)   ...  NO
Static polarizability (Dipole/Quad.)    ...  NO
Static polarizability (Quad./Quad.)     ...  NO
Static polarizability (Velocity)        ...  NO

Atomic electric properties:
Dipole moment                           ...  NO
Quadrupole moment                       ...  NO
Static polarizability                   ...  NO

Choice of electric origin               ... Center of mass
Position of electric origin             ...    -0.004817    -0.007255    -0.025008

General magnetic properties:
Magnetizability                         ...  NO

EPR properties:
g-Tensor (aka g-matrix)                 ...  NO
Zero-Field splitting spin-orbit         ...  NO
Zero-field splitting spin-spin          ...  NO
Hyperfine couplings                     ...  NO (   0 nuclei)
Quadrupole couplings                    ...  NO (   0 nuclei)
Contact density                         ...  NO (   0 nuclei)

NMR properties:
Chemical shifts                         ...  NO (   0 nuclei)
Spin-rotation constants                 ...  NO (   0 nuclei)
Spin-spin couplings                     ...  NO (   0 nuclei,    0 pairs)

Choice of magnetic origin               ... GIAO
Position of magnetic origin             ...     0.000000     0.000000     0.000000

Properties with geometric perturbations:
SCF Hessian                             ...  NO
IR spectrum                             ...  NO
VCD spectrum                            ...  NO
X-ray spectroscopy properties:
SCF XES/XAS/RIXS spectra                ...  NO


-------------
DIPOLE MOMENT
-------------

Method             : SCF
Type of density    : Electron Density
Multiplicity       :   1
Irrep              :   0
Energy             :  -465.8062807898628535 Eh
Relativity type    : 
Basis              : AO
                                X                 Y                 Z
Electronic contribution:      3.650629260       5.370319352      -5.064548467
Nuclear contribution   :     -2.470183934      -7.594123691       6.452028764
                        -----------------------------------------
Total Dipole Moment    :      1.180445326      -2.223804339       1.387480297
                        -----------------------------------------
Magnitude (a.u.)       :      2.874692763
Magnitude (Debye)      :      7.306888315



--------------------
Rotational spectrum 
--------------------
 
Rotational constants in cm-1:             0.051237             0.029156             0.022999 
Rotational constants in MHz :          1536.052309           874.089592           689.501673 

Dipole components along the rotational axes: 
x,y,z [a.u.] :     1.212143    -2.571084     0.429065 
x,y,z [Debye]:     3.081022    -6.535176     1.090595 

 

Dipole moment calculation done in   0.0 sec 

Maximum memory used throughout the entire PROP-calculation: 22.0 MB

--------------------------------
SUGGESTED CITATIONS FOR THIS RUN
--------------------------------

Below you find a list of papers that are relevant to this ORCA run
We neither can nor want to force you to cite these papers, but we appreciate if you do
You receive ORCA, which is the product of decades of hard work by many enthusiastic individuals, for free
The only thing we kindly ask in return is that you cite our papers,
We deeply appreciate it, if you show your appreciation for ORCA by not just citing the generic ORCA reference.

Please note that relegating all ORCA citations to the supporting information does *not* help us.
SI sections are not indexed - citations you put there will not count into any citation statistics
But we need these citations in order to attract the funding resources that allow us to do what we are doing

Therefore, if you are a happy ORCA user, please consider citing a few of the papers listed below in the main body of your paper

In addition to the list printed below, the program has created the file xtb_opt.bibtex that contains the list in bibtex format
You can import this file easily into all common literature databanks and citation aid programs


List of essential papers. We consider these as the minimum necessary citations

  1. Neese,F.
     Software update: the ORCA program system, version 5.0
     WIRES Comput. Molec. Sci., 2022 12(1)e1606
     doi.org/10.1002/wcms.1606
  2. Grimme,S.; Hansen,A.; Ehlert,S.; Mewes,J.
     r2SCAN-3c: A 'Swiss army knife' composite electronic-structure method
     J. Chem. Phys., 2021 154 064103
     doi.org/10.1063/5.0040021

List of papers to cite with high priority. The work reported in these papers was absolutely
necessary for this run to complete.
Our perspective: the developers of density functionals and basis sets usually get cited in chemistry papers
Good! But without the algorithms to do something with them, the functionals or basis sets would not do anything.
Hence, in our opinion, the algorithm design and method developments papers are equally worthy of getting cited

  1. Neese,F.
     An improvement of the resolution of the identity approximation for the formation of the Coulomb matrix
     J. Comp. Chem., 2003 24(14)1740-1747
     doi.org/10.1002/jcc.10318
  2. Garcia-Rates,M.; Neese,F.
     Effect of the Solute Cavity on the Solvation Energy and its Derivatives within the Framework of the Gaussian Charge Scheme
     J. Comput. Chem., 2020 41 922-939
     doi.org/10.1002/jcc.26139
  3. Neese,F.
     The SHARK Integral Generation and Digestion System
     J. Comp. Chem., 2022  1-16
     doi.org/10.1002/jcc.26942
  4. Lehtola,S.; Steigemann,C.; Oliveira,M.; Marques,M.
     Recent developments in Libxc - A comprehensive library of functionals for density functional theory
     Software X, 2018 7 
     doi.org/10.1016/j.softx.2017.11.002
  5. Caldeweyher,E.; Bannwarth,C.; Grimme,S.
     Extension of the D3 dispersion coefficient model
     J. Chem. Phys., 2017 147 034112-XXXX
     doi.org/10.1063/1.4993215
  6. Caldeweyher,E.; Ehlert,S.; Hansen,A.; Neugebauer,H.; Spicher,S.; Bannwarth,C.; Grimme,S.
     A generally applicable atomic-charge dependent London dispersion correction
     J. Chem. Phys., 2019 150 154122-XXXX
     doi.org/10.1063/1.5090222
  7. Caldeweyher,E.; Mewes,J.; Ehlert,S.; Grimme,S.
     Extension and evaluation of the D4 London-dispersion model for periodic systems
     Phys. Chem. Chem. Phys., 2020 22(16)8499-8512
     doi.org/10.1039/D0CP00502A

List of suggested additional citations. These are papers that are important in the 'surrounding' of 
of this run, or papers that preceded the highly important papers. If you like your results we are grateful for a citation.

  1. Neese,F.
     The ORCA program system
     WIRES Comput. Molec. Sci., 2012 2(1)73-78
     doi.org/10.1002/wcms.81
  2. Neese,F.
     Software update: the ORCA program system, version 4.0
     WIRES Comput. Molec. Sci., 2018 8(1)1-6
     doi.org/10.1002/wcms.1327
  3. Neese,F.; Wennmohs,F.; Becker,U.; Riplinger,C.
     The ORCA quantum chemistry program package
     J. Chem. Phys., 2020 152 Art. No. L224108
     doi.org/10.1063/5.0004608

List of optional additional citations

  1. Neese,F.
     Approximate second-order SCF convergence for spin unrestricted wavefunctions
     Chem. Phys. Lett., 2000 325(1-3)93-98
     doi.org/10.1016/s0009-2614(00)00662-x

Timings for individual modules:

Sum of individual times          ...       29.601 sec (=   0.493 min)
Startup calculation              ...        1.534 sec (=   0.026 min)   5.2 %
SCF iterations                   ...       11.065 sec (=   0.184 min)  37.4 %
Property calculations            ...        0.115 sec (=   0.002 min)   0.4 %
SCF Gradient evaluation          ...       16.886 sec (=   0.281 min)  57.0 %
                             ****ORCA TERMINATED NORMALLY****
TOTAL RUN TIME: 0 days 0 hours 0 minutes 30 seconds 357 msec
  ------------------------------------------------------------------------
          * successful ORCA run, taking over control again...

         :::::::::::::::::::::::::::::::::::::::::::::::::::::
         ::                  ORCA SUMMARY                   ::
         :::::::::::::::::::::::::::::::::::::::::::::::::::::
         :: total energy            -465.804707306260 Eh    ::
         :: gradient norm              0.002546954630 Eh/a0 ::
         :: HOMO-LUMO gap              0.000000000000 eV    ::
         :::::::::::::::::::::::::::::::::::::::::::::::::::::

      ----------------------------------------------------------- 
     |                       L-ANC optimizer                     |
      ----------------------------------------------------------- 
          low memory version by Sebastian Ehlert

          ...................................................
          :                      SETUP                      :
          :.................................................:
          :   energy convergence        0.5000000E-05 Eh    :
          :   grad. convergence         0.1000000E-02 Eh/a0 :
          :   optimization log               true           :
          :   writing optlog all                1     steps :
          :   Hessian reset                     8     steps :
          :   maximium step len.        1.0000000     a0    :
          :   LBFGS images                      8           :
          ...................................................
 * calculating model hessian...
Using Lindh-Hessian (1995)
 Shifting diagonal of input Hessian by   1.000000000000000E-002
 Lowest  eigenvalues of input Hessian
    0.000000    0.000000    0.000000    0.000000    0.000000    0.000000
    0.011437    0.011530    0.013972    0.017321    0.018588    0.018819
    0.019507    0.021290    0.022237    0.025395    0.026074    0.028842
 Highest eigenvalues
    1.238464    1.267564    1.375266    1.607839    1.773692    2.104409
 

........................................................................
.............................. CYCLE    1 ..............................
........................................................................
                         * ORCA takes the control...
  ------------------------------------------------------------------------

                                 *****************
                                 * O   R   C   A *
                                 *****************

                                            #,                                       
                                            ###                                      
                                            ####                                     
                                            #####                                    
                                            ######                                   
                                           ########,                                 
                                     ,,################,,,,,                         
                               ,,#################################,,                 
                          ,,##########################################,,             
                       ,#########################################, ''#####,          
                    ,#############################################,,   '####,        
                  ,##################################################,,,,####,       
                ,###########''''           ''''###############################       
              ,#####''   ,,,,##########,,,,          '''####'''          '####       
            ,##' ,,,,###########################,,,                        '##       
           ' ,,###''''                  '''############,,,                           
         ,,##''                                '''############,,,,        ,,,,,,###''
      ,#''                                            '''#######################'''  
     '                                                          ''''####''''         
             ,#######,   #######,   ,#######,      ##                                
            ,#'     '#,  ##    ##  ,#'     '#,    #''#        ,####,   ,####,        
            ##       ##  ##   ,#'  ##            #'  '#       #'       #'  '#        
            ##       ##  #######   ##           ,######,      #####,   #    #        
            '#,     ,#'  ##    ##  '#,     ,#' ,#      #,     #,   #   #,  ,#        
             '#######'   ##     ##  '#######'  #'      '#     '####' # '####'        



                #########################################################
                #                        -***-                          #
                #          Department of theory and spectroscopy        #
                #                                                       #
                #                      Frank Neese                      #
                #                                                       #
                #     Directorship, Architecture, Infrastructure        #
                #                    SHARK, DRIVERS                     #
                #        Core code/Algorithms in most modules           #
                #                                                       #
                #        Max Planck Institute fuer Kohlenforschung      #
                #                Kaiser Wilhelm Platz 1                 #
                #                 D-45470 Muelheim/Ruhr                 #
                #                      Germany                          #
                #                                                       #
                #                  All rights reserved                  #
                #                        -***-                          #
                #########################################################


                         Program Version 6.0.0  -   RELEASE  -


 With contributions from (in alphabetic order):
   Daniel Aravena         : Magnetic Suceptibility
   Michael Atanasov       : Ab Initio Ligand Field Theory (pilot matlab implementation)
   Alexander A. Auer      : GIAO ZORA, VPT2 properties, NMR spectrum
   Ute Becker             : All parallelization in ORCA, NUMFREQ, NUMCALC
   Giovanni Bistoni       : ED, misc. LED, open-shell LED, HFLD
   Martin Brehm           : Molecular dynamics
   Dmytro Bykov           : pre 5.0 version of the SCF Hessian
   Marcos Casanova-Páez   : Triplet and SCS-CIS(D). UHF-(DLPNO)-IP/EA/STEOM-CCSD. UHF-CVS-IP/STEOM-CCSD
   Vijay G. Chilkuri      : MRCI spin determinant printing, contributions to CSF-ICE
   Pauline Colinet        : FMM embedding
   Dipayan Datta          : RHF DLPNO-CCSD density
   Achintya Kumar Dutta   : EOM-CC, STEOM-CC
   Nicolas Foglia         : Exact transition moments, OPA infrastructure, MCD improvements
   Dmitry Ganyushin       : Spin-Orbit,Spin-Spin,Magnetic field MRCI
   Miquel Garcia          : C-PCM and meta-GGA Hessian, CCSD/C-PCM, Gaussian charge scheme
   Tiago L. C. Gouveia    : GS-ROHF, GS-ROCIS
   Yang Guo               : DLPNO-NEVPT2, F12-NEVPT2, CIM, IAO-localization
   Andreas Hansen         : Spin unrestricted coupled pair/coupled cluster methods
   Ingolf Harden          : AUTO-CI MPn and infrastructure 
   Benjamin Helmich-Paris : MC-RPA, TRAH-(SCF,CASSCF), AVAS, COSX integrals, SCF dyn. polar.
   Lee Huntington         : MR-EOM, pCC
   Robert Izsak           : Overlap fitted RIJCOSX, COSX-SCS-MP3, EOM
   Riya Kayal             : Wick's Theorem for AUTO-CI, AUTO-CI UHF-CCSDT
   Emily Kempfer          : AUTO-CI, RHF CISDT and CCSDT
   Christian Kollmar      : KDIIS, OOCD, Brueckner-CCSD(T), CCSD density, CASPT2, CASPT2-K, improved NEVPT2
   Axel Koslowski         : Symmetry handling
   Simone Kossmann        : Meta GGA functionals, TD-DFT gradient, OOMP2, (MP2 Hessian; deprecated post 5.0)
   Lucas Lang             : DCDCAS
   Marvin Lechner         : AUTO-CI (C++ implementation), FIC-MRCC
   Spencer Leger          : CASSCF response
   Dagmar Lenk            : GEPOL surface, SMD, ORCA-2-JSON
   Dimitrios Liakos       : Extrapolation schemes; Compound Job, initial MDCI parallelization
   Dimitrios Manganas     : Further ROCIS development; embedding schemes. LFT, Crystal Embedding
   Dimitrios Pantazis     : SARC Basis sets
   Anastasios Papadopoulos: AUTO-CI, single reference methods and gradients
   Taras Petrenko         : pre 6.0 DFT Hessian and TD-DFT gradient, (ASA, deprecated), ECA, 1-Electron XAS/XES, NRVS
   Peter Pinski           : DLPNO-MP2, DLPNO-MP2 Gradient
   Christoph Reimann      : Effective Core Potentials
   Marius Retegan         : Local ZFS, SOC
   Christoph Riplinger    : Optimizer, TS searches, QM/MM, DLPNO-CCSD(T), (RO)-DLPNO pert. Triples
   Michael Roemelt        : Original ROCIS implementation
   Masaaki Saitow         : Open-shell DLPNO-CCSD energy and density
   Barbara Sandhoefer     : DKH picture change effects
   Kantharuban Sivalingam : CASSCF convergence/infrastructure, NEVPT2 and variants, FIC-MRCI
   Bernardo de Souza      : ESD, SOC TD-DFT
   Georgi Stoychev        : AutoAux, RI-MP2 NMR, DLPNO-MP2 response, X2C
   Van Anh Tran           : RI-MP2 g-tensors
   Willem Van den Heuvel  : Paramagnetic NMR
   Zikuan Wang            : NOTCH, Electric field optimization 
   Frank Wennmohs         : Technical directorship and infrastructure
   Hang Xu                : AUTO-CI-Response properties 


 We gratefully acknowledge several colleagues who have allowed us to
 interface, adapt or use parts of their codes:
   Stefan Grimme, W. Hujo, H. Kruse, P. Pracht,  : VdW corrections, initial TS optimization,
                  C. Bannwarth, S. Ehlert,         DFT functionals, gCP, sTDA/sTD-DF
                  L. Wittmann, M. Mueller
   Ed Valeev, F. Pavosevic, A. Kumar             : LibInt (2-el integral package), F12 methods
   Garnet Chan, S. Sharma, J. Yang, R. Olivares  : DMRG
   Ulf Ekstrom                                   : XCFun DFT Library
   Mihaly Kallay                                 : mrcc  (arbitrary order and MRCC methods)
   Frank Weinhold                                : gennbo (NPA and NBO analysis)
   Simon Mueller                                 : openCOSMO-RS
   Christopher J. Cramer and Donald G. Truhlar   : smd solvation model
   Lars Goerigk                                  : TD-DFT with DH, B97 family of functionals
   V. Asgeirsson, H. Jonsson                     : NEB implementation
   FAccTs GmbH                                   : IRC, NEB, NEB-TS, DLPNO-Multilevel, CI-OPT
                                                   MM, QMMM, 2- and 3-layer-ONIOM, Crystal-QMMM,
                                                   LR-CPCM, SF, NACMEs, symmetry and pop. for TD-DFT,
                                                   nearIR, NL-DFT gradient (VV10), updates on ESD,
                                                   ML-optimized integration grids, MBIS, APM,
                                                   GOAT, DOCKER, SOLVATOR, interface openCOSMO-RS
   S Lehtola, MJT Oliveira, MAL Marques          : LibXC Library
   Liviu Ungur et al                             : ANISO software


 Your calculation uses the libint2 library for the computation of 2-el integrals
 For citations please refer to: http://libint.valeyev.net

 Your ORCA version has been built with support for libXC version: 6.2.2
 For citations please refer to: https://libxc.gitlab.io

 This ORCA versions uses:
   CBLAS   interface :  Fast vector & matrix operations
   LAPACKE interface :  Fast linear algebra routines
   SCALAPACK package :  Parallel linear algebra routines
   Shared memory     :  Shared parallel matrices
   BLAS/LAPACK       :  OpenBLAS 0.3.27  USE64BITINT DYNAMIC_ARCH NO_AFFINITY SapphireRapids SINGLE_THREADED
        Core in use  :  SapphireRapids
   Copyright (c) 2011-2014, The OpenBLAS Project




***************************************
The coordinates will be read from file: xtb_opt.xyz
***************************************


Your calculation utilizes the geometrical counterpoise correction gCP
Please cite in your paper:
H.Kruse, S. Grimme J.Chem.Phys., 136, (2012), 154101 
   

Your calculation utilizes the atom-pairwise dispersion correction
based on EEQ partial charges (D4)


Your calculation utilizes the SMD solvation module
Please cite in your paper:
A.V. Marenich, C.J. Cramer, D.G. Truhlar J. Phys. Chem. B, 113, (2009), 6378 

================================================================================

----- Orbital basis set information -----
Your calculation utilizes the basis: def2-mTZVPP
   Stefan Grimme, Andreas Hansen, Sebastian Ehlert, and Jan-Michael Mewes 
   J. Chem. Phys. 154, 064103 (2021). DOI: 10.1063/5.0040021

----- AuxJ basis set information -----
Your calculation utilizes the auxiliary basis: def2/J
   F. Weigend, Phys. Chem. Chem. Phys. 8, 1057 (2006).

================================================================================
                                        WARNINGS
                       Please study these warnings very carefully!
================================================================================

WARNING: Old DensityContainer found on disk!
         Will remove this file - 
         If you want to keep old densities, please start your calculation with a different basename. 

Using LibXC functional ID 497 : Re-regularized SCAN exchange by Furness et al
[ 1]  J. W. Furness, A. D. Kaplan, J. Ning, J. P. Perdew, and J. Sun.,  J. Phys. Chem. Lett. 11, 8208-8215 (2020)
[ 2]  J. W. Furness, A. D. Kaplan, J. Ning, J. P. Perdew, and J. Sun.,  J. Phys. Chem. Lett. 11, 9248-9248 (2020)
Using LibXC functional ID 498 : Re-regularized SCAN correlation by Furness et al
[ 1]  J. W. Furness, A. D. Kaplan, J. Ning, J. P. Perdew, and J. Sun.,  J. Phys. Chem. Lett. 11, 8208-8215 (2020)
[ 2]  J. W. Furness, A. D. Kaplan, J. Ning, J. P. Perdew, and J. Sun.,  J. Phys. Chem. Lett. 11, 9248-9248 (2020)
Using LibXC functional ID 497 : Re-regularized SCAN exchange by Furness et al
[ 1]  J. W. Furness, A. D. Kaplan, J. Ning, J. P. Perdew, and J. Sun.,  J. Phys. Chem. Lett. 11, 8208-8215 (2020)
[ 2]  J. W. Furness, A. D. Kaplan, J. Ning, J. P. Perdew, and J. Sun.,  J. Phys. Chem. Lett. 11, 9248-9248 (2020)
Using LibXC functional ID 498 : Re-regularized SCAN correlation by Furness et al
[ 1]  J. W. Furness, A. D. Kaplan, J. Ning, J. P. Perdew, and J. Sun.,  J. Phys. Chem. Lett. 11, 8208-8215 (2020)
[ 2]  J. W. Furness, A. D. Kaplan, J. Ning, J. P. Perdew, and J. Sun.,  J. Phys. Chem. Lett. 11, 9248-9248 (2020)

================================================================================
                                       INPUT FILE
================================================================================
NAME = xtb_opt.inp
|  1> ! r2scan-3c def2/J RI DEFGRID2 scfconv7 ENGRAD tightSCF miniprint
|  2> %cpcm
|  3>     smd true
|  4>     smdsolvent "water"
|  5> end
|  6> * xyzfile 0 1 xtb_opt.xyz
|  7> 
|  8>                          ****END OF INPUT****
================================================================================

                     *******************************
                     * Energy+Gradient Calculation *
                     *******************************

---------------------------------
CARTESIAN COORDINATES (ANGSTROEM)
---------------------------------
  C      3.240981   -0.052671    1.005399
  C      1.922610   -0.089509    0.314113
  C      1.348443    1.025679   -0.194232
  C      0.036281    1.019889   -0.820574
  O     -0.406529    2.031779   -1.387570
  C     -0.784070   -0.247898   -0.703116
  H     -1.519466   -0.242909   -1.517293
  C      0.160717   -1.445737   -0.859300
  C      1.258992   -1.427402    0.199549
  C     -1.572543   -0.238303    0.638503
  C     -2.548146    0.939085    0.697924
  C     -2.329699   -1.552671    0.837029
  H      3.624413    0.964376    1.111196
  H      3.971242   -0.657300    0.453428
  H      3.154015   -0.510778    1.998654
  H      1.861279    1.983738   -0.143312
  H     -0.395911   -2.385783   -0.823363
  H      0.627527   -1.390383   -1.850700
  H      0.855136   -1.688990    1.189588
  H      2.022192   -2.184857   -0.014656
  H     -0.851757   -0.127010    1.459937
  H     -3.253096    0.898746   -0.141146
  H     -2.036336    1.904601    0.663215
  H     -3.127304    0.901522    1.625906
  H     -2.949337   -1.492903    1.737936
  H     -1.657913   -2.407304    0.954801
  H     -2.992057   -1.751772   -0.014312

----------------------------
CARTESIAN COORDINATES (A.U.)
----------------------------
  NO LB      ZA    FRAG     MASS         X           Y           Z
   0 C     6.0000    0    12.011    6.124567   -0.099535    1.899930
   1 C     6.0000    0    12.011    3.633207   -0.169147    0.593587
   2 C     6.0000    0    12.011    2.548187    1.938253   -0.367045
   3 C     6.0000    0    12.011    0.068561    1.927310   -1.550660
   4 O     8.0000    0    15.999   -0.768229    3.839507   -2.622128
   5 C     6.0000    0    12.011   -1.481679   -0.468460   -1.328698
   6 H     1.0000    0     1.008   -2.871375   -0.459031   -2.867269
   7 C     6.0000    0    12.011    0.303710   -2.732046   -1.623842
   8 C     6.0000    0    12.011    2.379150   -2.697399    0.377093
   9 C     6.0000    0    12.011   -2.971676   -0.450328    1.206595
  10 C     6.0000    0    12.011   -4.815297    1.774614    1.318885
  11 C     6.0000    0    12.011   -4.402494   -2.934123    1.581756
  12 H     1.0000    0     1.008    6.849148    1.822406    2.099856
  13 H     1.0000    0     1.008    7.504560   -1.242117    0.856854
  14 H     1.0000    0     1.008    5.960224   -0.965230    3.776909
  15 H     1.0000    0     1.008    3.517308    3.748721   -0.270820
  16 H     1.0000    0     1.008   -0.748164   -4.508476   -1.555931
  17 H     1.0000    0     1.008    1.185853   -2.627443   -3.497316
  18 H     1.0000    0     1.008    1.615972   -3.191728    2.247995
  19 H     1.0000    0     1.008    3.821389   -4.128781   -0.027695
  20 H     1.0000    0     1.008   -1.609588   -0.240015    2.758881
  21 H     1.0000    0     1.008   -6.147461    1.698383   -0.266727
  22 H     1.0000    0     1.008   -3.848118    3.599174    1.253295
  23 H     1.0000    0     1.008   -5.909748    1.703629    3.072518
  24 H     1.0000    0     1.008   -5.573440   -2.821178    3.284222
  25 H     1.0000    0     1.008   -3.133001   -4.549145    1.804313
  26 H     1.0000    0     1.008   -5.654168   -3.310370   -0.027046

------------------------------------------------------------------------------
                   ___                                                        
                  /   \      - P O W E R E D   B Y -                         
                 /     \                                                     
                 |  |  |   _    _      __       _____    __    __             
                 |  |  |  | |  | |    /  \     |  _  \  |  |  /  |          
                  \  \/   | |  | |   /    \    | | | |  |  | /  /          
                 / \  \   | |__| |  /  /\  \   | |_| |  |  |/  /          
                |  |  |   |  __  | /  /__\  \  |    /   |      \           
                |  |  |   | |  | | |   __   |  |    \   |  |\   \          
                \     /   | |  | | |  |  |  |  | |\  \  |  | \   \       
                 \___/    |_|  |_| |__|  |__|  |_| \__\ |__|  \__/        
                                                                              
                      - O R C A' S   B I G   F R I E N D -                    
                                      &                                       
                       - I N T E G R A L  F E E D E R -                       
                                                                              
 v1 FN, 2020, v2 2021, v3 2022-2024                                           
------------------------------------------------------------------------------


----------------------
SHARK INTEGRAL PACKAGE
----------------------

Number of atoms                             ...     27
Number of basis functions                   ...    294
Number of shells                            ...    148
Maximum angular momentum                    ...      2
Integral batch strategy                     ... SHARK/LIBINT Hybrid
RI-J (if used) integral strategy            ... SPLIT-RIJ (Revised 2003 algorithm where possible)
Printlevel                                  ...      1
Contraction scheme used                     ... SEGMENTED contraction
Prescreening option                         ... SCHWARTZ
   Thresh                                   ... 3.000e-11
   Tcut                                     ... 1.000e-12
   Tpresel                                  ... 1.000e-12 
Coulomb Range Separation                    ... NOT USED
Exchange Range Separation                   ... NOT USED
Multipole approximations                    ... NOT USED
Finite Nucleus Model                        ... NOT USED
CABS basis                                  ... NOT available
Auxiliary Coulomb fitting basis             ... AVAILABLE
   # of basis functions in Aux-J            ...    715
   # of shells in Aux-J                     ...    245
   Maximum angular momentum in Aux-J        ...      4
Auxiliary J/K fitting basis                 ... NOT available
Auxiliary Correlation fitting basis         ... NOT available
Auxiliary 'external' fitting basis          ... NOT available

Checking pre-screening integrals            ... done (  0.0 sec) Dimension = 148
Check shell pair data                       ... done (  0.0 sec)
Shell pair information
Shell pair cut-off parameter TPreSel        ...   1.0e-12
Total number of shell pairs                 ...     11026
Shell pairs after pre-screening             ...      9693
Total number of primitive shell pairs       ...     39350
Primitive shell pairs kept                  ...     23914
          la=0 lb=0:   3309 shell pairs
          la=1 lb=0:   3759 shell pairs
          la=1 lb=1:   1100 shell pairs
          la=2 lb=0:    923 shell pairs
          la=2 lb=1:    528 shell pairs
          la=2 lb=2:     74 shell pairs

Calculating one electron integrals          ... done (  0.0 sec)
Calculating RI/J V-Matrix + Cholesky decomp.... done (  0.1 sec)
Calculating Nuclear repulsion               ... done (  0.0 sec) ENN=    643.258920886964 Eh

Diagonalization of the overlap matrix:
Smallest eigenvalue                        ... 5.845e-05
Time for diagonalization                   ...    0.007 sec
Threshold for overlap eigenvalues          ... 1.000e-07
Number of eigenvalues below threshold      ... 0
Time for construction of square roots      ...    0.016 sec
Total time needed                          ...    0.031 sec

-------------------
DFT GRID GENERATION
-------------------

General Integration Accuracy     IntAcc      ... 4.388
Radial Grid Type                 RadialGrid  ... OptM3 with GC (2021)
Angular Grid (max. ang.)         AngularGrid ... 4 (Lebedev-302)
Angular grid pruning method      GridPruning ... 4 (adaptive)
Weight generation scheme         WeightScheme... mBecke (2022)
Basis function cutoff            BFCut       ... 1.0000e-11
Integration weight cutoff        WCut        ... 1.0000e-14
Partially contracted basis set               ... off
Rotationally invariant grid construction     ... off
Angular grids for H and He will be reduced by one unit
Diffuse basis detected: some atoms will have their outermost
                        angular grid increased by 1.

Total number of grid points                  ...   116825
Total number of batches                      ...     1836
Average number of points per batch           ...       63
Average number of grid points per atom       ...     4327
Initializing property integral containers    ... done (  0.0 sec)

SHARK setup successfully completed in   1.5 seconds

Maximum memory used throughout the entire STARTUP-calculation: 55.6 MB
Occupation numbers will be reassigned to an Aufbau configuration
             **** ENERGY FILE WAS UPDATED (xtb_opt.en.tmp) ****
Finished Guess after   0.3 sec
Maximum memory used throughout the entire GUESS-calculation: 23.2 MB
--------------------
CPCM SOLVATION MODEL
--------------------
CPCM parameters:
  Epsilon                                         ...      78.3550
  Refrac                                          ...       1.3328
  Rsolv                                           ...       1.3000
  Surface type                                    ... GAUSSIAN VDW
  Discretization scheme                           ... Constant charge density
    Threshold for H atoms                         ...       5.0000 (charges/Ang^2)
    Threshold for non-H atoms                     ...       5.0000 (charges/Ang^2)
  Epsilon function type                           ...         CPCM
Solvent:                                          ... WATER
SMD-CDS solvent descriptors:
  Soln                                            ...       1.3328
  Soln25                                          ...       1.3323
  Sola                                            ...       0.0000
  Solb                                            ...       0.0000
  Solg                                            ...       0.0000
  Solc                                            ...       0.0000
  Solh                                            ...       0.0000
Radii:
  Scheme                                          ... Element-dependent radii
  Radius for C  used is    3.4960 Bohr (=   1.8500 Ang.)
  Radius for O  used is    2.8724 Bohr (=   1.5200 Ang.)
  Radius for H  used is    2.2677 Bohr (=   1.2000 Ang.)
Calculating surface                               ...        done! (  0.0s)
Cavity surface points                             ...         1917
Cavity Volume                                     ...    1173.4158
Cavity Surface-area                               ...     713.5208
Calculating surface distance matrix               ...        done! (  0.0s)
Performing Cholesky decomposition & store         ...        done! (  0.1s)
Overall time for CPCM initialization              ...                 0.1s

----------------------------------------D-I-I-S--------------------------------------------
Iteration    Energy (Eh)           Delta-E    RMSDP     MaxDP     DIISErr   Damp  Time(sec)
-------------------------------------------------------------------------------------------
               ***  Starting incremental Fock matrix formation  ***
                              *** Initializing SOSCF ***
---------------------------------------S-O-S-C-F--------------------------------------
Iteration    Energy (Eh)           Delta-E    RMSDP     MaxDP     MaxGrad    Time(sec)
--------------------------------------------------------------------------------------
    1    -465.8141074715429113     0.00e+00  3.34e-05  1.22e-03  8.26e-05     5.0
               *** Restarting incremental Fock matrix formation ***
    2    -465.8141162581428034    -8.79e-06  1.42e-05  4.90e-04  8.82e-05     5.0
    3    -465.8141168133488463    -5.55e-07  8.00e-06  4.26e-04  7.46e-05     3.6
    4    -465.8141169489369986    -1.36e-07  5.31e-06  3.43e-04  7.00e-05     3.5
    5    -465.8141170366598089    -8.77e-08  3.34e-06  2.67e-04  3.23e-05     3.4
                 **** Energy Check signals convergence ****

               *****************************************************
               *                     SUCCESS                       *
               *           SCF CONVERGED AFTER   5 CYCLES          *
               *****************************************************


SMD CDS free energy correction energy :                 4.91045     Kcal/mol
Total Energy after SMD CDS correction =              -465.806291739 Eh
             **** ENERGY FILE WAS UPDATED (xtb_opt.en.tmp) ****

----------------
TOTAL SCF ENERGY
----------------

Total Energy       :       -465.80629173939366 Eh          -12675.23359 eV

Components:
Nuclear Repulsion  :        643.25892088696401 Eh           17503.96512 eV
Electronic Energy  :      -1109.04825147786460 Eh          -30178.73718 eV
One Electron Energy:      -1905.64574591654218 Eh          -51855.25702 eV
Two Electron Energy:        796.59749443867747 Eh           21676.51984 eV
CPCM Dielectric    :         -0.02478644575925 Eh              -0.67447 eV
SMD CDS (Gcds)     :          0.00782529726614 Eh               0.21294 eV

Virial components:
Potential Energy   :       -929.33911469190662 Eh          -25288.60296 eV
Kinetic Energy     :        463.53282295251290 Eh           12613.36936 eV
Virial Ratio       :          2.00490465545115

DFT components:
N(Alpha)           :       42.000147592556 electrons
N(Beta)            :       42.000147592556 electrons
N(Total)           :       84.000295185111 electrons
E(X)               :      -66.009833038048 Eh       
E(C)               :       -2.668949107966 Eh       
E(XC)              :      -68.678782146014 Eh       

CPCM Solvation Model Properties:
Surface-charge          :         -0.05534082269687
Corrected charge        :         -0.00000000000000
Outlying charge corr.   :          0.00021366570617 Eh               0.00581 eV
Free-energy (cav+disp)  :          0.00782529726614 Eh               0.21294 eV

---------------
SCF CONVERGENCE
---------------

  Last Energy change         ...    8.7723e-08  Tolerance :   1.0000e-07
  Last MAX-Density change    ...    2.6662e-04  Tolerance :   1.0000e-07
  Last RMS-Density change    ...    3.3405e-06  Tolerance :   5.0000e-09
  Last DIIS Error            ...    1.3332e-03  Tolerance :   1.0000e-07
  Last Orbital Gradient      ...    3.2271e-05  Tolerance :   1.0000e-04
  Last Orbital Rotation      ...    8.4088e-05  Tolerance :   1.0000e-04


----------------
ORBITAL ENERGIES
----------------

  NO   OCC          E(Eh)            E(eV) 
[...]
  27   2.0000      -0.389200       -10.5907 
  28   2.0000      -0.369220       -10.0470 
  29   2.0000      -0.365374        -9.9423 
  30   2.0000      -0.358541        -9.7564 
  31   2.0000      -0.351354        -9.5608 
  32   2.0000      -0.346193        -9.4204 
  33   2.0000      -0.342597        -9.3225 
  34   2.0000      -0.329298        -8.9607 
  35   2.0000      -0.314031        -8.5452 
  36   2.0000      -0.303200        -8.2505 
  37   2.0000      -0.297173        -8.0865 
  38   2.0000      -0.286792        -7.8040 
  39   2.0000      -0.276686        -7.5290 
  40   2.0000      -0.238550        -6.4913 
  41   2.0000      -0.216445        -5.8898 
  42   0.0000      -0.080904        -2.2015 
  43   0.0000       0.030514         0.8303 
  44   0.0000       0.076601         2.0844 
  45   0.0000       0.105720         2.8768 
  46   0.0000       0.109664         2.9841 
  47   0.0000       0.114974         3.1286 
  48   0.0000       0.123736         3.3670 
  49   0.0000       0.127044         3.4570 
  50   0.0000       0.133649         3.6368 
  51   0.0000       0.141652         3.8546 
  52   0.0000       0.143459         3.9037 
*Only the first 10 virtual orbitals were printed.
Total SCF time: 0 days 0 hours 0 min 10 sec 
Finished LeanSCF after  10.7 sec

Maximum memory used throughout the entire LEANSCF-calculation: 49.0 MB


-------------------------------------------------------------------------------
                          DFT DISPERSION CORRECTION                            
                                                                               
                                DFTD4 V3.4.0                                   
-------------------------------------------------------------------------------
-------------------------   ----------------
Dispersion correction           -0.009777419
-------------------------   ----------------

------------------   -----------------
gCP correction             0.011352665
------------------   -----------------

-------------------------   --------------------
FINAL SINGLE POINT ENERGY      -465.804733039231
-------------------------   --------------------

------------------------------------------------------------------------------
                         ORCA SCF GRADIENT CALCULATION
------------------------------------------------------------------------------

Nuc. rep. gradient        (SHARK) ... done (  0.0 sec)
HCore & Overlap gradient  (SHARK) ... done (  0.5 sec)
Split-RIJ-J gradient      (SHARK) ... done (  2.7 sec)
XC gradient                       ... done ( 10.0 sec)
CPCM gradient                     ... done (  1.7 sec)
SMD gradient                      ... done (  0.0 sec)
Dispersion correction             ... done (  0.0 sec)

-------------------
DISPERSION GRADIENT
-------------------

   1   C   :    0.000128301    0.000006385    0.000055078
   2   C   :    0.000131556    0.000004489    0.000018274
   3   C   :    0.000094688    0.000089878   -0.000025050
   4   C   :    0.000007173    0.000092102   -0.000076436
   5   O   :   -0.000009965    0.000127518   -0.000087739
   6   C   :   -0.000040025   -0.000005757   -0.000054109
   7   H   :   -0.000024889    0.000004188   -0.000041344
   8   C   :    0.000014259   -0.000092760   -0.000073022
   9   C   :    0.000078950   -0.000087273    0.000007636
  10   C   :   -0.000092960   -0.000004132    0.000038098
  11   C   :   -0.000122814    0.000067175    0.000044282
  12   C   :   -0.000112171   -0.000081016    0.000048502
  13   H   :    0.000042369    0.000013195    0.000019190
  14   H   :    0.000046035   -0.000001900    0.000013540
  15   H   :    0.000044745   -0.000000933    0.000030393
  16   H   :    0.000033465    0.000053496   -0.000007438
  17   H   :   -0.000000463   -0.000054655   -0.000026998
  18   H   :    0.000013595   -0.000033413   -0.000048133
  19   H   :    0.000031245   -0.000042418    0.000021230
  20   H   :    0.000037439   -0.000043074   -0.000003183
  21   H   :   -0.000041369    0.000000945    0.000033431
  22   H   :   -0.000048155    0.000023952    0.000007095
  23   H   :   -0.000041859    0.000043638    0.000014829
  24   H   :   -0.000041479    0.000022490    0.000029650
  25   H   :   -0.000040091   -0.000023307    0.000029931
  26   H   :   -0.000040576   -0.000047823    0.000023730
  27   H   :   -0.000047004   -0.000030988    0.000008564

Difference to translation invariance:
           :   -0.0000000000   -0.0000000000    0.0000000000

Difference to rotation invariance:
           :   -0.0000000000   -0.0000000000    0.0000000000

Norm of the Dispersion gradient    ...    0.0004800011
RMS gradient                       ...    0.0000533335
MAX gradient                       ...    0.0001315559
gCP correction                   ... done

------------------
CARTESIAN GRADIENT
------------------

   1   C   :   -0.000060225   -0.000011676   -0.000055771
   2   C   :    0.000086796   -0.000051689    0.000048743
   3   C   :   -0.000074269    0.000021262   -0.000001172
   4   C   :    0.000016748   -0.000208356    0.000236197
   5   O   :   -0.000038594    0.000160065   -0.000207582
   6   C   :    0.000109644    0.000110236   -0.000163914
   7   H   :    0.000002334    0.000013570   -0.000010624
   8   C   :    0.000009294   -0.000065592    0.000084707
   9   C   :   -0.000003713    0.000031887   -0.000080179
  10   C   :   -0.000226736    0.000053413    0.000093944
  11   C   :    0.000077613   -0.000005278   -0.000084937
  12   C   :    0.000088863    0.000031207    0.000006725
  13   H   :    0.000035230    0.000021186   -0.000004742
  14   H   :   -0.000010552   -0.000019577    0.000005150
  15   H   :    0.000006056   -0.000005969    0.000004292
  16   H   :    0.000058945    0.000011189    0.000016274
  17   H   :   -0.000005524    0.000001563    0.000014670
  18   H   :   -0.000006413   -0.000008719    0.000007143
  19   H   :   -0.000005193    0.000015902    0.000019764
  20   H   :   -0.000000661   -0.000019908    0.000026204
  21   H   :    0.000027069    0.000014858    0.000038415
  22   H   :   -0.000008870    0.000006183    0.000096616
  23   H   :   -0.000104375   -0.000026376   -0.000003385
  24   H   :    0.000020141    0.000021209   -0.000094302
  25   H   :   -0.000008400   -0.000018536    0.000031298
  26   H   :    0.000046754   -0.000059413    0.000006747
  27   H   :   -0.000031964   -0.000012642   -0.000030280

Difference to translation invariance:
           :    0.0000000000    0.0000000000   -0.0000000000

Difference to rotation invariance:
           :   -0.0005977487   -0.0003185241   -0.0000922949

Norm of the Cartesian gradient     ...    0.0006337083
RMS gradient                       ...    0.0000704120
MAX gradient                       ...    0.0002361972

-------
TIMINGS
-------

Total SCF gradient time     ....       16.382 sec

Densities                   ....       0.001 sec  (  0.0%)
One electron gradient       ....       0.501 sec  (  3.1%)
RI-J Coulomb gradient       ....       2.708 sec  ( 16.5%)
XC gradient                 ....       9.961 sec  ( 60.8%)
CPCM gradient               ....       1.681 sec  ( 10.3%)
   A-Matrix (El+Nuc)        ....       0.092 sec  (  0.6%)
   Potential                ....       1.589 sec  (  9.7%)
SMD gradient                ....       0.011 sec  (  0.1%)

Maximum memory used throughout the entire SCFGRAD-calculation: 44.3 MB

------------------------------------------------------------------------------
                              ORCA PROPERTY CALCULATIONS
------------------------------------------------------------------------------

GBWName                                 ... xtb_opt.gbw
Number of atoms                         ...     27
Number of basis functions               ...    294
Max core memory                         ...   1024 MB

Electric properties:
Dipole moment                           ... YES
Quadrupole moment                       ...  NO
Static polarizability (Dipole/Dipole)   ...  NO
Static polarizability (Dipole/Quad.)    ...  NO
Static polarizability (Quad./Quad.)     ...  NO
Static polarizability (Velocity)        ...  NO

Atomic electric properties:
Dipole moment                           ...  NO
Quadrupole moment                       ...  NO
Static polarizability                   ...  NO

Choice of electric origin               ... Center of mass
Position of electric origin             ...    -0.004732    -0.009494    -0.028258

General magnetic properties:
Magnetizability                         ...  NO

EPR properties:
g-Tensor (aka g-matrix)                 ...  NO
Zero-Field splitting spin-orbit         ...  NO
Zero-field splitting spin-spin          ...  NO
Hyperfine couplings                     ...  NO (   0 nuclei)
Quadrupole couplings                    ...  NO (   0 nuclei)
Contact density                         ...  NO (   0 nuclei)

NMR properties:
Chemical shifts                         ...  NO (   0 nuclei)
Spin-rotation constants                 ...  NO (   0 nuclei)
Spin-spin couplings                     ...  NO (   0 nuclei,    0 pairs)

Choice of magnetic origin               ... GIAO
Position of magnetic origin             ...     0.000000     0.000000     0.000000

Properties with geometric perturbations:
SCF Hessian                             ...  NO
IR spectrum                             ...  NO
VCD spectrum                            ...  NO
X-ray spectroscopy properties:
SCF XES/XAS/RIXS spectra                ...  NO


-------------
DIPOLE MOMENT
-------------

Method             : SCF
Type of density    : Electron Density
Multiplicity       :   1
Irrep              :   0
Energy             :  -465.8063082856772894 Eh
Relativity type    : 
Basis              : AO
                                X                 Y                 Z
Electronic contribution:      3.649299566       5.346924208      -5.082763803
Nuclear contribution   :     -2.469726626      -7.565086180       6.492391050
                        -----------------------------------------
Total Dipole Moment    :      1.179572940      -2.218161972       1.409627247
                        -----------------------------------------
Magnitude (a.u.)       :      2.880743625
Magnitude (Debye)      :      7.322268384



--------------------
Rotational spectrum 
--------------------
 
Rotational constants in cm-1:             0.051188             0.029125             0.023015 
Rotational constants in MHz :          1534.592206           873.155773           689.980600 

Dipole components along the rotational axes: 
x,y,z [a.u.] :     1.203300    -2.579946     0.441170 
x,y,z [Debye]:     3.058546    -6.557702     1.121364 

 

Dipole moment calculation done in   0.0 sec 

Maximum memory used throughout the entire PROP-calculation: 22.0 MB

--------------------------------
SUGGESTED CITATIONS FOR THIS RUN
--------------------------------

Below you find a list of papers that are relevant to this ORCA run
We neither can nor want to force you to cite these papers, but we appreciate if you do
You receive ORCA, which is the product of decades of hard work by many enthusiastic individuals, for free
The only thing we kindly ask in return is that you cite our papers,
We deeply appreciate it, if you show your appreciation for ORCA by not just citing the generic ORCA reference.

Please note that relegating all ORCA citations to the supporting information does *not* help us.
SI sections are not indexed - citations you put there will not count into any citation statistics
But we need these citations in order to attract the funding resources that allow us to do what we are doing

Therefore, if you are a happy ORCA user, please consider citing a few of the papers listed below in the main body of your paper

In addition to the list printed below, the program has created the file xtb_opt.bibtex that contains the list in bibtex format
You can import this file easily into all common literature databanks and citation aid programs


List of essential papers. We consider these as the minimum necessary citations

  1. Neese,F.
     Software update: the ORCA program system, version 5.0
     WIRES Comput. Molec. Sci., 2022 12(1)e1606
     doi.org/10.1002/wcms.1606
  2. Grimme,S.; Hansen,A.; Ehlert,S.; Mewes,J.
     r2SCAN-3c: A 'Swiss army knife' composite electronic-structure method
     J. Chem. Phys., 2021 154 064103
     doi.org/10.1063/5.0040021

List of papers to cite with high priority. The work reported in these papers was absolutely
necessary for this run to complete.
Our perspective: the developers of density functionals and basis sets usually get cited in chemistry papers
Good! But without the algorithms to do something with them, the functionals or basis sets would not do anything.
Hence, in our opinion, the algorithm design and method developments papers are equally worthy of getting cited

  1. Neese,F.
     An improvement of the resolution of the identity approximation for the formation of the Coulomb matrix
     J. Comp. Chem., 2003 24(14)1740-1747
     doi.org/10.1002/jcc.10318
  2. Garcia-Rates,M.; Neese,F.
     Effect of the Solute Cavity on the Solvation Energy and its Derivatives within the Framework of the Gaussian Charge Scheme
     J. Comput. Chem., 2020 41 922-939
     doi.org/10.1002/jcc.26139
  3. Neese,F.
     The SHARK Integral Generation and Digestion System
     J. Comp. Chem., 2022  1-16
     doi.org/10.1002/jcc.26942
  4. Lehtola,S.; Steigemann,C.; Oliveira,M.; Marques,M.
     Recent developments in Libxc - A comprehensive library of functionals for density functional theory
     Software X, 2018 7 
     doi.org/10.1016/j.softx.2017.11.002
  5. Caldeweyher,E.; Bannwarth,C.; Grimme,S.
     Extension of the D3 dispersion coefficient model
     J. Chem. Phys., 2017 147 034112-XXXX
     doi.org/10.1063/1.4993215
  6. Caldeweyher,E.; Ehlert,S.; Hansen,A.; Neugebauer,H.; Spicher,S.; Bannwarth,C.; Grimme,S.
     A generally applicable atomic-charge dependent London dispersion correction
     J. Chem. Phys., 2019 150 154122-XXXX
     doi.org/10.1063/1.5090222
  7. Caldeweyher,E.; Mewes,J.; Ehlert,S.; Grimme,S.
     Extension and evaluation of the D4 London-dispersion model for periodic systems
     Phys. Chem. Chem. Phys., 2020 22(16)8499-8512
     doi.org/10.1039/D0CP00502A

List of suggested additional citations. These are papers that are important in the 'surrounding' of 
of this run, or papers that preceded the highly important papers. If you like your results we are grateful for a citation.

  1. Neese,F.
     The ORCA program system
     WIRES Comput. Molec. Sci., 2012 2(1)73-78
     doi.org/10.1002/wcms.81
  2. Neese,F.
     Software update: the ORCA program system, version 4.0
     WIRES Comput. Molec. Sci., 2018 8(1)1-6
     doi.org/10.1002/wcms.1327
  3. Neese,F.; Wennmohs,F.; Becker,U.; Riplinger,C.
     The ORCA quantum chemistry program package
     J. Chem. Phys., 2020 152 Art. No. L224108
     doi.org/10.1063/5.0004608

List of optional additional citations

  1. Neese,F.
     Approximate second-order SCF convergence for spin unrestricted wavefunctions
     Chem. Phys. Lett., 2000 325(1-3)93-98
     doi.org/10.1016/s0009-2614(00)00662-x

Timings for individual modules:

Sum of individual times          ...       29.050 sec (=   0.484 min)
Startup calculation              ...        1.501 sec (=   0.025 min)   5.2 %
SCF iterations                   ...       10.973 sec (=   0.183 min)  37.8 %
Property calculations            ...        0.100 sec (=   0.002 min)   0.3 %
SCF Gradient evaluation          ...       16.476 sec (=   0.275 min)  56.7 %
                             ****ORCA TERMINATED NORMALLY****
TOTAL RUN TIME: 0 days 0 hours 0 minutes 29 seconds 851 msec
  ------------------------------------------------------------------------
          * successful ORCA run, taking over control again...

         :::::::::::::::::::::::::::::::::::::::::::::::::::::
         ::                  ORCA SUMMARY                   ::
         :::::::::::::::::::::::::::::::::::::::::::::::::::::
         :: total energy            -465.804733039231 Eh    ::
         :: gradient norm              0.000633708259 Eh/a0 ::
         :: HOMO-LUMO gap              0.000000000000 eV    ::
         :::::::::::::::::::::::::::::::::::::::::::::::::::::

           -------------------------------------------------
          |                Property Printout                |
           -------------------------------------------------
           -------------------------------------------------
          |                Geometry Summary                 |
           -------------------------------------------------

      molecular mass/u    :      152.2338159
   center of mass at/Å    :       -0.0025056      -0.0050118      -0.0149620
  moments of inertia/u·Å² :        0.3293201E+03   0.5787797E+03   0.7324383E+03
rotational constants/cm⁻¹ :        0.5118920E-01   0.2912616E-01   0.2301577E-01

 * 22 selected distances

     #   Z          #   Z                                           value/Å
     2   6 C        3   6 C                                       1.3535287
     4   6 C        5   8 O                                       1.2419426
     6   6 C        7   1 H                                       1.0971074
     6   6 C        8   6 C                                       1.5340995 (max)
     8   6 C        9   6 C                                       1.5255813
    10   6 C       11   6 C                                       1.5295137
    10   6 C       12   6 C                                       1.5295711
     1   6 C       13   1 H                                       1.0920674
     1   6 C       14   1 H                                       1.0970899
     1   6 C       15   1 H                                       1.0972622
     3   6 C       16   1 H                                       1.0878656 (min)
     8   6 C       17   1 H                                       1.0930258
     8   6 C       18   1 H                                       1.0971717
     9   6 C       19   1 H                                       1.1008205
     9   6 C       20   1 H                                       1.0963956
    10   6 C       21   1 H                                       1.0983823
    11   6 C       22   1 H                                       1.0966716
    11   6 C       23   1 H                                       1.0935972
    11   6 C       24   1 H                                       1.0947938
    12   6 C       25   1 H                                       1.0951059
    12   6 C       26   1 H                                       1.0934141
    12   6 C       27   1 H                                       1.0969253

 * 3 distinct bonds (by element types)

   Z      Z             #   av. dist./Å        max./Å        min./Å
   1 H    6 C          16     1.0954810     1.1008205     1.0878656
   6 C    6 C           5     1.4944589     1.5340995     1.3535287
   6 C    8 O           1     1.2419426     1.2419426     1.2419426


optimized geometry written to: xtbopt.coord


           -------------------------------------------------
          | TOTAL ENERGY             -465.804733039231 Eh   |
          | GRADIENT NORM               0.000633708259 Eh/α |
           -------------------------------------------------

------------------------------------------------------------------------
 * finished run on 2025/04/06 at 11:48:31.916     
------------------------------------------------------------------------
 total:
 * wall-time:     0 d,  0 h,  3 min, 43.530 sec
 *  cpu-time:     0 d,  0 h,  0 min,  1.622 sec
 * ratio c/w:     0.007 speedup
 SCF:
 * wall-time:     0 d,  0 h,  0 min, 30.408 sec
 *  cpu-time:     0 d,  0 h,  0 min,  0.495 sec
 * ratio c/w:     0.016 speedup
 ANC optimizer:
 * wall-time:     0 d,  0 h,  3 min, 13.093 sec
 *  cpu-time:     0 d,  0 h,  0 min,  1.076 sec
 * ratio c/w:     0.006 speedup

