
                                 *****************
                                 * O   R   C   A *
                                 *****************

                                            #,                                       
                                            ###                                      
                                            ####                                     
                                            #####                                    
                                            ######                                   
                                           ########,                                 
                                     ,,################,,,,,                         
                               ,,#################################,,                 
                          ,,##########################################,,             
                       ,#########################################, ''#####,          
                    ,#############################################,,   '####,        
                  ,##################################################,,,,####,       
                ,###########''''           ''''###############################       
              ,#####''   ,,,,##########,,,,          '''####'''          '####       
            ,##' ,,,,###########################,,,                        '##       
           ' ,,###''''                  '''############,,,                           
         ,,##''                                '''############,,,,        ,,,,,,###''
      ,#''                                            '''#######################'''  
     '                                                          ''''####''''         
             ,#######,   #######,   ,#######,      ##                                
            ,#'     '#,  ##    ##  ,#'     '#,    #''#        ,####,   ,####,        
            ##       ##  ##   ,#'  ##            #'  '#       #'       #'  '#        
            ##       ##  #######   ##           ,######,      #####,   #    #        
            '#,     ,#'  ##    ##  '#,     ,#' ,#      #,     #,   #   #,  ,#        
             '#######'   ##     ##  '#######'  #'      '#     '####' # '####'        



                #########################################################
                #                        -***-                          #
                #          Department of theory and spectroscopy        #
                #                                                       #
                #                      Frank Neese                      #
                #                                                       #
                #     Directorship, Architecture, Infrastructure        #
                #                    SHARK, DRIVERS                     #
                #        Core code/Algorithms in most modules           #
                #                                                       #
                #        Max Planck Institute fuer Kohlenforschung      #
                #                Kaiser Wilhelm Platz 1                 #
                #                 D-45470 Muelheim/Ruhr                 #
                #                      Germany                          #
                #                                                       #
                #                  All rights reserved                  #
                #                        -***-                          #
                #########################################################


                         Program Version 6.0.0  -   RELEASE  -


 With contributions from (in alphabetic order):
   Daniel Aravena         : Magnetic Suceptibility
   Michael Atanasov       : Ab Initio Ligand Field Theory (pilot matlab implementation)
   Alexander A. Auer      : GIAO ZORA, VPT2 properties, NMR spectrum
   Ute Becker             : All parallelization in ORCA, NUMFREQ, NUMCALC
   Giovanni Bistoni       : ED, misc. LED, open-shell LED, HFLD
   Martin Brehm           : Molecular dynamics
   Dmytro Bykov           : pre 5.0 version of the SCF Hessian
   Marcos Casanova-Páez   : Triplet and SCS-CIS(D). UHF-(DLPNO)-IP/EA/STEOM-CCSD. UHF-CVS-IP/STEOM-CCSD
   Vijay G. Chilkuri      : MRCI spin determinant printing, contributions to CSF-ICE
   Pauline Colinet        : FMM embedding
   Dipayan Datta          : RHF DLPNO-CCSD density
   Achintya Kumar Dutta   : EOM-CC, STEOM-CC
   Nicolas Foglia         : Exact transition moments, OPA infrastructure, MCD improvements
   Dmitry Ganyushin       : Spin-Orbit,Spin-Spin,Magnetic field MRCI
   Miquel Garcia          : C-PCM and meta-GGA Hessian, CCSD/C-PCM, Gaussian charge scheme
   Tiago L. C. Gouveia    : GS-ROHF, GS-ROCIS
   Yang Guo               : DLPNO-NEVPT2, F12-NEVPT2, CIM, IAO-localization
   Andreas Hansen         : Spin unrestricted coupled pair/coupled cluster methods
   Ingolf Harden          : AUTO-CI MPn and infrastructure 
   Benjamin Helmich-Paris : MC-RPA, TRAH-(SCF,CASSCF), AVAS, COSX integrals, SCF dyn. polar.
   Lee Huntington         : MR-EOM, pCC
   Robert Izsak           : Overlap fitted RIJCOSX, COSX-SCS-MP3, EOM
   Riya Kayal             : Wick's Theorem for AUTO-CI, AUTO-CI UHF-CCSDT
   Emily Kempfer          : AUTO-CI, RHF CISDT and CCSDT
   Christian Kollmar      : KDIIS, OOCD, Brueckner-CCSD(T), CCSD density, CASPT2, CASPT2-K, improved NEVPT2
   Axel Koslowski         : Symmetry handling
   Simone Kossmann        : Meta GGA functionals, TD-DFT gradient, OOMP2, (MP2 Hessian; deprecated post 5.0)
   Lucas Lang             : DCDCAS
   Marvin Lechner         : AUTO-CI (C++ implementation), FIC-MRCC
   Spencer Leger          : CASSCF response
   Dagmar Lenk            : GEPOL surface, SMD, ORCA-2-JSON
   Dimitrios Liakos       : Extrapolation schemes; Compound Job, initial MDCI parallelization
   Dimitrios Manganas     : Further ROCIS development; embedding schemes. LFT, Crystal Embedding
   Dimitrios Pantazis     : SARC Basis sets
   Anastasios Papadopoulos: AUTO-CI, single reference methods and gradients
   Taras Petrenko         : pre 6.0 DFT Hessian and TD-DFT gradient, (ASA, deprecated), ECA, 1-Electron XAS/XES, NRVS
   Peter Pinski           : DLPNO-MP2, DLPNO-MP2 Gradient
   Christoph Reimann      : Effective Core Potentials
   Marius Retegan         : Local ZFS, SOC
   Christoph Riplinger    : Optimizer, TS searches, QM/MM, DLPNO-CCSD(T), (RO)-DLPNO pert. Triples
   Michael Roemelt        : Original ROCIS implementation
   Masaaki Saitow         : Open-shell DLPNO-CCSD energy and density
   Barbara Sandhoefer     : DKH picture change effects
   Kantharuban Sivalingam : CASSCF convergence/infrastructure, NEVPT2 and variants, FIC-MRCI
   Bernardo de Souza      : ESD, SOC TD-DFT
   Georgi Stoychev        : AutoAux, RI-MP2 NMR, DLPNO-MP2 response, X2C
   Van Anh Tran           : RI-MP2 g-tensors
   Willem Van den Heuvel  : Paramagnetic NMR
   Zikuan Wang            : NOTCH, Electric field optimization 
   Frank Wennmohs         : Technical directorship and infrastructure
   Hang Xu                : AUTO-CI-Response properties 


 We gratefully acknowledge several colleagues who have allowed us to
 interface, adapt or use parts of their codes:
   Stefan Grimme, W. Hujo, H. Kruse, P. Pracht,  : VdW corrections, initial TS optimization,
                  C. Bannwarth, S. Ehlert,         DFT functionals, gCP, sTDA/sTD-DF
                  L. Wittmann, M. Mueller
   Ed Valeev, F. Pavosevic, A. Kumar             : LibInt (2-el integral package), F12 methods
   Garnet Chan, S. Sharma, J. Yang, R. Olivares  : DMRG
   Ulf Ekstrom                                   : XCFun DFT Library
   Mihaly Kallay                                 : mrcc  (arbitrary order and MRCC methods)
   Frank Weinhold                                : gennbo (NPA and NBO analysis)
   Simon Mueller                                 : openCOSMO-RS
   Christopher J. Cramer and Donald G. Truhlar   : smd solvation model
   Lars Goerigk                                  : TD-DFT with DH, B97 family of functionals
   V. Asgeirsson, H. Jonsson                     : NEB implementation
   FAccTs GmbH                                   : IRC, NEB, NEB-TS, DLPNO-Multilevel, CI-OPT
                                                   MM, QMMM, 2- and 3-layer-ONIOM, Crystal-QMMM,
                                                   LR-CPCM, SF, NACMEs, symmetry and pop. for TD-DFT,
                                                   nearIR, NL-DFT gradient (VV10), updates on ESD,
                                                   ML-optimized integration grids, MBIS, APM,
                                                   GOAT, DOCKER, SOLVATOR, interface openCOSMO-RS
   S Lehtola, MJT Oliveira, MAL Marques          : LibXC Library
   Liviu Ungur et al                             : ANISO software


 Your calculation uses the libint2 library for the computation of 2-el integrals
 For citations please refer to: http://libint.valeyev.net

 Your ORCA version has been built with support for libXC version: 6.2.2
 For citations please refer to: https://libxc.gitlab.io

 This ORCA versions uses:
   CBLAS   interface :  Fast vector & matrix operations
   LAPACKE interface :  Fast linear algebra routines
   SCALAPACK package :  Parallel linear algebra routines
   Shared memory     :  Shared parallel matrices
   BLAS/LAPACK       :  OpenBLAS 0.3.27  USE64BITINT DYNAMIC_ARCH NO_AFFINITY SkylakeX SINGLE_THREADED
        Core in use  :  SkylakeX
   Copyright (c) 2011-2014, The OpenBLAS Project


Your calculation utilizes the geometrical counterpoise correction gCP
Please cite in your paper:
H.Kruse, S. Grimme J.Chem.Phys., 136, (2012), 154101 
   

Your calculation utilizes the DFT-NL dispersion correction.
Cite in your paper:
Vydrov, O. A.; Van Voorhis, T. J. Chem. Phys. 2010, 133, 244103
Hujo, W.; Grimme, S. J. Chem. Theory Comput. 2011, 7, 3866 
   

================================================================================

----- Orbital basis set information -----
Your calculation utilizes the basis: def2-TZVP
   F. Weigend and R. Ahlrichs, Phys. Chem. Chem. Phys. 7, 3297 (2005).

----- AuxJ basis set information -----
Your calculation utilizes the auxiliary basis: def2/J
   F. Weigend, Phys. Chem. Chem. Phys. 8, 1057 (2006).

================================================================================
                                        WARNINGS
                       Please study these warnings very carefully!
================================================================================


================================================================================
                                       INPUT FILE
================================================================================
NAME = sp_gas.inp
|  1> ! wb97x-v def2-tzvp def2/J RIJCOSX DEFGRID2 scfconv7 GCP(DFT/TZ) printgap
|  2> %output
|  3>     printlevel normal
|  4> end
|  5> * xyz 0 1
|  6> C -1.1755310279468136 0.2411589552584032 -8.383285544174764e-06
|  7> O 8.847609970968314e-06 -0.5685632437097337 -3.5293038378162785e-05
|  8> C 1.1755150393781777 0.24120763096677747 -5.516302103022723e-07
|  9> H -1.2147584378985232 0.8799450501305931 -0.8943550185045884
| 10> H -1.2147531698915321 0.8799020310997161 0.8943694479973772
| 11> H -2.0367555868809224 -0.4313993504222964 -2.2364921080699303e-05
| 12> H 2.0367684714850465 -0.4313141133954331 -9.823347227896632e-05
| 13> H 1.214746018389768 0.8798882477065095 0.8944215055326806
| 14> H 1.2146790617788468 0.8800602993244927 -0.8943023812824005
| 15> *
| 16> 
| 17>                          ****END OF INPUT****
================================================================================

                       ****************************
                       * Single Point Calculation *
                       ****************************

---------------------------------
CARTESIAN COORDINATES (ANGSTROEM)
---------------------------------
  C     -1.175531    0.241159   -0.000008
  O      0.000009   -0.568563   -0.000035
  C      1.175515    0.241208   -0.000001
  H     -1.214758    0.879945   -0.894355
  H     -1.214753    0.879902    0.894369
  H     -2.036756   -0.431399   -0.000022
  H      2.036768   -0.431314   -0.000098
  H      1.214746    0.879888    0.894422
  H      1.214679    0.880060   -0.894302

----------------------------
CARTESIAN COORDINATES (A.U.)
----------------------------
  NO LB      ZA    FRAG     MASS         X           Y           Z
   0 C     6.0000    0    12.011   -2.221432    0.455724   -0.000016
   1 O     8.0000    0    15.999    0.000017   -1.074429   -0.000067
   2 C     6.0000    0    12.011    2.221401    0.455816   -0.000001
   3 H     1.0000    0     1.008   -2.295561    1.662855   -1.690086
   4 H     1.0000    0     1.008   -2.295551    1.662774    1.690113
   5 H     1.0000    0     1.008   -3.848910   -0.815227   -0.000042
   6 H     1.0000    0     1.008    3.848935   -0.815066   -0.000186
   7 H     1.0000    0     1.008    2.295537    1.662748    1.690212
   8 H     1.0000    0     1.008    2.295411    1.663073   -1.689987

--------------------------------
INTERNAL COORDINATES (ANGSTROEM)
--------------------------------
 C      0   0   0     0.000000000000     0.00000000     0.00000000
 O      1   0   0     1.427425668555     0.00000000     0.00000000
 C      2   1   0     1.427425541864   110.87879956     0.00000000
 H      1   2   3     1.099746501982   111.02972728    60.60822099
 H      1   2   3     1.099746697401   111.03000131   299.39356345
 H      1   2   3     1.092722478787   107.45315123   180.00079642
 H      3   2   1     1.092722737247   107.45321778   180.00411949
 H      3   2   1     1.099746705498   111.02986963    60.61134644
 H      3   2   1     1.099746477620   111.02981443   299.39678270

---------------------------
INTERNAL COORDINATES (A.U.)
---------------------------
 C      0   0   0     0.000000000000     0.00000000     0.00000000
 O      1   0   0     2.697443590099     0.00000000     0.00000000
 C      2   1   0     2.697443350688   110.87879956     0.00000000
 H      1   2   3     2.078219705483   111.02972728    60.60822099
 H      1   2   3     2.078220074772   111.03000131   299.39356345
 H      1   2   3     2.064946225287   107.45315123   180.00079642
 H      3   2   1     2.064946713707   107.45321778   180.00411949
 H      3   2   1     2.078220090073   111.02986963    60.61134644
 H      3   2   1     2.078219659446   111.02981443   299.39678270

---------------------
BASIS SET INFORMATION
---------------------
There are 3 groups of distinct atoms

 Group   1 Type C   : 11s6p2d1f contracted to 5s3p2d1f pattern {62111/411/11/1}
 Group   2 Type O   : 11s6p2d1f contracted to 5s3p2d1f pattern {62111/411/11/1}
 Group   3 Type H   : 5s1p contracted to 3s1p pattern {311/1}

Atom   0C    basis set group =>   1
Atom   1O    basis set group =>   2
Atom   2C    basis set group =>   1
Atom   3H    basis set group =>   3
Atom   4H    basis set group =>   3
Atom   5H    basis set group =>   3
Atom   6H    basis set group =>   3
Atom   7H    basis set group =>   3
Atom   8H    basis set group =>   3
---------------------------------
AUXILIARY/J BASIS SET INFORMATION
---------------------------------
There are 3 groups of distinct atoms

 Group   1 Type C   : 12s5p4d2f1g contracted to 6s4p3d1f1g pattern {711111/2111/211/2/1}
 Group   2 Type O   : 12s5p4d2f1g contracted to 6s4p3d1f1g pattern {711111/2111/211/2/1}
 Group   3 Type H   : 5s2p1d contracted to 3s1p1d pattern {311/2/1}

Atom   0C    basis set group =>   1
Atom   1O    basis set group =>   2
Atom   2C    basis set group =>   1
Atom   3H    basis set group =>   3
Atom   4H    basis set group =>   3
Atom   5H    basis set group =>   3
Atom   6H    basis set group =>   3
Atom   7H    basis set group =>   3
Atom   8H    basis set group =>   3

Checking for AutoStart:
The File: sp_gas.gbw exists
Trying to determine its content:
     ... Fine, the file contains calculation information
     ... Fine, the calculation information was read
     ... Fine, the file contains a basis set
     ... Fine, the basis set was read
     ... Fine, the file contains a geometry
     ... Fine, the geometry was read
     ... Fine, the file contains a set of orbitals
     ... Fine, the orbitals can be read
     => possible old guess file was deleted
     => GBW file was renamed to GES file
     => GES file is set as startup file
     => Guess is set to MORead
     ... now leaving AutoStart

------------------------------------------------------------------------------
                             ORCA STARTUP CALCULATIONS
                           -- RI-GTO INTEGRALS CHOSEN --
------------------------------------------------------------------------------
------------------------------------------------------------------------------
                   ___                                                        
                  /   \      - P O W E R E D   B Y -                         
                 /     \                                                     
                 |  |  |   _    _      __       _____    __    __             
                 |  |  |  | |  | |    /  \     |  _  \  |  |  /  |          
                  \  \/   | |  | |   /    \    | | | |  |  | /  /          
                 / \  \   | |__| |  /  /\  \   | |_| |  |  |/  /          
                |  |  |   |  __  | /  /__\  \  |    /   |      \           
                |  |  |   | |  | | |   __   |  |    \   |  |\   \          
                \     /   | |  | | |  |  |  |  | |\  \  |  | \   \       
                 \___/    |_|  |_| |__|  |__|  |_| \__\ |__|  \__/        
                                                                              
                      - O R C A' S   B I G   F R I E N D -                    
                                      &                                       
                       - I N T E G R A L  F E E D E R -                       
                                                                              
 v1 FN, 2020, v2 2021, v3 2022-2024                                           
------------------------------------------------------------------------------


----------------------
SHARK INTEGRAL PACKAGE
----------------------

Number of atoms                             ...      9
Number of basis functions                   ...    129
Number of shells                            ...     57
Maximum angular momentum                    ...      3
Integral batch strategy                     ... SHARK/LIBINT Hybrid
RI-J (if used) integral strategy            ... SPLIT-RIJ (Revised 2003 algorithm where possible)
Printlevel                                  ...      1
Contraction scheme used                     ... SEGMENTED contraction
Prescreening option                         ... SCHWARTZ
   Thresh                                   ... 3.000e-11
   Tcut                                     ... 1.000e-12
   Tpresel                                  ... 1.000e-12 
Coulomb Range Separation                    ... NOT USED
Exchange Range Separation                   ... Long Range
   Mu parameter                             ... 3.000e-01
   Scaling (regular/separated)              ... 1.670e-01 8.330e-01
Multipole approximations                    ... NOT USED
Finite Nucleus Model                        ... NOT USED
CABS basis                                  ... NOT available
Auxiliary Coulomb fitting basis             ... AVAILABLE
   # of basis functions in Aux-J            ...    213
   # of shells in Aux-J                     ...     75
   Maximum angular momentum in Aux-J        ...      4
Auxiliary J/K fitting basis                 ... NOT available
Auxiliary Correlation fitting basis         ... NOT available
Auxiliary 'external' fitting basis          ... NOT available

Checking pre-screening integrals            ... done (  0.0 sec) Dimension = 57
Check shell pair data                       ... done (  0.0 sec)
Shell pair information
Shell pair cut-off parameter TPreSel        ...   1.0e-12
Total number of shell pairs                 ...      1653
Shell pairs after pre-screening             ...      1635
Total number of primitive shell pairs       ...      4740
Primitive shell pairs kept                  ...      3960
          la=0 lb=0:    545 shell pairs
          la=1 lb=0:    493 shell pairs
          la=1 lb=1:    120 shell pairs
          la=2 lb=0:    198 shell pairs
          la=2 lb=1:     90 shell pairs
          la=2 lb=2:     21 shell pairs
          la=3 lb=0:     99 shell pairs
          la=3 lb=1:     45 shell pairs
          la=3 lb=2:     18 shell pairs
          la=3 lb=3:      6 shell pairs

Calculating one electron integrals          ... done (  0.0 sec)
Calculating RI/J V-Matrix + Cholesky decomp.... done (  0.0 sec)
Calculating Nuclear repulsion               ... done (  0.0 sec) ENN=     83.336092337556 Eh

Diagonalization of the overlap matrix:
Smallest eigenvalue                        ... 1.044e-03
Time for diagonalization                   ...    0.001 sec
Threshold for overlap eigenvalues          ... 1.000e-07
Number of eigenvalues below threshold      ... 0
Time for construction of square roots      ...    0.015 sec
Total time needed                          ...    0.024 sec

-------------------
DFT GRID GENERATION
-------------------

General Integration Accuracy     IntAcc      ... 4.388
Radial Grid Type                 RadialGrid  ... OptM3 with GC (2021)
Angular Grid (max. ang.)         AngularGrid ... 4 (Lebedev-302)
Angular grid pruning method      GridPruning ... 4 (adaptive)
Weight generation scheme         WeightScheme... mBecke (2022)
Basis function cutoff            BFCut       ... 1.0000e-11
Integration weight cutoff        WCut        ... 1.0000e-14
Partially contracted basis set               ... off
Rotationally invariant grid construction     ... off
Angular grids for H and He will be reduced by one unit

Total number of grid points                  ...    37758
Total number of batches                      ...      594
Average number of points per batch           ...       63
Average number of grid points per atom       ...     4195

--------------------
COSX GRID GENERATION
--------------------

GRIDX 1
-------
General Integration Accuracy     IntAcc      ... 3.816
Radial Grid Type                 RadialGrid  ... OptM3 with GC (2021)
Angular Grid (max. ang.)         AngularGrid ... 1 (Lebedev-50)
Angular grid pruning method      GridPruning ... 4 (adaptive)
Weight generation scheme         WeightScheme... mBecke (2022)
Basis function cutoff            BFCut       ... 1.0000e-11
Integration weight cutoff        WCut        ... 1.0000e-14
Partially contracted basis set               ... on
Rotationally invariant grid construction     ... off
Angular grids for H and He will be reduced by one unit

Total number of grid points                  ...     4858
Total number of batches                      ...       42
Average number of points per batch           ...      115
Average number of grid points per atom       ...      540
UseSFitting                                  ... on

GRIDX 2
-------
General Integration Accuracy     IntAcc      ... 4.020
Radial Grid Type                 RadialGrid  ... OptM3 with GC (2021)
Angular Grid (max. ang.)         AngularGrid ... 2 (Lebedev-110)
Angular grid pruning method      GridPruning ... 4 (adaptive)
Weight generation scheme         WeightScheme... mBecke (2022)
Basis function cutoff            BFCut       ... 1.0000e-11
Integration weight cutoff        WCut        ... 1.0000e-14
Partially contracted basis set               ... on
Rotationally invariant grid construction     ... off
Angular grids for H and He will be reduced by one unit

Total number of grid points                  ...    10218
Total number of batches                      ...       84
Average number of points per batch           ...      121
Average number of grid points per atom       ...     1135
UseSFitting                                  ... on

GRIDX 3
-------
General Integration Accuracy     IntAcc      ... 4.338
Radial Grid Type                 RadialGrid  ... OptM3 with GC (2021)
Angular Grid (max. ang.)         AngularGrid ... 3 (Lebedev-194)
Angular grid pruning method      GridPruning ... 4 (adaptive)
Weight generation scheme         WeightScheme... mBecke (2022)
Basis function cutoff            BFCut       ... 1.0000e-11
Integration weight cutoff        WCut        ... 1.0000e-14
Partially contracted basis set               ... on
Rotationally invariant grid construction     ... off
Angular grids for H and He will be reduced by one unit

Total number of grid points                  ...    22498
Total number of batches                      ...      180
Average number of points per batch           ...      124
Average number of grid points per atom       ...     2500
UseSFitting                                  ... on
Initializing property integral containers    ... done (  0.0 sec)

SHARK setup successfully completed in   1.0 seconds

Maximum memory used throughout the entire STARTUP-calculation: 18.8 MB
-------------------------------------------------------------------------------
                                 ORCA GUESS
                   Start orbitals & Density for SCF / CASSCF
-------------------------------------------------------------------------------

------------
SCF SETTINGS
------------
Hamiltonian:
 Density Functional     Method          .... DFT(GTOs)
 Exchange Functional    Exchange        .... WB97X-V
 Correlation Functional Correlation     .... WB97X-V
 Gradients option       PostSCFGGA      .... off
 Hybrid DFT is turned on
   Fraction HF Exchange ScalHFX         ....  0.167000
   Scaling of DF-GGA-X  ScalDFX         ....  0.000000
   Scaling of DF-GGA-C  ScalDFC         ....  1.000000
   Scaling of DF-LDA-C  ScalLDAC        ....  1.000000
   Perturbative correction              ....  0.000000
 Long-range corrected/Screened/Range-Separated Hybrid DFT is turned on
   Amount of maximum screened exact exchange              ....  0.833000
   Range separation parameter mu (erf(mu*r12)/r12)        ....  0.300000
   NL short-range parameter             ....  6.000000
   NL long-range parameter              ....  0.010000
 RI-approximation to the Coulomb term is turned on
   Number of AuxJ basis functions       .... 213
   RIJ-COSX (HFX calculated with COS-X)).... on


General Settings:
 Integral files         IntName         .... sp_gas
 Hartree-Fock type      HFTyp           .... RHF
 Total Charge           Charge          ....    0
 Multiplicity           Mult            ....    1
 Number of Electrons    NEL             ....   26
 Basis Dimension        Dim             ....  129
 Nuclear Repulsion      ENuc            ....     83.3360923376 Eh

Convergence Acceleration:
 AO-DIIS                CNVDIIS         .... on
   Start iteration      DIISMaxIt       ....    12
   Startup error        DIISStart       ....  0.200000
   # of expansion vecs  DIISMaxEq       ....     5
   Bias factor          DIISBfac        ....   1.050
   Max. coefficient     DIISMaxC        ....  10.000
 MO-DIIS                CNVKDIIS        .... off
 Trust-Rad. Augm. Hess. CNVTRAH         .... auto
   Auto Start mean grad. ratio tolernc. ....  1.125000
   Auto Start start iteration           ....     1
   Auto Start num. interpolation iter.  ....    10
   Max. Number of Micro iterations      ....    24
   Max. Number of Macro iterations      .... Maxiter - #DIIS iter
   Number of Davidson start vectors     ....     2
   Converg. threshold    (grad. norm)   ....   1.000e-04
   Grad. Scal. Fac. for Micro threshold ....   0.100
   Minimum threshold for Micro iter.    ....   1.000e-02
   NR start threshold (gradient norm)   ....   1.000e-04
   Initial trust radius                 ....   0.400
   Minimum AH scaling param. (alpha)    ....   1.000
   Maximum AH scaling param. (alpha)    .... 1000.000
   Quad. conv. algorithm                .... NR
   White noise on init. David. guess    .... on
   Maximum white noise                  ....   0.010
   Pseudo random numbers                .... off
   Inactive MOs                         .... canonical
   Orbital update algorithm             .... Taylor
   Preconditioner                       .... Diag
   Full preconditioner red. dimension   ....   250
 SOSCF                  CNVSOSCF        .... on
   Start iteration      SOSCFMaxIt      ....   150
   Startup grad/error   SOSCFStart      ....  0.003300
   Hessian update       SOSCFHessUp     .... L-BFGS
 Level Shifting         CNVShift        .... on
   Level shift para.    LevelShift      ....    0.2500
   Turn off err/grad.   ShiftErr        ....    0.0010
 Zerner damping         CNVZerner       .... off
 Static damping         CNVDamp         .... on
   Fraction old density DampFac         ....    0.7000
   Max. Damping (<1)    DampMax         ....    0.9800
   Min. Damping (>=0)   DampMin         ....    0.0000
   Turn off err/grad.   DampErr         ....    0.1000

SCF Procedure:
 Maximum # iterations   MaxIter         ....   125
 SCF integral mode      SCFMode         .... Direct
   Integral package                     .... SHARK and LIBINT hybrid scheme
 Reset frequency        DirectResetFreq ....    20
 Integral Threshold     Thresh          ....  3.000e-11 Eh
 Primitive CutOff       TCut            ....  1.000e-12 Eh

Convergence Tolerance:
 Convergence Check Mode ConvCheckMode   .... Total+1el-Energy
 Convergence forced     ConvForced      .... 0
 Energy Change          TolE            ....  1.000e-07 Eh
 1-El. energy change                    ....  1.000e-04 Eh
 Orbital Gradient       TolG            ....  1.000e-04
 Orbital Rotation angle TolX            ....  1.000e-04
 DIIS Error             TolErr          ....  1.000e-07

---------------------
INITIAL GUESS: MOREAD
---------------------
Guess MOs are being read from file: sp_gas.ges
Input Geometry matches current geometry (good)
Atom 0: N(Shells)= 11 and 9 - projection required
Input basis set needs projection
NBasis(read)= 92
NBasis(calc)= 129
Basis set overlap was calculated
Using GuessMode=FMatrix for the initial guess
C*T matrix was formed
Effective Fockian was calculated
Effective Fockian was diagonalized
Initial density was built
                      ------------------
                      INITIAL GUESS DONE (   0.0 sec)
                      ------------------
             **** ENERGY FILE WAS UPDATED (sp_gas.en.tmp) ****
Finished Guess after   0.2 sec
Maximum memory used throughout the entire GUESS-calculation: 10.6 MB

-------------------------------------------------------------------------------------------
                                      ORCA LEAN-SCF
                              memory conserving SCF solver
-------------------------------------------------------------------------------------------

----------------------------------------D-I-I-S--------------------------------------------
Iteration    Energy (Eh)           Delta-E    RMSDP     MaxDP     DIISErr   Damp  Time(sec)
-------------------------------------------------------------------------------------------
               ***  Starting incremental Fock matrix formation  ***
    1    -155.1298069337130983     0.00e+00  9.41e-04  1.68e-02  6.20e-02  0.700   2.6
    2    -155.1322934140508494    -2.49e-03  8.18e-04  1.31e-02  4.51e-02  0.700   1.5
                               ***Turning on AO-DIIS***
    3    -155.1341181982830051    -1.82e-03  6.83e-04  9.83e-03  3.22e-02  0.700   1.5
    4    -155.1354329770839513    -1.31e-03  1.72e-03  2.32e-02  2.27e-02  0.000   1.4
                              *** Initializing SOSCF ***
---------------------------------------S-O-S-C-F--------------------------------------
Iteration    Energy (Eh)           Delta-E    RMSDP     MaxDP     MaxGrad    Time(sec)
--------------------------------------------------------------------------------------
    5    -155.1387576484783608    -3.32e-03  1.06e-04  1.64e-03  1.23e-03     1.5
               *** Restarting incremental Fock matrix formation ***
    6    -155.1387614926378831    -3.84e-06  5.58e-05  9.92e-04  3.68e-04     2.4
    7    -155.1387622211241819    -7.28e-07  1.90e-05  2.68e-04  3.26e-04     2.1
    8    -155.1387632492422597    -1.03e-06  2.71e-06  3.72e-05  1.04e-05     2.0
                  *** Gradient check signals convergence ***

               *****************************************************
               *                     SUCCESS                       *
               *           SCF CONVERGED AFTER   8 CYCLES          *
               *****************************************************


------------------
NL GRID GENERATION
------------------

General Integration Accuracy     IntAcc      ... 4.004
Radial Grid Type                 RadialGrid  ... OptM3 with GC (2021)
Angular Grid (max. ang.)         AngularGrid ... 2 (Lebedev-110)
Angular grid pruning method      GridPruning ... 4 (adaptive)
Weight generation scheme         WeightScheme... mBecke (2022)
Basis function cutoff            BFCut       ... 1.0000e-10
Integration weight cutoff        WCut        ... 1.0000e-14
Partially contracted basis set               ... off
Rotationally invariant grid construction     ... off
Angular grids for H and He will be reduced by one unit

Total number of grid points                  ...    11280
Total number of batches                      ...      181
Average number of points per batch           ...       62
Average number of grid points per atom       ...     1253
Final grid set up in    0.1 sec

-------------------------------------------------------------------------------
                    post-SCF DFT-NL dispersion correction                      
-------------------------------------------------------------------------------

SCF Energy:     -155.138763249 
NL    Energy:      0.103649357 
SC+NL Energy:   -155.035113892 
NL done in  :              0.4 sec
-------------------------------------------------------------------------------
Recomputing exchange energy using gridx3       ... done (    3.752 sec)
Old exchange energy                            :     -6.850725690 Eh
New exchange energy                            :     -6.850704783 Eh
Exchange energy change after final integration :      0.000020907 Eh
Total energy after final integration           :   -155.035092985 Eh
             **** ENERGY FILE WAS UPDATED (sp_gas.en.tmp) ****

----------------
TOTAL SCF ENERGY
----------------

Total Energy       :       -155.03509298514851 Eh           -4218.71936 eV

Components:
Nuclear Repulsion  :         83.33609233755641 Eh            2267.69036 eV
Electronic Energy  :       -238.47485558679867 Eh           -6489.23073 eV
One Electron Energy:       -374.69512987132339 Eh          -10195.97284 eV
Two Electron Energy:        136.22027428452472 Eh            3706.74211 eV

Virial components:
Potential Energy   :       -309.38503636588206 Eh           -8418.79484 eV
Kinetic Energy     :        154.34994338073355 Eh            4200.07549 eV
Virial Ratio       :          2.00443893654515

DFT components:
N(Alpha)           :       13.000004731626 electrons
N(Beta)            :       13.000004731626 electrons
N(Total)           :       26.000009463252 electrons
E(X)               :      -13.833238503065 Eh       
E(C)               :       -1.049704923881 Eh       
NL Energy, E(C,NL) :        0.103649357176 Eh       
E(XC)              :      -14.779294069769 Eh       

---------------
SCF CONVERGENCE
---------------

  Last Energy change         ...    1.0281e-06  Tolerance :   1.0000e-07
  Last MAX-Density change    ...    3.7211e-05  Tolerance :   1.0000e-05
  Last RMS-Density change    ...    2.7125e-06  Tolerance :   1.0000e-06
  Last DIIS Error            ...    1.2260e-03  Tolerance :   1.0000e-07
  Last Orbital Gradient      ...    1.0358e-05  Tolerance :   1.0000e-04
  Last Orbital Rotation      ...    1.6922e-05  Tolerance :   1.0000e-04


----------------
ORBITAL ENERGIES
----------------

  NO   OCC          E(Eh)            E(eV) 
   0   2.0000     -21.673734      -589.7723 
   1   2.0000     -12.086992      -328.9038 
   2   2.0000     -12.086758      -328.8974 
   3   2.0000      -1.676420       -45.6177 
   4   2.0000      -1.246137       -33.9091 
   5   2.0000      -1.145560       -31.1723 
   6   2.0000      -0.983110       -26.7518 
   7   2.0000      -0.964414       -26.2431 
   8   2.0000      -0.962949       -26.2032 
   9   2.0000      -0.826602       -22.4930 
  10   2.0000      -0.816519       -22.2186 
  11   2.0000      -0.815913       -22.2021 
  12   2.0000      -0.773960       -21.0605 
  13   0.0000      -0.154867        -4.2141 
  14   0.0000      -0.096242        -2.6189 
  15   0.0000      -0.008612        -0.2344 
  16   0.0000       0.027177         0.7395 
  17   0.0000       0.031712         0.8629 
  18   0.0000       0.045865         1.2480 
  19   0.0000       0.065132         1.7723 
  20   0.0000       0.076576         2.0837 
  21   0.0000       0.170688         4.6447 
  22   0.0000       0.196290         5.3413 
  23   0.0000       0.218763         5.9528 
*Only the first 10 virtual orbitals were printed.

                    ********************************
                    * MULLIKEN POPULATION ANALYSIS *
                    ********************************

-----------------------
MULLIKEN ATOMIC CHARGES
-----------------------
   0 C :   -0.166030
   1 O :   -0.302275
   2 C :   -0.166035
   3 H :    0.097353
   4 H :    0.097350
   5 H :    0.122465
   6 H :    0.122466
   7 H :    0.097353
   8 H :    0.097352
Sum of atomic charges:   -0.0000000

--------------------------------
MULLIKEN REDUCED ORBITAL CHARGES
--------------------------------
  0 C s       :     3.222030  s :     3.222030
      pz      :     1.049819  p :     2.834766
      px      :     0.831556
      py      :     0.953390
      dz2     :     0.006647  d :     0.101704
      dxz     :     0.021645
      dyz     :     0.029737
      dx2y2   :     0.021509
      dxy     :     0.022165
      f0      :     0.001063  f :     0.007531
      f+1     :     0.000362
      f-1     :     0.001271
      f+2     :     0.000324
      f-2     :     0.001452
      f+3     :     0.001733
      f-3     :     0.001326

  1 O s       :     3.763346  s :     3.763346
      pz      :     1.838758  p :     4.498387
      px      :     1.156773
      py      :     1.502856
      dz2     :     0.005145  d :     0.038653
      dxz     :     0.004887
      dyz     :     0.003613
      dx2y2   :     0.007213
      dxy     :     0.017795
      f0      :     0.000230  f :     0.001889
      f+1     :     0.000406
      f-1     :     0.000207
      f+2     :     0.000032
      f-2     :     0.000253
      f+3     :     0.000356
      f-3     :     0.000405

  2 C s       :     3.222035  s :     3.222035
      pz      :     1.049820  p :     2.834765
      px      :     0.831569
      py      :     0.953376
      dz2     :     0.006647  d :     0.101704
      dxz     :     0.021643
      dyz     :     0.029739
      dx2y2   :     0.021511
      dxy     :     0.022164
      f0      :     0.001063  f :     0.007531
      f+1     :     0.000362
      f-1     :     0.001271
      f+2     :     0.000324
      f-2     :     0.001452
      f+3     :     0.001733
      f-3     :     0.001326

  3 H s       :     0.883078  s :     0.883078
      pz      :     0.009856  p :     0.019569
      px      :     0.003000
      py      :     0.006712

  4 H s       :     0.883081  s :     0.883081
      pz      :     0.009857  p :     0.019569
      px      :     0.003001
      py      :     0.006712

  5 H s       :     0.857413  s :     0.857413
      pz      :     0.004175  p :     0.020122
      px      :     0.009207
      py      :     0.006740

  6 H s       :     0.857412  s :     0.857412
      pz      :     0.004175  p :     0.020122
      px      :     0.009208
      py      :     0.006739

  7 H s       :     0.883078  s :     0.883078
      pz      :     0.009857  p :     0.019569
      px      :     0.003001
      py      :     0.006711

  8 H s       :     0.883079  s :     0.883079
      pz      :     0.009856  p :     0.019569
      px      :     0.003000
      py      :     0.006713


------------------------
MULLIKEN OVERLAP CHARGES
------------------------
B(  0-C ,  1-O ) :   0.5709 B(  0-C ,  2-C ) :  -0.1359 B(  0-C ,  3-H ) :   0.8323 
B(  0-C ,  4-H ) :   0.8323 B(  0-C ,  5-H ) :   0.7997 B(  1-O ,  2-C ) :   0.5709 
B(  1-O ,  3-H ) :  -0.0949 B(  1-O ,  4-H ) :  -0.0949 B(  1-O ,  5-H ) :  -0.0669 
B(  1-O ,  6-H ) :  -0.0669 B(  1-O ,  7-H ) :  -0.0949 B(  1-O ,  8-H ) :  -0.0949 
B(  2-C ,  6-H ) :   0.7997 B(  2-C ,  7-H ) :   0.8323 B(  2-C ,  8-H ) :   0.8323 
B(  3-H ,  4-H ) :  -0.1165 B(  3-H ,  5-H ) :  -0.0511 B(  4-H ,  5-H ) :  -0.0511 
B(  6-H ,  7-H ) :  -0.0511 B(  6-H ,  8-H ) :  -0.0511 B(  7-H ,  8-H ) :  -0.1165 



                     *******************************
                     * LOEWDIN POPULATION ANALYSIS *
                     *******************************

----------------------
LOEWDIN ATOMIC CHARGES
----------------------
   0 C :   -0.345107
   1 O :    0.086944
   2 C :   -0.345107
   3 H :    0.096733
   4 H :    0.096733
   5 H :    0.108169
   6 H :    0.108169
   7 H :    0.096733
   8 H :    0.096733

-------------------------------
LOEWDIN REDUCED ORBITAL CHARGES
-------------------------------
  0 C s       :     2.865095  s :     2.865095
      pz      :     1.096313  p :     3.027576
      px      :     0.909977
      py      :     1.021286
      dz2     :     0.048036  d :     0.398279
      dxz     :     0.055332
      dyz     :     0.107289
      dx2y2   :     0.074468
      dxy     :     0.113155
      f0      :     0.006183  f :     0.054157
      f+1     :     0.005959
      f-1     :     0.004938
      f+2     :     0.005285
      f-2     :     0.007997
      f+3     :     0.012878
      f-3     :     0.010917

  1 O s       :     3.303469  s :     3.303469
      pz      :     1.719487  p :     4.498943
      px      :     1.246825
      py      :     1.532631
      dz2     :     0.010750  d :     0.104226
      dxz     :     0.016518
      dyz     :     0.009137
      dx2y2   :     0.026446
      dxy     :     0.041376
      f0      :     0.000692  f :     0.006418
      f+1     :     0.000778
      f-1     :     0.000281
      f+2     :     0.000082
      f-2     :     0.001070
      f+3     :     0.002164
      f-3     :     0.001352

  2 C s       :     2.865096  s :     2.865096
      pz      :     1.096313  p :     3.027576
      px      :     0.909988
      py      :     1.021275
      dz2     :     0.048036  d :     0.398280
      dxz     :     0.055327
      dyz     :     0.107294
      dx2y2   :     0.074472
      dxy     :     0.113151
      f0      :     0.006183  f :     0.054157
      f+1     :     0.005959
      f-1     :     0.004938
      f+2     :     0.005284
      f-2     :     0.007998
      f+3     :     0.012878
      f-3     :     0.010917

  3 H s       :     0.843832  s :     0.843832
      pz      :     0.029458  p :     0.059435
      px      :     0.009674
      py      :     0.020303

  4 H s       :     0.843832  s :     0.843832
      pz      :     0.029459  p :     0.059435
      px      :     0.009674
      py      :     0.020302

  5 H s       :     0.832479  s :     0.832479
      pz      :     0.013008  p :     0.059352
      px      :     0.025503
      py      :     0.020842

  6 H s       :     0.832479  s :     0.832479
      pz      :     0.013008  p :     0.059352
      px      :     0.025504
      py      :     0.020841

  7 H s       :     0.843832  s :     0.843832
      pz      :     0.029461  p :     0.059435
      px      :     0.009674
      py      :     0.020300

  8 H s       :     0.843832  s :     0.843832
      pz      :     0.029457  p :     0.059435
      px      :     0.009674
      py      :     0.020304


---------------------------------
LOEWDIN BOND ORDERS (THRESH 0.050000)
---------------------------------
B(  0-C ,  1-O ) :   1.5046 B(  0-C ,  2-C ) :   0.2076 B(  0-C ,  3-H ) :   0.9399 
B(  0-C ,  4-H ) :   0.9399 B(  0-C ,  5-H ) :   0.9416 B(  1-O ,  2-C ) :   1.5046 
B(  2-C ,  6-H ) :   0.9416 B(  2-C ,  7-H ) :   0.9399 B(  2-C ,  8-H ) :   0.9399 


------------------------------------------
LOEWDIN REDUCED ORBITAL POPULATIONS PER MO
-------------------------------------------
THRESHOLD FOR PRINTING IS 0.1%%
                      0         1         2         3         4         5   
                 -21.67373 -12.08699 -12.08676  -1.67642  -1.24614  -1.14556
                   2.00000   2.00000   2.00000   2.00000   2.00000   2.00000
                  --------  --------  --------  --------  --------  --------
 0 C  s               0.0      49.8      49.8       5.8      18.0      15.3
 0 C  px              0.0       0.0       0.0       7.0       0.8       1.1
 0 C  py              0.0       0.0       0.0       2.8       0.7       2.7
 0 C  dz2             0.0       0.0       0.0       1.0       0.0       0.1
 0 C  dx2y2           0.0       0.0       0.0       0.5       0.3       0.1
 0 C  dxy             0.0       0.0       0.0       2.2       0.1       1.0
 0 C  f+1             0.0       0.0       0.0       0.2       0.0       0.0
 0 C  f-3             0.0       0.0       0.0       0.4       0.1       0.0
 1 O  s              99.8       0.0       0.0      55.2       0.0       6.5
 1 O  px              0.0       0.1       0.0       0.0      33.1       0.0
 1 O  py              0.0       0.0       0.1       1.2       0.0      14.0
 1 O  dz2             0.0       0.0       0.0       0.1       0.0       0.2
 1 O  dxy             0.0       0.0       0.0       0.0       1.4       0.0
 2 C  s               0.0      49.8      49.9       5.8      18.0      15.3
 2 C  px              0.0       0.0       0.0       7.0       0.8       1.1
 2 C  py              0.0       0.0       0.0       2.8       0.7       2.7
 2 C  dz2             0.0       0.0       0.0       1.0       0.0       0.1
 2 C  dx2y2           0.0       0.0       0.0       0.5       0.3       0.1
 2 C  dxy             0.0       0.0       0.0       2.2       0.1       1.0
 2 C  f+1             0.0       0.0       0.0       0.2       0.0       0.0
 2 C  f-3             0.0       0.0       0.0       0.4       0.1       0.0
 3 H  s               0.0       0.0       0.0       0.5       3.4       6.2
 3 H  pz              0.0       0.0       0.0       0.0       0.2       0.5
 3 H  py              0.0       0.0       0.0       0.0       0.2       0.1
 4 H  s               0.0       0.0       0.0       0.5       3.4       6.2
 4 H  pz              0.0       0.0       0.0       0.0       0.2       0.5
 4 H  py              0.0       0.0       0.0       0.0       0.2       0.1
 5 H  s               0.0       0.0       0.0       0.6       4.3       4.9
 5 H  px              0.0       0.0       0.0       0.1       0.4       0.2
 5 H  py              0.0       0.0       0.0       0.0       0.1       0.3
 6 H  s               0.0       0.0       0.0       0.6       4.3       4.9
 6 H  px              0.0       0.0       0.0       0.1       0.4       0.2
 6 H  py              0.0       0.0       0.0       0.0       0.1       0.3
 7 H  s               0.0       0.0       0.0       0.5       3.4       6.2
 7 H  pz              0.0       0.0       0.0       0.0       0.2       0.5
 7 H  py              0.0       0.0       0.0       0.0       0.2       0.1
 8 H  s               0.0       0.0       0.0       0.5       3.4       6.2
 8 H  pz              0.0       0.0       0.0       0.0       0.2       0.5
 8 H  py              0.0       0.0       0.0       0.0       0.2       0.1

                      6         7         8         9        10        11   
                  -0.98311  -0.96441  -0.96295  -0.82660  -0.81652  -0.81591
                   2.00000   2.00000   2.00000   2.00000   2.00000   2.00000
                  --------  --------  --------  --------  --------  --------
 0 C  s               2.7       1.3       0.0       0.0       0.1       0.3
 0 C  pz              0.0       0.0      13.5      27.8       0.0       0.0
 0 C  px              8.9      12.8       0.0       0.0      12.0       2.8
 0 C  py             10.9       1.7       0.0       0.0      13.4      18.7
 0 C  dz2             0.2       0.0       0.0       0.0       0.7       0.3
 0 C  dxz             0.0       0.0       1.6       0.1       0.0       0.0
 0 C  dyz             0.0       0.0       0.3       1.1       0.0       0.0
 0 C  dx2y2           0.1       1.1       0.0       0.0       0.8       1.0
 0 C  dxy             0.5       0.1       0.0       0.0       1.1       0.7
 0 C  f0              0.0       0.0       0.2       0.0       0.0       0.0
 0 C  f-2             0.0       0.0       0.2       0.0       0.0       0.0
 0 C  f+3             0.1       0.2       0.0       0.0       0.1       0.1
 1 O  s               0.0       2.5       0.0       0.0       0.0       1.1
 1 O  pz              0.0       0.0      59.3       0.0       0.0       0.0
 1 O  px             27.6       0.0       0.0       0.0       1.5       0.0
 1 O  py              0.0      46.7       0.0       0.0       0.0      14.6
 1 O  dz2             0.0       0.1       0.0       0.0       0.0       0.1
 1 O  dxz             0.0       0.0       0.0       0.8       0.0       0.0
 1 O  dyz             0.0       0.0       0.1       0.0       0.0       0.0
 1 O  dx2y2           0.0       0.1       0.0       0.0       0.0       1.2
 1 O  dxy             0.2       0.0       0.0       0.0       0.5       0.0
 1 O  f+3             0.0       0.0       0.0       0.0       0.1       0.0
 2 C  s               2.7       1.3       0.0       0.0       0.1       0.3
 2 C  pz              0.0       0.0      13.5      27.8       0.0       0.0
 2 C  px              8.9      12.8       0.0       0.0      12.0       2.8
 2 C  py             10.9       1.7       0.0       0.0      13.4      18.7
 2 C  dz2             0.2       0.0       0.0       0.0       0.7       0.3
 2 C  dxz             0.0       0.0       1.6       0.1       0.0       0.0
 2 C  dyz             0.0       0.0       0.3       1.1       0.0       0.0
 2 C  dx2y2           0.1       1.1       0.0       0.0       0.8       1.0
 2 C  dxy             0.5       0.1       0.0       0.0       1.1       0.7
 2 C  f0              0.0       0.0       0.2       0.0       0.0       0.0
 2 C  f-2             0.0       0.0       0.2       0.0       0.0       0.0
 2 C  f+3             0.1       0.2       0.0       0.0       0.1       0.1
 3 H  s               4.9       0.3       2.0       9.7       2.5       4.1
 3 H  pz              0.3       0.0       0.0       0.0       0.2       0.1
 3 H  px              0.1       0.2       0.0       0.0       0.2       0.0
 3 H  py              0.0       0.0       0.2       0.3       0.0       0.1
 4 H  s               4.9       0.3       2.0       9.7       2.5       4.1
 4 H  pz              0.3       0.0       0.0       0.0       0.2       0.1
 4 H  px              0.1       0.2       0.0       0.0       0.2       0.0
 4 H  py              0.0       0.0       0.2       0.3       0.0       0.1
 5 H  s               1.7       6.6       0.0       0.0      14.8       8.5
 5 H  pz              0.0       0.0       0.1       0.4       0.0       0.0
 5 H  px              0.0       0.1       0.0       0.0       0.2       0.3
 5 H  py              0.3       0.2       0.0       0.0       0.1       0.0
 6 H  s               1.7       6.6       0.0       0.0      14.8       8.5
 6 H  pz              0.0       0.0       0.1       0.4       0.0       0.0
 6 H  px              0.0       0.1       0.0       0.0       0.2       0.3
 6 H  py              0.3       0.2       0.0       0.0       0.1       0.0
 7 H  s               4.9       0.3       2.0       9.7       2.5       4.1
 7 H  pz              0.3       0.0       0.0       0.0       0.2       0.1
 7 H  px              0.1       0.2       0.0       0.0       0.2       0.0
 7 H  py              0.0       0.0       0.2       0.3       0.0       0.1
 8 H  s               4.9       0.3       2.0       9.7       2.5       4.1
 8 H  pz              0.3       0.0       0.0       0.0       0.2       0.1
 8 H  px              0.1       0.2       0.0       0.0       0.2       0.0
 8 H  py              0.0       0.0       0.2       0.3       0.0       0.1

                     12        13        14        15        16        17   
                  -0.77396  -0.15487  -0.09624  -0.00861   0.02718   0.03171
                   2.00000   0.00000   0.00000   0.00000   0.00000   0.00000
                  --------  --------  --------  --------  --------  --------
 0 C  s               0.0       3.0       5.5      10.8       0.0       0.9
 0 C  pz             13.6       0.0       0.0       0.0      15.6       0.0
 0 C  px              0.0      15.1      10.5       0.6       0.0       3.8
 0 C  py              0.0       6.0       3.4       3.0       0.0       7.6
 0 C  dz2             0.0       1.2       1.3       0.9       0.0       5.4
 0 C  dxz             1.1       0.0       0.0       0.0       0.5       0.0
 0 C  dyz             4.0       0.0       0.0       0.0       5.1       0.0
 0 C  dx2y2           0.0       1.6       0.0       0.1       0.0       0.5
 0 C  dxy             0.0       4.0       4.3       0.5       0.0       5.4
 0 C  f0              0.1       0.0       0.0       0.0       0.0       0.0
 0 C  f+1             0.0       0.3       0.2       0.0       0.0       0.0
 0 C  f-1             0.0       0.1       0.2       0.3       0.0       0.0
 0 C  f+2             0.2       0.0       0.0       0.0       0.1       0.0
 0 C  f-2             0.2       0.0       0.0       0.0       0.1       0.0
 0 C  f+3             0.0       0.0       0.2       0.0       0.0       0.0
 0 C  f-3             0.0       1.0       0.3       0.1       0.0       0.0
 1 O  s               0.0      12.3       0.0       0.4       0.0       0.1
 1 O  pz             26.7       0.0       0.0       0.0       5.1       0.0
 1 O  px              0.0       0.0      32.7       0.0       0.0       0.0
 1 O  py              0.0      15.1       0.0       1.6       0.0       1.0
 1 O  dz2             0.0       2.2       0.0       0.4       0.0       0.0
 1 O  dyz             0.3       0.0       0.0       0.0       0.3       0.0
 1 O  dx2y2           0.0       0.9       0.0       0.0       0.0       2.1
 1 O  dxy             0.0       0.0       7.5       0.0       0.0       0.0
 1 O  f+1             0.0       0.0       0.1       0.0       0.0       0.0
 1 O  f-3             0.0       0.3       0.0       0.0       0.0       0.1
 2 C  s               0.0       3.0       5.5      10.8       0.0       0.9
 2 C  pz             13.6       0.0       0.0       0.0      15.6       0.0
 2 C  px              0.0      15.1      10.5       0.6       0.0       3.8
 2 C  py              0.0       6.0       3.4       3.0       0.0       7.6
 2 C  dz2             0.0       1.2       1.3       0.9       0.0       5.4
 2 C  dxz             1.1       0.0       0.0       0.0       0.5       0.0
 2 C  dyz             4.0       0.0       0.0       0.0       5.1       0.0
 2 C  dx2y2           0.0       1.6       0.0       0.1       0.0       0.5
 2 C  dxy             0.0       4.0       4.3       0.5       0.0       5.4
 2 C  f0              0.1       0.0       0.0       0.0       0.0       0.0
 2 C  f+1             0.0       0.3       0.2       0.0       0.0       0.0
 2 C  f-1             0.0       0.1       0.2       0.3       0.0       0.0
 2 C  f+2             0.2       0.0       0.0       0.0       0.1       0.0
 2 C  f-2             0.2       0.0       0.0       0.0       0.1       0.0
 2 C  f+3             0.0       0.0       0.2       0.0       0.0       0.0
 2 C  f-3             0.0       1.0       0.3       0.1       0.0       0.0
 3 H  s               8.5       0.0       0.5      10.2       9.5       1.3
 3 H  pz              0.0       0.0       0.1       2.7       1.1       0.6
 3 H  px              0.0       0.6       0.5       0.0       0.0       0.4
 3 H  py              0.1       0.1       0.4       0.7       1.9       0.0
 4 H  s               8.5       0.0       0.5      10.2       9.5       1.3
 4 H  pz              0.0       0.0       0.1       2.7       1.1       0.6
 4 H  px              0.0       0.6       0.5       0.0       0.0       0.4
 4 H  py              0.1       0.1       0.4       0.7       1.9       0.0
 5 H  s               0.0       0.1       0.3       3.7       0.0      15.4
 5 H  pz              0.2       0.0       0.0       0.0       0.8       0.0
 5 H  px              0.0       0.6       0.4       0.5       0.0       3.4
 5 H  py              0.0       0.3       0.1       1.0       0.0       1.3
 6 H  s               0.0       0.1       0.3       3.7       0.0      15.4
 6 H  pz              0.2       0.0       0.0       0.0       0.8       0.0
 6 H  px              0.0       0.6       0.4       0.5       0.0       3.4
 6 H  py              0.0       0.3       0.1       1.0       0.0       1.3
 7 H  s               8.5       0.0       0.5      10.2       9.5       1.3
 7 H  pz              0.0       0.0       0.1       2.7       1.1       0.6
 7 H  px              0.0       0.6       0.5       0.0       0.0       0.4
 7 H  py              0.1       0.1       0.4       0.7       1.9       0.0
 8 H  s               8.5       0.0       0.5      10.2       9.5       1.3
 8 H  pz              0.0       0.0       0.1       2.7       1.1       0.6
 8 H  px              0.0       0.6       0.5       0.0       0.0       0.4
 8 H  py              0.1       0.1       0.4       0.7       1.9       0.0

                     18        19        20        21        22        23   
                   0.04586   0.06513   0.07658   0.17069   0.19629   0.21876
                   0.00000   0.00000   0.00000   0.00000   0.00000   0.00000
                  --------  --------  --------  --------  --------  --------
 0 C  s               7.4       0.0       0.4       1.4       0.0       0.0
 0 C  pz              0.0      13.3       0.0       0.0      31.4      30.2
 0 C  px              9.1       0.0       2.2       0.1       0.0       0.0
 0 C  py              0.5       0.0      13.1      33.0       0.0       0.0
 0 C  dz2             0.3       0.0       5.4       5.6       0.0       0.0
 0 C  dxz             0.0       0.0       0.0       0.0       1.0       2.4
 0 C  dyz             0.0      10.6       0.0       0.0       4.7       6.0
 0 C  dx2y2           0.3       0.0       0.3       0.2       0.0       0.0
 0 C  dxy             1.3       0.0       0.6       0.6       0.0       0.0
 0 C  f-1             0.3       0.0       0.1       0.0       0.0       0.0
 0 C  f+2             0.0       0.2       0.0       0.0       0.1       0.1
 0 C  f-2             0.0       0.0       0.0       0.0       0.1       0.0
 1 O  s               0.0       0.0       0.0       1.6       0.0       0.0
 1 O  pz              0.0       0.0       0.0       0.0      12.5       0.0
 1 O  px              0.4       0.0       1.6       0.0       0.0       0.0
 1 O  py              0.0       0.0       0.0       3.5       0.0       0.0
 1 O  dz2             0.0       0.0       0.0       0.9       0.0       0.0
 1 O  dxz             0.0       2.3       0.0       0.0       0.0       0.2
 1 O  dx2y2           0.0       0.0       0.0       0.2       0.0       0.0
 1 O  f+3             0.0       0.0       0.1       0.0       0.0       0.0
 2 C  s               7.4       0.0       0.4       1.4       0.0       0.0
 2 C  pz              0.0      13.3       0.0       0.0      31.4      30.2
 2 C  px              9.1       0.0       2.2       0.1       0.0       0.0
 2 C  py              0.5       0.0      13.1      33.0       0.0       0.0
 2 C  dz2             0.3       0.0       5.4       5.6       0.0       0.0
 2 C  dxz             0.0       0.0       0.0       0.0       1.0       2.4
 2 C  dyz             0.0      10.6       0.0       0.0       4.7       6.0
 2 C  dx2y2           0.3       0.0       0.3       0.2       0.0       0.0
 2 C  dxy             1.3       0.0       0.6       0.6       0.0       0.0
 2 C  f-1             0.3       0.0       0.1       0.0       0.0       0.0
 2 C  f+2             0.0       0.2       0.0       0.0       0.1       0.1
 2 C  f-2             0.0       0.0       0.0       0.0       0.1       0.0
 3 H  s               4.6       8.7       5.4       0.7       2.5       4.5
 3 H  pz              1.5       1.2       2.3       0.1       0.3       0.3
 3 H  px              0.1       0.1       0.2       0.1       0.0       0.2
 3 H  py              0.5       2.0       0.0       0.5       0.1       0.0
 4 H  s               4.6       8.7       5.4       0.7       2.5       4.5
 4 H  pz              1.5       1.2       2.3       0.1       0.3       0.3
 4 H  px              0.1       0.1       0.2       0.1       0.0       0.2
 4 H  py              0.5       2.0       0.0       0.5       0.1       0.0
 5 H  s              12.5       0.0       8.5       3.0       0.0       0.0
 5 H  pz              0.0       0.8       0.0       0.0       0.8       1.2
 5 H  px              1.9       0.0       2.4       0.1       0.0       0.0
 5 H  py              2.6       0.0       0.4       0.2       0.0       0.0
 6 H  s              12.5       0.0       8.5       3.0       0.0       0.0
 6 H  pz              0.0       0.8       0.0       0.0       0.8       1.2
 6 H  px              1.9       0.0       2.4       0.1       0.0       0.0
 6 H  py              2.6       0.0       0.4       0.2       0.0       0.0
 7 H  s               4.6       8.7       5.4       0.7       2.5       4.5
 7 H  pz              1.5       1.2       2.3       0.1       0.3       0.3
 7 H  px              0.1       0.1       0.2       0.1       0.0       0.2
 7 H  py              0.5       2.0       0.0       0.5       0.1       0.0
 8 H  s               4.6       8.7       5.4       0.7       2.5       4.5
 8 H  pz              1.5       1.2       2.3       0.1       0.3       0.3
 8 H  px              0.1       0.1       0.2       0.1       0.0       0.2
 8 H  py              0.5       2.0       0.0       0.5       0.1       0.0

                     24        25        26        27        28        29   
                   0.21962   0.22468   0.30099   0.32713   0.33731   0.34939
                   0.00000   0.00000   0.00000   0.00000   0.00000   0.00000
                  --------  --------  --------  --------  --------  --------
 0 C  s               1.5       0.5       0.6       9.3      12.8      11.4
 0 C  px             14.2      35.2       8.9       0.3       0.1       3.5
 0 C  py             18.8       1.1      13.1       0.2       5.9       0.3
 0 C  dz2             2.2       0.3       4.3       3.9       0.2       0.4
 0 C  dx2y2           2.6       0.1       5.2       0.1       2.4       4.5
 0 C  dxy             0.5       3.2       2.1       0.3       0.1       1.1
 0 C  f+1             0.0       0.0       0.2       0.0       0.0       0.2
 0 C  f-1             0.2       0.0       0.2       1.2       0.3       0.0
 0 C  f-3             0.0       0.2       0.5       0.4       0.0       0.0
 1 O  s               0.0       0.9       0.0       8.3       1.3       3.0
 1 O  px              3.3       0.0       0.3       0.0       0.0       0.0
 1 O  py              0.0       2.6       0.0      31.3       4.0      10.9
 1 O  dz2             0.0       1.1       0.0       0.4       0.0       1.7
 1 O  dx2y2           0.0       0.6       0.0       0.2       0.5       0.9
 1 O  dxy             3.5       0.0       0.1       0.0       0.0       0.0
 1 O  f-3             0.0       0.1       0.0       0.0       0.0       0.0
 2 C  s               1.5       0.5       0.6       9.3      12.8      11.4
 2 C  px             14.2      35.2       8.9       0.3       0.1       3.5
 2 C  py             18.8       1.1      13.1       0.2       5.9       0.3
 2 C  dz2             2.2       0.3       4.3       3.9       0.2       0.4
 2 C  dx2y2           2.6       0.1       5.2       0.1       2.4       4.5
 2 C  dxy             0.5       3.2       2.1       0.3       0.1       1.1
 2 C  f+1             0.0       0.0       0.2       0.0       0.0       0.2
 2 C  f-1             0.2       0.0       0.2       1.2       0.3       0.0
 2 C  f-3             0.0       0.2       0.5       0.4       0.0       0.0
 3 H  s               2.6       0.0       0.4       4.9      11.1       0.1
 3 H  pz              0.2       0.0       0.0       0.9       0.4       0.2
 3 H  px              0.1       0.5       0.4       0.1       0.0       0.0
 3 H  py              0.0       0.0       1.9       0.0       0.6       0.0
 4 H  s               2.6       0.0       0.4       4.9      11.1       0.1
 4 H  pz              0.2       0.0       0.0       0.9       0.4       0.2
 4 H  px              0.1       0.5       0.4       0.1       0.0       0.0
 4 H  py              0.0       0.0       1.9       0.0       0.6       0.0
 5 H  s               0.2       5.5       8.9       1.8       0.9      18.6
 5 H  px              0.1       0.1       0.0       0.3       0.0       1.0
 5 H  py              0.6       0.0       0.7       0.2       0.2       0.0
 6 H  s               0.2       5.5       8.9       1.8       0.9      18.6
 6 H  px              0.1       0.1       0.0       0.3       0.0       1.0
 6 H  py              0.6       0.0       0.7       0.2       0.2       0.0
 7 H  s               2.6       0.0       0.4       4.9      11.1       0.1
 7 H  pz              0.2       0.0       0.0       0.9       0.4       0.2
 7 H  px              0.1       0.5       0.4       0.1       0.0       0.0
 7 H  py              0.0       0.0       1.9       0.0       0.6       0.0
 8 H  s               2.6       0.0       0.4       4.9      11.1       0.1
 8 H  pz              0.2       0.0       0.0       0.9       0.4       0.2
 8 H  px              0.1       0.5       0.4       0.1       0.0       0.0
 8 H  py              0.0       0.0       1.9       0.0       0.6       0.0

                     30        31        32        33        34        35   
                   0.35075   0.37628   0.39645   0.40312   0.41026   0.44474
                   0.00000   0.00000   0.00000   0.00000   0.00000   0.00000
                  --------  --------  --------  --------  --------  --------
 0 C  s               0.0       1.5      10.3       0.0       0.0      13.1
 0 C  pz              8.1       0.0       0.0      13.0       0.2       0.0
 0 C  px              0.0       3.1       7.1       0.0       0.0       1.0
 0 C  py              0.0       6.9       2.9       0.0       0.0       0.4
 0 C  dz2             0.0       0.4       1.6       0.0       0.0       1.8
 0 C  dxz             1.1       0.0       0.0       0.2      25.3       0.0
 0 C  dyz             3.8       0.0       0.0       1.4       0.8       0.0
 0 C  dx2y2           0.0       2.3       0.1       0.0       0.0       4.9
 0 C  dxy             0.0       2.0       0.4       0.0       0.0       0.7
 0 C  f-1             0.0       0.1       0.3       0.0       0.0       1.4
 0 C  f+2             0.5       0.0       0.0       0.3       0.0       0.0
 0 C  f-2             0.0       0.0       0.0       0.0       0.2       0.0
 0 C  f-3             0.0       0.3       0.0       0.0       0.0       0.4
 1 O  pz              2.8       0.0       0.0       0.0      32.6       0.0
 1 O  px              0.0       1.2       0.5       0.0       0.0      27.2
 1 O  dxz             0.0       0.0       0.0       0.4       0.0       0.0
 1 O  dyz             1.1       0.0       0.0       0.0       1.0       0.0
 1 O  dxy             0.0       0.0       0.1       0.0       0.0       2.1
 1 O  f-2             0.0       0.0       0.0       0.1       0.0       0.0
 2 C  s               0.0       1.5      10.3       0.0       0.0      13.1
 2 C  pz              8.1       0.0       0.0      13.0       0.2       0.0
 2 C  px              0.0       3.1       7.1       0.0       0.0       1.0
 2 C  py              0.0       6.9       2.9       0.0       0.0       0.4
 2 C  dz2             0.0       0.4       1.6       0.0       0.0       1.8
 2 C  dxz             1.1       0.0       0.0       0.2      25.3       0.0
 2 C  dyz             3.8       0.0       0.0       1.4       0.8       0.0
 2 C  dx2y2           0.0       2.3       0.1       0.0       0.0       4.9
 2 C  dxy             0.0       2.0       0.4       0.0       0.0       0.7
 2 C  f-1             0.0       0.1       0.3       0.0       0.0       1.4
 2 C  f+2             0.5       0.0       0.0       0.3       0.0       0.0
 2 C  f-2             0.0       0.0       0.0       0.0       0.2       0.0
 2 C  f-3             0.0       0.3       0.0       0.0       0.0       0.4
 3 H  s              16.5       1.4      12.2      17.0       0.1       3.5
 3 H  pz              0.3       0.0       0.6       0.2       0.0       0.9
 3 H  px              0.1       0.0       0.0       0.0       2.2       0.0
 3 H  py              0.3       0.1       0.0       0.1       0.0       0.1
 4 H  s              16.5       1.4      12.2      17.0       0.1       3.5
 4 H  pz              0.3       0.0       0.6       0.2       0.0       0.9
 4 H  px              0.1       0.0       0.0       0.0       2.2       0.0
 4 H  py              0.3       0.1       0.0       0.1       0.0       0.1
 5 H  s               0.0      28.0       0.7       0.0       0.0       1.8
 5 H  pz              0.0       0.0       0.0       0.0       2.0       0.0
 5 H  px              0.0       1.3       0.4       0.0       0.0       0.6
 5 H  py              0.0       0.4       0.0       0.0       0.0       0.2
 6 H  s               0.0      28.0       0.7       0.0       0.0       1.8
 6 H  pz              0.0       0.0       0.0       0.0       2.0       0.0
 6 H  px              0.0       1.3       0.4       0.0       0.0       0.6
 6 H  py              0.0       0.4       0.0       0.0       0.0       0.2
 7 H  s              16.5       1.4      12.2      17.0       0.1       3.5
 7 H  pz              0.3       0.0       0.6       0.2       0.0       0.9
 7 H  px              0.1       0.0       0.0       0.0       2.2       0.0
 7 H  py              0.3       0.1       0.0       0.1       0.0       0.1
 8 H  s              16.5       1.4      12.2      17.0       0.1       3.5
 8 H  pz              0.3       0.0       0.6       0.2       0.0       0.9
 8 H  px              0.1       0.0       0.0       0.0       2.2       0.0
 8 H  py              0.3       0.1       0.0       0.1       0.0       0.1

                     36        37        38        39        40        41   
                   0.44790   0.59746   0.60802   0.63037   0.63182   0.71437
                   0.00000   0.00000   0.00000   0.00000   0.00000   0.00000
                  --------  --------  --------  --------  --------  --------
 0 C  s               4.2       0.0       2.0       0.0      16.3       2.8
 0 C  pz              0.0       6.5       0.0       1.4       0.0       0.0
 0 C  px              5.4       0.0       0.4       0.0       7.6       0.8
 0 C  py              2.2       0.0       1.8       0.0       1.6       4.2
 0 C  dz2             1.5       0.0       0.8       0.0       1.3       2.9
 0 C  dxz             0.0       5.8       0.0      29.9       0.0       0.0
 0 C  dyz             0.0       0.7       0.0       2.8       0.0       0.0
 0 C  dx2y2           3.0       0.0      19.0       0.0       2.2       0.3
 0 C  dxy             0.1       0.0       1.2       0.0       0.3       4.1
 0 C  f0              0.0       0.0       0.0       0.1       0.0       0.0
 0 C  f+1             0.0       0.0       0.1       0.0       0.0       1.5
 0 C  f-1             1.1       0.0       0.3       0.0       1.1       0.0
 0 C  f+2             0.0       0.6       0.0       0.5       0.0       0.0
 0 C  f-2             0.0       0.2       0.0       0.0       0.0       0.0
 0 C  f+3             0.2       0.0       0.0       0.0       0.0       0.1
 0 C  f-3             0.6       0.0       0.2       0.0       0.3       0.3
 1 O  s               1.2       0.0       1.4       0.0       0.0      36.1
 1 O  pz              0.0      46.2       0.0       0.0       0.0       0.0
 1 O  px              0.0       0.0       0.0       0.0      16.9       0.0
 1 O  py             14.9       0.0      17.6       0.0       0.0       3.6
 1 O  dz2             5.0       0.0       2.3       0.0       0.0      10.9
 1 O  dxz             0.0       0.0       0.0       9.0       0.0       0.0
 1 O  dyz             0.0      14.6       0.0       0.0       0.0       0.0
 1 O  dx2y2           0.0       0.0       9.9       0.0       0.0       0.2
 1 O  dxy             0.0       0.0       0.0       0.0       9.9       0.0
 1 O  f0              0.0       0.1       0.0       0.0       0.0       0.0
 1 O  f-1             0.1       0.0       0.0       0.0       0.0       0.1
 1 O  f-2             0.0       0.0       0.0       0.2       0.0       0.0
 2 C  s               4.2       0.0       2.0       0.0      16.3       2.8
 2 C  pz              0.0       6.5       0.0       1.4       0.0       0.0
 2 C  px              5.4       0.0       0.4       0.0       7.6       0.8
 2 C  py              2.2       0.0       1.8       0.0       1.6       4.2
 2 C  dz2             1.5       0.0       0.8       0.0       1.3       2.9
 2 C  dxz             0.0       5.8       0.0      29.9       0.0       0.0
 2 C  dyz             0.0       0.7       0.0       2.8       0.0       0.0
 2 C  dx2y2           3.0       0.0      19.0       0.0       2.2       0.3
 2 C  dxy             0.1       0.0       1.2       0.0       0.3       4.1
 2 C  f0              0.0       0.0       0.0       0.1       0.0       0.0
 2 C  f+1             0.0       0.0       0.1       0.0       0.0       1.5
 2 C  f-1             1.1       0.0       0.3       0.0       1.1       0.0
 2 C  f+2             0.0       0.6       0.0       0.5       0.0       0.0
 2 C  f-2             0.0       0.2       0.0       0.0       0.0       0.0
 2 C  f+3             0.2       0.0       0.0       0.0       0.0       0.1
 2 C  f-3             0.6       0.0       0.2       0.0       0.3       0.3
 3 H  s               2.7       1.5       1.2       0.6       1.9       0.4
 3 H  pz              0.0       0.0       1.2       0.7       0.0       0.1
 3 H  px              0.2       1.0       0.0       3.1       0.0       0.0
 3 H  py              0.4       0.3       0.3       0.1       0.0       0.1
 4 H  s               2.7       1.5       1.2       0.6       1.9       0.4
 4 H  pz              0.0       0.0       1.2       0.7       0.0       0.1
 4 H  px              0.2       1.0       0.0       3.1       0.0       0.0
 4 H  py              0.4       0.3       0.3       0.1       0.0       0.1
 5 H  s              12.0       0.0       0.3       0.0       0.7       4.2
 5 H  pz              0.0       0.0       0.0       1.9       0.0       0.0
 5 H  px              0.1       0.0       0.1       0.0       0.5       1.4
 5 H  py              2.2       0.0       2.9       0.0       0.8       0.5
 6 H  s              12.0       0.0       0.3       0.0       0.7       4.2
 6 H  pz              0.0       0.0       0.0       1.9       0.0       0.0
 6 H  px              0.1       0.0       0.1       0.0       0.5       1.4
 6 H  py              2.2       0.0       2.9       0.0       0.8       0.5
 7 H  s               2.7       1.5       1.2       0.6       1.9       0.4
 7 H  pz              0.0       0.0       1.2       0.7       0.0       0.1
 7 H  px              0.2       1.0       0.0       3.1       0.0       0.0
 7 H  py              0.4       0.3       0.3       0.1       0.0       0.1
 8 H  s               2.7       1.5       1.2       0.6       1.9       0.4
 8 H  pz              0.0       0.0       1.2       0.7       0.0       0.1
 8 H  px              0.2       1.0       0.0       3.1       0.0       0.0
 8 H  py              0.4       0.3       0.3       0.1       0.0       0.1

                     42        43        44        45        46        47   
                   0.82192   0.83806   0.86555   0.90446   0.92060   0.92712
                   0.00000   0.00000   0.00000   0.00000   0.00000   0.00000
                  --------  --------  --------  --------  --------  --------
 0 C  s               0.5       2.0       0.0       1.1       1.0       0.0
 0 C  pz              0.0       0.0      11.0       0.0       0.0       6.3
 0 C  px              1.7      12.2       0.0       1.0       7.0       0.0
 0 C  py             11.0       0.9       0.0       5.1       0.6       0.0
 0 C  dz2            12.0       1.5       0.0      12.7       4.1       0.0
 0 C  dxz             0.0       0.0       3.0       0.0       0.0       1.1
 0 C  dyz             0.0       0.0      13.7       0.0       0.0      18.6
 0 C  dx2y2           3.3       1.4       0.0       1.9       8.7       0.0
 0 C  dxy             0.3       8.6       0.0       7.8      10.9       0.0
 0 C  f0              0.0       0.0       0.0       0.0       0.0       0.3
 0 C  f+1             0.1       0.3       0.0       1.5       0.7       0.0
 0 C  f-1             0.2       0.0       0.0       0.2       0.3       0.0
 0 C  f+2             0.0       0.0       0.5       0.0       0.0       1.1
 0 C  f+3             0.1       0.0       0.0       0.2       0.0       0.0
 0 C  f-3             0.0       0.3       0.0       1.2       0.5       0.0
 1 O  s               0.0      19.0       0.0      10.1       0.0       0.0
 1 O  pz              0.0       0.0       0.0       0.0       0.0       2.9
 1 O  px             14.9       0.0       0.0       0.0      14.6       0.0
 1 O  py              0.0       3.2       0.0       5.8       0.0       0.0
 1 O  dz2             0.0       1.4       0.0       0.2       0.0       0.0
 1 O  dxz             0.0       0.0       4.0       0.0       0.0       0.0
 1 O  dyz             0.0       0.0       0.0       0.0       0.0       1.6
 1 O  dx2y2           0.0       1.2       0.0       0.0       0.0       0.0
 1 O  dxy             2.3       0.0       0.0       0.0       0.3       0.0
 1 O  f0              0.0       0.0       0.0       0.0       0.0       0.3
 1 O  f+1             0.7       0.0       0.0       0.0       0.0       0.0
 1 O  f+2             0.0       0.0       0.0       0.0       0.0       0.5
 1 O  f+3             0.3       0.0       0.0       0.0       0.5       0.0
 1 O  f-3             0.0       1.0       0.0       0.0       0.0       0.0
 2 C  s               0.5       2.0       0.0       1.1       1.0       0.0
 2 C  pz              0.0       0.0      11.0       0.0       0.0       6.3
 2 C  px              1.7      12.2       0.0       1.0       7.0       0.0
 2 C  py             11.0       0.9       0.0       5.1       0.6       0.0
 2 C  dz2            12.0       1.5       0.0      12.7       4.1       0.0
 2 C  dxz             0.0       0.0       3.0       0.0       0.0       1.1
 2 C  dyz             0.0       0.0      13.7       0.0       0.0      18.6
 2 C  dx2y2           3.3       1.4       0.0       1.9       8.7       0.0
 2 C  dxy             0.3       8.6       0.0       7.8      10.9       0.0
 2 C  f0              0.0       0.0       0.0       0.0       0.0       0.3
 2 C  f+1             0.1       0.3       0.0       1.5       0.7       0.0
[...]
 0 C  f-1             0.0       0.0       0.0       0.0       1.2       0.0
 0 C  f+2             2.9       0.0       1.4       0.0       0.0       0.0
 0 C  f-2             0.2       0.0       1.6       2.3       0.0       0.0
 0 C  f+3             0.0       1.3       0.0       0.0       0.0       0.6
 0 C  f-3             0.0       0.1       0.0       0.0       0.1       1.2
 1 O  s               0.0       0.4       0.0       0.0       0.0       6.9
 1 O  pz              0.2       0.0       0.0       1.8       0.0       0.0
 1 O  px              0.0       0.0       0.0       0.0       9.9       0.0
 1 O  py              0.0       0.7       0.0       0.0       0.0       2.7
 1 O  dz2             0.0       2.9       0.0       0.0       0.0      15.2
 1 O  dxz             0.0       0.0      19.4       0.0       0.0       0.0
 1 O  dyz             3.5       0.0       0.0       5.9       0.0       0.0
 1 O  dx2y2           0.0       1.9       0.0       0.0       0.0       5.3
 1 O  dxy             0.0       0.0       0.0       0.0       7.2       0.0
 1 O  f0             25.6       0.0       0.0      49.8       0.0       0.0
 1 O  f+1             0.0       0.0       0.0       0.0      63.3       0.0
 1 O  f-1             0.0      78.6       0.0       0.0       0.0       2.4
 1 O  f+2            61.8       0.0       0.0      29.2       0.0       0.0
 1 O  f-2             0.0       0.0      68.4       0.0       0.0       0.0
 1 O  f-3             0.0       7.4       0.0       0.0       0.0      51.1
 2 C  s               0.0       0.0       0.0       0.0       1.8       0.9
 2 C  pz              0.1       0.0       0.0       0.0       0.0       0.0
 2 C  px              0.0       0.0       0.0       0.0       0.9       0.9
 2 C  py              0.0       0.0       0.0       0.0       0.5       0.2
 2 C  dz2             0.0       0.3       0.0       0.0       0.7       1.0
 2 C  dxz             0.2       0.0       0.8       0.6       0.0       0.0
 2 C  dyz             0.2       0.0       0.8       1.1       0.0       0.0
 2 C  dx2y2           0.0       0.7       0.0       0.0       0.2       0.2
 2 C  dxy             0.0       0.0       0.0       0.0       2.8       3.0
 2 C  f0              0.2       0.0       1.0       2.0       0.0       0.0
 2 C  f+1             0.0       1.2       0.0       0.0       1.2       0.1
 2 C  f-1             0.0       0.0       0.0       0.0       1.2       0.0
 2 C  f+2             2.9       0.0       1.4       0.0       0.0       0.0
 2 C  f-2             0.2       0.0       1.6       2.3       0.0       0.0
 2 C  f+3             0.0       1.3       0.0       0.0       0.0       0.6
 2 C  f-3             0.0       0.1       0.0       0.0       0.1       1.2
 3 H  s               0.3       0.0       0.2       0.2       0.1       0.0
 4 H  s               0.3       0.0       0.2       0.2       0.1       0.0
 5 H  px              0.0       0.1       0.0       0.0       0.0       0.2
 6 H  px              0.0       0.1       0.0       0.0       0.0       0.2
 7 H  s               0.3       0.0       0.2       0.2       0.1       0.0
 8 H  s               0.3       0.0       0.2       0.2       0.1       0.0

                    120       121       122       123       124       125   
                   5.77013   6.21794   6.22400   6.36738   6.70431   6.71893
                   0.00000   0.00000   0.00000   0.00000   0.00000   0.00000
                  --------  --------  --------  --------  --------  --------
 0 C  s               0.2       0.4       0.0       0.0       0.6       1.2
 0 C  pz              0.0       0.0       0.4       0.2       0.0       0.0
 0 C  px              0.2       0.5       0.0       0.0       0.3       1.2
 0 C  py              0.0       0.0       0.0       0.0       0.9       0.2
 0 C  dz2             0.4       0.1       0.0       0.0       0.2       0.1
 0 C  dxz             0.0       0.0       0.5       0.5       0.0       0.0
 0 C  dyz             0.0       0.0       0.1       0.5       0.0       0.0
 0 C  dx2y2           1.9       0.3       0.0       0.0       0.3       0.5
 0 C  dxy             0.2       0.1       0.0       0.0       0.7       0.5
 0 C  f0              0.0       0.0       0.1       0.3       0.0       0.0
 0 C  f-1             0.1       0.0       0.0       0.0       0.0       0.3
 0 C  f+2             0.0       0.0       0.3       0.1       0.0       0.0
 0 C  f-2             0.0       0.0       0.0       0.4       0.0       0.0
 0 C  f+3             3.3       0.1       0.0       0.0       0.1       0.3
 0 C  f-3             1.7       0.0       0.0       0.0       0.1       0.0
 1 O  s               0.0       1.4       0.0       0.0       3.6       0.0
 1 O  pz              0.0       0.0       1.3       0.0       0.0       0.0
 1 O  px              0.9       0.0       0.0       0.0       0.0       2.6
 1 O  py              0.0       1.8       0.0       0.0       0.2       0.0
 1 O  dz2             0.0      58.8       0.0       0.0      19.4       0.0
 1 O  dxz             0.0       0.0       0.0      82.1       0.0       0.0
 1 O  dyz             0.0       0.0      89.0       0.0       0.0       0.0
 1 O  dx2y2           0.0      29.6       0.0       0.0      60.9       0.0
 1 O  dxy            11.2       0.0       0.0       0.0       0.0      78.3
 1 O  f0              0.0       0.0       6.5       0.0       0.0       0.0
 1 O  f+1             1.0       0.0       0.0       0.0       0.0       1.8
 1 O  f-1             0.0       3.8       0.0       0.0       0.3       0.0
 1 O  f-2             0.0       0.0       0.0      13.7       0.0       0.0
 1 O  f+3            69.1       0.0       0.0       0.0       0.0       8.2
 1 O  f-3             0.0       1.0       0.0       0.0       8.9       0.0
 2 C  s               0.2       0.4       0.0       0.0       0.6       1.2
 2 C  pz              0.0       0.0       0.4       0.2       0.0       0.0
 2 C  px              0.2       0.5       0.0       0.0       0.3       1.2
 2 C  py              0.0       0.0       0.0       0.0       0.9       0.2
 2 C  dz2             0.4       0.1       0.0       0.0       0.2       0.1
 2 C  dxz             0.0       0.0       0.5       0.5       0.0       0.0
 2 C  dyz             0.0       0.0       0.1       0.5       0.0       0.0
 2 C  dx2y2           1.9       0.3       0.0       0.0       0.3       0.5
 2 C  dxy             0.2       0.1       0.0       0.0       0.7       0.5
 2 C  f0              0.0       0.0       0.1       0.3       0.0       0.0
 2 C  f-1             0.1       0.0       0.0       0.0       0.0       0.3
 2 C  f+2             0.0       0.0       0.3       0.1       0.0       0.0
 2 C  f-2             0.0       0.0       0.0       0.4       0.0       0.0
 2 C  f+3             3.3       0.1       0.0       0.0       0.1       0.3
 2 C  f-3             1.7       0.0       0.0       0.0       0.1       0.0
 5 H  s               0.6       0.0       0.0       0.0       0.0       0.0
 6 H  s               0.6       0.0       0.0       0.0       0.0       0.0

                    126       127       128   
                  20.63382  20.75576  41.48148
                   0.00000   0.00000   0.00000
                  --------  --------  --------
 0 C  s              49.0      49.1       0.0
 1 O  s               0.5       0.0      99.8
 1 O  px              0.0       0.4       0.0
 1 O  py              0.2       0.0       0.0
 1 O  dxy             0.0       0.2       0.0
 2 C  s              49.0      49.1       0.0
 3 H  s               0.1       0.1       0.0
 4 H  s               0.1       0.1       0.0
 5 H  s               0.1       0.1       0.0
 6 H  s               0.1       0.1       0.0
 7 H  s               0.1       0.1       0.0
 8 H  s               0.1       0.1       0.0


                      *****************************
                      * MAYER POPULATION ANALYSIS *
                      *****************************

  NA   - Mulliken gross atomic population
  ZA   - Total nuclear charge
  QA   - Mulliken gross atomic charge
  VA   - Mayer's total valence
  BVA  - Mayer's bonded valence
  FA   - Mayer's free valence

  ATOM       NA         ZA         QA         VA         BVA        FA
  0 C      6.1660     6.0000    -0.1660     3.9377     3.9377    -0.0000
  1 O      8.3023     8.0000    -0.3023     1.9643     1.9643     0.0000
  2 C      6.1660     6.0000    -0.1660     3.9377     3.9377    -0.0000
  3 H      0.9026     1.0000     0.0974     0.9653     0.9653    -0.0000
  4 H      0.9026     1.0000     0.0974     0.9653     0.9653    -0.0000
  5 H      0.8775     1.0000     0.1225     0.9674     0.9674    -0.0000
  6 H      0.8775     1.0000     0.1225     0.9674     0.9674    -0.0000
  7 H      0.9026     1.0000     0.0974     0.9653     0.9653     0.0000
  8 H      0.9026     1.0000     0.0974     0.9653     0.9653    -0.0000

  Mayer bond orders larger than 0.100000
B(  0-C ,  1-O ) :   0.9981 B(  0-C ,  3-H ) :   0.9765 B(  0-C ,  4-H ) :   0.9765 
B(  0-C ,  5-H ) :   0.9782 B(  1-O ,  2-C ) :   0.9981 B(  2-C ,  6-H ) :   0.9782 
B(  2-C ,  7-H ) :   0.9765 B(  2-C ,  8-H ) :   0.9765 

-------
TIMINGS
-------

Total SCF time: 0 days 0 hours 0 min 19 sec 

Total time                  ....      19.671 sec
Sum of individual times     ....      18.824 sec  ( 95.7%)

SCF preparation             ....       0.176 sec  (  0.9%)
Fock matrix formation       ....      17.973 sec  ( 91.4%)
  Startup                   ....       0.042 sec  (  0.2% of F)
  Split-RI-J                ....       0.584 sec  (  3.2% of F)
  Chain of spheres X        ....      13.737 sec  ( 76.4% of F)
  XC integration            ....       3.684 sec  ( 20.5% of F)
    XC Preparation          ....       0.000 sec  (  0.0% of XC)
    Basis function eval.    ....       0.836 sec  ( 22.7% of XC)
    Density eval.           ....       0.499 sec  ( 13.5% of XC)
    XC-Functional eval.     ....       0.895 sec  ( 24.3% of XC)
    XC-Potential eval.      ....       0.816 sec  ( 22.1% of XC)
Diagonalization             ....       0.000 sec  (  0.0%)
Density matrix formation    ....       0.124 sec  (  0.6%)
Total Energy calculation    ....       0.032 sec  (  0.2%)
Population analysis         ....       0.057 sec  (  0.3%)
Orbital Transformation      ....       0.050 sec  (  0.3%)
Orbital Orthonormalization  ....       0.000 sec  (  0.0%)
DIIS solution               ....       0.254 sec  (  1.3%)
  MO trafo                  ....       0.000 sec  (  0.0 % of DIIS)
  Orb grad                  ....       0.000 sec  (  0.0 % of DIIS)
  Energy W gradient         ....       0.000 sec  (  0.0 % of DIIS)
  DIIS error                ....       0.002 sec  (  0.7 % of DIIS)
  DIIS work                 ....       0.215 sec  ( 84.7 % of DIIS)
  Form Q                    ....       0.000 sec  (  0.0 % of DIIS)
  Form QpQm                 ....       0.000 sec  (  0.0 % of DIIS)
  Exp/Cayley                ....       0.000 sec  (  0.0 % of DIIS)
  Orb update                ....       0.000 sec  (  0.0 % of DIIS)
  Wake-sleep                ....       0.010 sec  (  3.8 % of DIIS)
SOSCF solution              ....       0.103 sec  (  0.5%)
  MO trafo                  ....       0.046 sec  ( 44.6 % of SOSCF)
  Orb grad                  ....       0.002 sec  (  1.6 % of SOSCF)
  Rot update                ....       0.032 sec  ( 30.9 % of SOSCF)
  Step                      ....       0.024 sec  ( 22.8 % of SOSCF)
Grid generation             ....       0.056 sec  (  0.3%)
Finished LeanSCF after  19.7 sec

Maximum memory used throughout the entire LEANSCF-calculation: 13.2 MB
------------------   -----------------
gCP correction             0.006244971
------------------   -----------------

-------------------------   --------------------
FINAL SINGLE POINT ENERGY      -155.028848013649
-------------------------   --------------------


------------------------------------------------------------------------------
                              ORCA PROPERTY CALCULATIONS
------------------------------------------------------------------------------

GBWName                                 ... sp_gas.gbw
Number of atoms                         ...      9
Number of basis functions               ...    129
Max core memory                         ...   1024 MB

Electric properties:
Dipole moment                           ... YES
Quadrupole moment                       ...  NO
Static polarizability (Dipole/Dipole)   ...  NO
Static polarizability (Dipole/Quad.)    ...  NO
Static polarizability (Quad./Quad.)     ...  NO
Static polarizability (Velocity)        ...  NO

Atomic electric properties:
Dipole moment                           ...  NO
Quadrupole moment                       ...  NO
Static polarizability                   ...  NO

Choice of electric origin               ... Center of mass
Position of electric origin             ...    -0.000005    -0.025613    -0.000027

General magnetic properties:
Magnetizability                         ...  NO

EPR properties:
g-Tensor (aka g-matrix)                 ...  NO
Zero-Field splitting spin-orbit         ...  NO
Zero-field splitting spin-spin          ...  NO
Hyperfine couplings                     ...  NO (   0 nuclei)
Quadrupole couplings                    ...  NO (   0 nuclei)
Contact density                         ...  NO (   0 nuclei)

NMR properties:
Chemical shifts                         ...  NO (   0 nuclei)
Spin-rotation constants                 ...  NO (   0 nuclei)
Spin-spin couplings                     ...  NO (   0 nuclei,    0 pairs)

Choice of magnetic origin               ... GIAO
Position of magnetic origin             ...     0.000000     0.000000     0.000000

Properties with geometric perturbations:
SCF Hessian                             ...  NO
IR spectrum                             ...  NO
VCD spectrum                            ...  NO
X-ray spectroscopy properties:
SCF XES/XAS/RIXS spectra                ...  NO


-------------
DIPOLE MOMENT
-------------

Method             : SCF
Type of density    : Electron Density
Multiplicity       :   1
Irrep              :   0
Energy             :  -155.0350929851485091 Eh
Relativity type    : 
Basis              : AO
                                X                 Y                 Z
Electronic contribution:      0.000042164      -2.019948340      -0.000074256
Nuclear contribution   :     -0.000053680       2.560897462       0.000092355
                        -----------------------------------------
Total Dipole Moment    :     -0.000011517       0.540949122       0.000018099
                        -----------------------------------------
Magnitude (a.u.)       :      0.540949123
Magnitude (Debye)      :      1.374983398



--------------------
Rotational spectrum 
--------------------
 
Rotational constants in cm-1:             1.269110             0.332283             0.292843 
Rotational constants in MHz :         38046.949948          9961.603207          8779.202654 

Dipole components along the rotational axes: 
x,y,z [a.u.] :    -0.000000     0.540949    -0.000003 
x,y,z [Debye]:    -0.000001     1.374983    -0.000007 

 

Dipole moment calculation done in   0.0 sec 

Maximum memory used throughout the entire PROP-calculation: 7.5 MB

--------------------------------
SUGGESTED CITATIONS FOR THIS RUN
--------------------------------

Below you find a list of papers that are relevant to this ORCA run
We neither can nor want to force you to cite these papers, but we appreciate if you do
You receive ORCA, which is the product of decades of hard work by many enthusiastic individuals, for free
The only thing we kindly ask in return is that you cite our papers,
We deeply appreciate it, if you show your appreciation for ORCA by not just citing the generic ORCA reference.

Please note that relegating all ORCA citations to the supporting information does *not* help us.
SI sections are not indexed - citations you put there will not count into any citation statistics
But we need these citations in order to attract the funding resources that allow us to do what we are doing

Therefore, if you are a happy ORCA user, please consider citing a few of the papers listed below in the main body of your paper

In addition to the list printed below, the program has created the file sp_gas.bibtex that contains the list in bibtex format
You can import this file easily into all common literature databanks and citation aid programs


List of essential papers. We consider these as the minimum necessary citations

  1. Neese,F.
     Software update: the ORCA program system, version 5.0
     WIRES Comput. Molec. Sci., 2022 12(1)e1606
     doi.org/10.1002/wcms.1606

List of papers to cite with high priority. The work reported in these papers was absolutely
necessary for this run to complete.
Our perspective: the developers of density functionals and basis sets usually get cited in chemistry papers
Good! But without the algorithms to do something with them, the functionals or basis sets would not do anything.
Hence, in our opinion, the algorithm design and method developments papers are equally worthy of getting cited

  1. Neese,F.
     An improvement of the resolution of the identity approximation for the formation of the Coulomb matrix
     J. Comp. Chem., 2003 24(14)1740-1747
     doi.org/10.1002/jcc.10318
  2. Neese,F.; Wennmohs,F.; Hansen,A.; Becker,U.
     Efficient, approximate and parallel Hartree-Fock and hybrid DFT calculations. A 'chain-of-spheres' algorithm for the Hartree-Fock exchange
     Chem. Phys., 2009 356(1-3)98-109
     doi.org/10.1016/j.chemphys.2008.10.036
  3. Helmich-Paris,B.; de Souza,B.; Neese,F.; Izsák,R.
     An improved chain of spheres for exchange algorithm
     J. Chem. Phys., 2021 155 104109
     doi.org/doi: 10.1063/5.0058766.
  4. Neese,F.
     The SHARK Integral Generation and Digestion System
     J. Comp. Chem., 2022  1-16
     doi.org/10.1002/jcc.26942

List of suggested additional citations. These are papers that are important in the 'surrounding' of 
of this run, or papers that preceded the highly important papers. If you like your results we are grateful for a citation.

  1. Izsak,R.; Neese,F.
     An overlap fitted chain of spheres exchange method
     J. Chem. Phys., 2011 135 144105
     doi.org/10.1063/1.3646921
  2. Izsak,R.; Hansen,A.; Neese,F.
     The resolution of identity and chain of spheres approximations for the LPNO-CCSD singles Fock term
     Molec. Phys., 2012 110 2413-2417
     doi.org/10.1080/00268976.2012.687466
  3. Neese,F.
     The ORCA program system
     WIRES Comput. Molec. Sci., 2012 2(1)73-78
     doi.org/10.1002/wcms.81
  4. Izsak,R.; Neese,F.; Klopper,W.
     Robust fitting techniques in the chain of spheres approximation to the Fock exchange: The role of the complementary space
     J. Chem. Phys., 2013 139 
     doi.org/10.1063/1.4819264
  5. Neese,F.
     Software update: the ORCA program system, version 4.0
     WIRES Comput. Molec. Sci., 2018 8(1)1-6
     doi.org/10.1002/wcms.1327
  6. Neese,F.; Wennmohs,F.; Becker,U.; Riplinger,C.
     The ORCA quantum chemistry program package
     J. Chem. Phys., 2020 152 Art. No. L224108
     doi.org/10.1063/5.0004608

List of optional additional citations

  1. Neese,F.
     Approximate second-order SCF convergence for spin unrestricted wavefunctions
     Chem. Phys. Lett., 2000 325(1-3)93-98
     doi.org/10.1016/s0009-2614(00)00662-x

Timings for individual modules:

Sum of individual times          ...       21.060 sec (=   0.351 min)
Startup calculation              ...        1.002 sec (=   0.017 min)   4.8 %
SCF iterations                   ...       19.969 sec (=   0.333 min)  94.8 %
Property calculations            ...        0.088 sec (=   0.001 min)   0.4 %
                             ****ORCA TERMINATED NORMALLY****
TOTAL RUN TIME: 0 days 0 hours 0 minutes 21 seconds 653 msec
