      -----------------------------------------------------------      
     |                   =====================                   |     
     |                           x T B                           |     
     |                   =====================                   |     
     |                         S. Grimme                         |     
     |          Mulliken Center for Theoretical Chemistry        |     
     |                    University of Bonn                     |     
      -----------------------------------------------------------      

   * xtb version 6.7.1 (edcfbbe) compiled by 'albert@albert-system' on 2024-07-22

   xtb is free software: you can redistribute it and/or modify it under
   the terms of the GNU Lesser General Public License as published by
   the Free Software Foundation, either version 3 of the License, or
   (at your option) any later version.
   
   xtb is distributed in the hope that it will be useful,
   but WITHOUT ANY WARRANTY; without even the implied warranty of
   MERCHANTABILITY or FITNESS FOR A PARTICULAR PURPOSE.  See the
   GNU Lesser General Public License for more details.
   
   Cite this work as:
   * C. Bannwarth, E. Caldeweyher, S. Ehlert, A. Hansen, P. Pracht,
     J. Seibert, S. Spicher, S. Grimme, WIREs Comput. Mol. Sci., 2020, 11,
     e01493. DOI: 10.1002/wcms.1493
   
   for GFN2-xTB:
   * C. Bannwarth, S. Ehlert and S. Grimme., J. Chem. Theory Comput., 2019,
     15, 1652-1671. DOI: 10.1021/acs.jctc.8b01176
   for GFN1-xTB:
   * S. Grimme, C. Bannwarth, P. Shushkov, J. Chem. Theory Comput., 2017,
     13, 1989-2009. DOI: 10.1021/acs.jctc.7b00118
   for GFN0-xTB:
   * P. Pracht, E. Caldeweyher, S. Ehlert, S. Grimme, ChemRxiv, 2019, preprint.
     DOI: 10.26434/chemrxiv.8326202.v1
   for GFN-FF:
   * S. Spicher and S. Grimme, Angew. Chem. Int. Ed., 2020, 59, 15665-15673.
     DOI: 10.1002/anie.202004239
   
   for ALPB and GBSA implicit solvation:
   * S. Ehlert, M. Stahn, S. Spicher, S. Grimme, J. Chem. Theory Comput.,
     2021, 17, 4250-4261. DOI: 10.1021/acs.jctc.1c00471
   
   for ddCOSMO and CPCM-X implicit solvation:
   * M. Stahn, S. Ehlert, S. Grimme, J. Phys. Chem. A,
     2023, XX, XXXX-XXXX. DOI: 10.1021/acs.jpca.3c04382
   
   for DFT-D4:
   * E. Caldeweyher, C. Bannwarth and S. Grimme, J. Chem. Phys., 2017,
     147, 034112. DOI: 10.1063/1.4993215
   * E. Caldeweyher, S. Ehlert, A. Hansen, H. Neugebauer, S. Spicher,
     C. Bannwarth and S. Grimme, J. Chem. Phys., 2019, 150, 154122.
     DOI: 10.1063/1.5090222
   * E. Caldeweyher, J.-M. Mewes, S. Ehlert and S. Grimme, Phys. Chem. Chem. Phys.
     2020, 22, 8499-8512. DOI: 10.1039/D0CP00502A
   
   for sTDA-xTB:
   * S. Grimme and C. Bannwarth, J. Chem. Phys., 2016, 145, 054103.
     DOI: 10.1063/1.4959605
   
   in the mass-spec context:
   * V. Asgeirsson, C. Bauer and S. Grimme, Chem. Sci., 2017, 8, 4879.
     DOI: 10.1039/c7sc00601b
   * J. Koopman and S. Grimme, ACS Omega 2019, 4, 12, 15120-15133.
     DOI: 10.1021/acsomega.9b02011
   
   for metadynamics refer to:
   * S. Grimme, J. Chem. Theory Comput., 2019, 155, 2847-2862
     DOI: 10.1021/acs.jctc.9b00143
   
   for SPH calculations refer to:
   * S. Spicher and S. Grimme, J. Chem. Theory Comput., 2021, 17, 1701-1714
     DOI: 10.1021/acs.jctc.0c01306
   
   for ONIOM refer to:
   * C. Plett, A. Katbashev, S. Ehlert, S. Grimme, M. Bursch,
     Phys. Chem. Chem. Phys., 2023, 25, 17860-17868. DOI: 10.1039/D3CP02178E
   
   for DIPRO refer to:
   * J. Kohn, N. Gildemeister, S. Grimme, D. Fazzi, A. Hansen,
     J. Chem. Phys., 2023, just accepted.
   
   for PTB refer to:
   * S. Grimme, M. Mueller, A. Hansen, J. Chem. Phys., 2023, 158, 124111.
     DOI: 10.1063/5.0137838
   
   with help from (in alphabetical order)
   P. Atkinson, C. Bannwarth, F. Bohle, G. Brandenburg, E. Caldeweyher
   M. Checinski, S. Dohm, S. Ehlert, S. Ehrlich, I. Gerasimov, C. Hölzer
   A. Katbashev, J. Kohn, J. Koopman, C. Lavigne, S. Lehtola, F. März, M. Müller,
   F. Musil, H. Neugebauer, J. Pisarek, C. Plett, P. Pracht, F. Pultar,
   J. Seibert, P. Shushkov, S. Spicher, M. Stahn, M. Steiner, T. Strunk,
   J. Stückrath, T. Rose, and J. Unsleber
   
 * started run on 2025/04/06 at 18:00:38.777     
   ID    Z sym.   atoms
    1    6 C      1, 2, 4, 6, 8, 10
    2    1 H      3, 5, 7, 9, 11, 18-24
    3    8 O      12-17

           -------------------------------------------------
          |                Calculation Setup                |
           -------------------------------------------------

          program call               : /srv/scratch/z5358697/.xtb/bin/xtb solv.coord --gfn2 --sp --chrg 0 --norestart --parallel 1 --alpb water reference -I xtb_sp-xcontrol-inp
          hostname                   : k155
          coordinate file            : solv.coord
          omp threads                :                     1


           -------------------------------------------------
          |                 G F N 2 - x T B                 |
           -------------------------------------------------

        Reference                      10.1021/acs.jctc.8b01176
      * Hamiltonian:
        H0-scaling (s, p, d)           1.850000    2.230000    2.230000
        zeta-weighting                 0.500000
      * Dispersion:
        s8                             2.700000
        a1                             0.520000
        a2                             5.000000
        s9                             5.000000
      * Repulsion:
        kExp                           1.500000    1.000000
        rExp                           1.000000
      * Coulomb:
        alpha                          2.000000
        third order                    shell-resolved
        anisotropic                    true
        a3                             3.000000
        a5                             4.000000
        cn-shift                       1.200000
        cn-exp                         4.000000
        max-rad                        5.000000

      * Solvation model:               ALPB
        Solvent                        water
        Parameter file                 internal GFN2-xTB/ALPB
        Dielectric constant                8.0200E+01
        Reference state                gsolv=reference [X=1]
        Free energy shift                  2.8945E-03 Eh       1.8164E+00 kcal/mol
        Temperature                        2.9815E+02 K
        Density                            1.0000E+00 kg/L
        Solvent mass                       1.8000E+01 g/mol
        Interaction kernel             P16
        Born radius scaling (c1)           1.4744E+00
        Born radii integrator          GBOBC
        Born offset                        0.0000E+00 a0       0.0000E+00 AA
        H-bond correction              true
        Ion screening                  false
        Surface tension                    1.0000E-05 Eh       1.5569E+01 dyn/cm
        Grid points                               974 per atom

          ...................................................
          :                      SETUP                      :
          :.................................................:
          :  # basis functions                  60          :
          :  # atomic orbitals                  60          :
          :  # shells                           36          :
          :  # electrons                        72          :
          :  max. iterations                   250          :
          :  Hamiltonian                  GFN2-xTB          :
          :  restarted?                      false          :
          :  GBSA solvation                   true          :
          :  PC potential                    false          :
          :  electronic temp.          300.0000000     K    :
          :  accuracy                    1.0000000          :
          :  -> integral cutoff          0.2500000E+02      :
          :  -> integral neglect         0.1000000E-07      :
          :  -> SCF convergence          0.1000000E-05 Eh   :
          :  -> wf. convergence          0.1000000E-03 e    :
          :  Broyden damping             0.4000000          :
          :  net charge                          0          :
          :  unpaired electrons                  0          :
          ...................................................

 iter      E             dE          RMSdq      gap      omega  full diag
   1    -43.6483764 -0.436484E+02  0.495E+00   10.17       0.0  T
   2    -43.6873141 -0.389377E-01  0.268E+00   10.04       1.0  T
   3    -43.6895963 -0.228223E-02  0.634E-01   10.10       1.0  T
   4    -43.6901142 -0.517912E-03  0.196E-01   10.11       1.0  T
   5    -43.6901875 -0.732409E-04  0.922E-02   10.13       1.0  T
   6    -43.6902093 -0.218058E-04  0.255E-02   10.13       1.0  T
   7    -43.6902106 -0.127503E-05  0.739E-03   10.13       2.8  T
   8    -43.6902109 -0.346533E-06  0.274E-03   10.13       7.4  T
   9    -43.6902109 -0.178821E-07  0.102E-03   10.13      19.9  T
  10    -43.6902109 -0.378099E-08  0.331E-04   10.13      61.6  T
  11    -43.6902109 -0.619472E-09  0.989E-05   10.13     206.4  T

   *** convergence criteria satisfied after 11 iterations ***

         #    Occupation            Energy/Eh            Energy/eV
      -------------------------------------------------------------
         1        2.0000           -0.7321008             -19.9215
       ...           ...                  ...                  ...
        30        2.0000           -0.4604728             -12.5301
        31        2.0000           -0.4512350             -12.2787
        32        2.0000           -0.4348046             -11.8316
        33        2.0000           -0.4272695             -11.6266
        34        2.0000           -0.4220659             -11.4850
        35        2.0000           -0.4156934             -11.3116
        36        2.0000           -0.4115008             -11.1975 (HOMO)
        37                         -0.0392184              -1.0672 (LUMO)
        38                          0.0015506               0.0422
        39                          0.0161920               0.4406
        40                          0.0377047               1.0260
        41                          0.0599346               1.6309
       ...                                ...                  ...
        60                          0.2852646               7.7624
      -------------------------------------------------------------
                  HL-Gap            0.3722824 Eh           10.1303 eV
             Fermi-level           -0.2253596 Eh           -6.1323 eV

 SCC (total)                   0 d,  0 h,  0 min,  0.031 sec
 SCC setup                      ...        0 min,  0.001 sec (  4.744%)
 Dispersion                     ...        0 min,  0.000 sec (  0.470%)
 classical contributions        ...        0 min,  0.000 sec (  0.090%)
 integral evaluation            ...        0 min,  0.003 sec (  8.497%)
 iterations                     ...        0 min,  0.019 sec ( 62.452%)
 molecular gradient             ...        0 min,  0.007 sec ( 23.261%)
 printout                       ...        0 min,  0.000 sec (  0.443%)

         :::::::::::::::::::::::::::::::::::::::::::::::::::::
         ::                     SUMMARY                     ::
         :::::::::::::::::::::::::::::::::::::::::::::::::::::
         :: total energy             -43.387515030087 Eh    ::
         :: total w/o Gsasa/hb       -43.366854687045 Eh    ::
         :: gradient norm              0.000031541578 Eh/a0 ::
         :: HOMO-LUMO gap             10.130320678985 eV    ::
         ::.................................................::
         :: SCC energy               -43.690091614273 Eh    ::
         :: -> isotropic ES            0.170638751850 Eh    ::
         :: -> anisotropic ES         -0.010393539267 Eh    ::
         :: -> anisotropic XC         -0.010835900802 Eh    ::
         :: -> dispersion             -0.018970777956 Eh    ::
         :: -> Gsolv                  -0.039192015327 Eh    ::
         ::    -> Gelec               -0.018531672285 Eh    ::
         ::    -> Gsasa                0.004697681880 Eh    ::
         ::    -> Ghb                 -0.028252574082 Eh    ::
         ::    -> Gshift               0.002894549160 Eh    ::
         :: repulsion energy           0.302576584186 Eh    ::
         :: add. restraining           0.000000000000 Eh    ::
         :: total charge               0.000000000000 e     ::
         :::::::::::::::::::::::::::::::::::::::::::::::::::::

           -------------------------------------------------
          |                Property Printout                |
           -------------------------------------------------

    * Orbital Energies and Occupations

         #    Occupation            Energy/Eh            Energy/eV
      -------------------------------------------------------------
         1        2.0000           -0.7321008             -19.9215
       ...           ...                  ...                  ...
        24        2.0000           -0.5198838             -14.1468
        25        2.0000           -0.5152346             -14.0202
        26        2.0000           -0.5000167             -13.6061
        27        2.0000           -0.4940183             -13.4429
        28        2.0000           -0.4907641             -13.3544
        29        2.0000           -0.4642258             -12.6322
        30        2.0000           -0.4604728             -12.5301
        31        2.0000           -0.4512350             -12.2787
        32        2.0000           -0.4348046             -11.8316
        33        2.0000           -0.4272695             -11.6266
        34        2.0000           -0.4220659             -11.4850
        35        2.0000           -0.4156934             -11.3116
        36        2.0000           -0.4115008             -11.1975 (HOMO)
        37                         -0.0392184              -1.0672 (LUMO)
        38                          0.0015506               0.0422
        39                          0.0161920               0.4406
        40                          0.0377047               1.0260
        41                          0.0599346               1.6309
        42                          0.0618488               1.6830
        43                          0.0828965               2.2557
        44                          0.0911419               2.4801
        45                          0.1029529               2.8015
        46                          0.1156759               3.1477
        47                          0.1265971               3.4449
       ...                                ...                  ...
        60                          0.2852646               7.7624
      -------------------------------------------------------------
                  HL-Gap            0.3722824 Eh           10.1303 eV
             Fermi-level           -0.2253596 Eh           -6.1323 eV

     #   Z          covCN         q      C6AA      α(0)
     1   6 C        3.675     0.070    19.621     6.347
     2   6 C        3.746     0.096    19.060     6.227
     3   1 H        0.923     0.039     2.464     2.455
     4   6 C        3.726     0.093    19.139     6.246
     5   1 H        0.923     0.033     2.550     2.497
     6   6 C        3.730     0.098    19.049     6.230
     7   1 H        0.923     0.029     2.595     2.519
     8   6 C        3.727     0.098    19.063     6.234
     9   1 H        0.923     0.042     2.423     2.434
    10   6 C        3.623     0.250    17.125     5.964
    11   1 H        0.922     0.007     2.935     2.679
    12   8 O        1.702    -0.368    20.225     6.072
    13   8 O        1.658    -0.487    22.622     6.421
    14   8 O        1.656    -0.499    22.880     6.457
    15   8 O        1.656    -0.501    22.907     6.461
    16   8 O        1.655    -0.499    22.877     6.457
    17   8 O        1.655    -0.507    23.050     6.481
    18   1 H        0.924     0.055     2.256     2.349
    19   1 H        0.924     0.049     2.327     2.385
    20   1 H        0.804     0.399     0.487     1.096
    21   1 H        0.804     0.378     0.528     1.141
    22   1 H        0.804     0.371     0.541     1.155
    23   1 H        0.804     0.366     0.552     1.167
    24   1 H        0.805     0.388     0.506     1.118

 Mol. C6AA /au·bohr⁶  :       4754.808253
 Mol. C8AA /au·bohr⁸  :     101136.664091
 Mol. α(0) /au        :         98.592936


Wiberg/Mayer (AO) data.
largest (>0.10) Wiberg bond orders for each atom

 ---------------------------------------------------------------------------
     #   Z sym  total        # sym  WBO       # sym  WBO       # sym  WBO
 ---------------------------------------------------------------------------
     1   6 C    3.955 --    17 O    1.003     2 C    0.983    18 H    0.968
                            19 H    0.968
     2   6 C    3.939 --     1 C    0.983     4 C    0.965    12 O    0.963
                             3 H    0.956
     3   1 H    0.998 --     2 C    0.956
     4   6 C    3.964 --    16 O    1.003     6 C    0.968     2 C    0.965
                             5 H    0.955
     5   1 H    0.999 --     4 C    0.955
     6   6 C    3.962 --    15 O    0.999     8 C    0.970     4 C    0.968
                             7 H    0.957
     7   1 H    0.999 --     6 C    0.957
     8   6 C    3.963 --    14 O    1.004     6 C    0.970    10 C    0.961
                             9 H    0.957
     9   1 H    0.998 --     8 C    0.957
    10   6 C    3.932 --    13 O    1.028     8 C    0.961    12 O    0.950
                            11 H    0.944
    11   1 H    1.000 --    10 C    0.944
    12   8 O    2.055 --     2 C    0.963    10 C    0.950
    13   8 O    1.940 --    10 C    1.028    20 H    0.823
    14   8 O    1.917 --     8 C    1.004    21 H    0.842
    15   8 O    1.919 --     6 C    0.999    22 H    0.845
    16   8 O    1.918 --     4 C    1.003    23 H    0.828
    17   8 O    1.919 --     1 C    1.003    24 H    0.834
    18   1 H    0.997 --     1 C    0.968
    19   1 H    0.998 --     1 C    0.968
    20   1 H    0.841 --    13 O    0.823
    21   1 H    0.857 --    14 O    0.842
    22   1 H    0.862 --    15 O    0.845
    23   1 H    0.865 --    16 O    0.828
    24   1 H    0.848 --    17 O    0.834
 ---------------------------------------------------------------------------

Topologies differ in total number of bonds
Writing topology from bond orders to xtbtopo.mol

molecular dipole:
                 x           y           z       tot (Debye)
 q only:       -1.849      -0.477      -0.124
   full:       -2.254      -0.644      -0.089       5.962
molecular quadrupole (traceless):
                xx          xy          yy          xz          yz          zz
 q only:        4.587       6.648       2.981       3.383      -0.906      -7.568
  q+dip:        0.296      10.248       2.366       4.901      -2.501      -2.662
   full:        1.965       9.668       3.130       4.690      -2.039      -5.095


           -------------------------------------------------
          | TOTAL ENERGY              -43.387515030087 Eh   |
          | GRADIENT NORM               0.000031541578 Eh/α |
          | HOMO-LUMO GAP              10.130320678985 eV   |
           -------------------------------------------------

------------------------------------------------------------------------
 * finished run on 2025/04/06 at 18:00:38.846     
------------------------------------------------------------------------
 total:
 * wall-time:     0 d,  0 h,  0 min,  0.069 sec
 *  cpu-time:     0 d,  0 h,  0 min,  0.029 sec
 * ratio c/w:     0.427 speedup
 SCF:
 * wall-time:     0 d,  0 h,  0 min,  0.031 sec
 *  cpu-time:     0 d,  0 h,  0 min,  0.021 sec
 * ratio c/w:     0.659 speedup

