
                                 *****************
                                 * O   R   C   A *
                                 *****************

                                            #,                                       
                                            ###                                      
                                            ####                                     
                                            #####                                    
                                            ######                                   
                                           ########,                                 
                                     ,,################,,,,,                         
                               ,,#################################,,                 
                          ,,##########################################,,             
                       ,#########################################, ''#####,          
                    ,#############################################,,   '####,        
                  ,##################################################,,,,####,       
                ,###########''''           ''''###############################       
              ,#####''   ,,,,##########,,,,          '''####'''          '####       
            ,##' ,,,,###########################,,,                        '##       
           ' ,,###''''                  '''############,,,                           
         ,,##''                                '''############,,,,        ,,,,,,###''
      ,#''                                            '''#######################'''  
     '                                                          ''''####''''         
             ,#######,   #######,   ,#######,      ##                                
            ,#'     '#,  ##    ##  ,#'     '#,    #''#        ,####,   ,####,        
            ##       ##  ##   ,#'  ##            #'  '#       #'       #'  '#        
            ##       ##  #######   ##           ,######,      #####,   #    #        
            '#,     ,#'  ##    ##  '#,     ,#' ,#      #,     #,   #   #,  ,#        
             '#######'   ##     ##  '#######'  #'      '#     '####' # '####'        



                #########################################################
                #                        -***-                          #
                #          Department of theory and spectroscopy        #
                #                                                       #
                #                      Frank Neese                      #
                #                                                       #
                #     Directorship, Architecture, Infrastructure        #
                #                    SHARK, DRIVERS                     #
                #        Core code/Algorithms in most modules           #
                #                                                       #
                #        Max Planck Institute fuer Kohlenforschung      #
                #                Kaiser Wilhelm Platz 1                 #
                #                 D-45470 Muelheim/Ruhr                 #
                #                      Germany                          #
                #                                                       #
                #                  All rights reserved                  #
                #                        -***-                          #
                #########################################################


                         Program Version 6.0.0  -   RELEASE  -


 With contributions from (in alphabetic order):
   Daniel Aravena         : Magnetic Suceptibility
   Michael Atanasov       : Ab Initio Ligand Field Theory (pilot matlab implementation)
   Alexander A. Auer      : GIAO ZORA, VPT2 properties, NMR spectrum
   Ute Becker             : All parallelization in ORCA, NUMFREQ, NUMCALC
   Giovanni Bistoni       : ED, misc. LED, open-shell LED, HFLD
   Martin Brehm           : Molecular dynamics
   Dmytro Bykov           : pre 5.0 version of the SCF Hessian
   Marcos Casanova-Páez   : Triplet and SCS-CIS(D). UHF-(DLPNO)-IP/EA/STEOM-CCSD. UHF-CVS-IP/STEOM-CCSD
   Vijay G. Chilkuri      : MRCI spin determinant printing, contributions to CSF-ICE
   Pauline Colinet        : FMM embedding
   Dipayan Datta          : RHF DLPNO-CCSD density
   Achintya Kumar Dutta   : EOM-CC, STEOM-CC
   Nicolas Foglia         : Exact transition moments, OPA infrastructure, MCD improvements
   Dmitry Ganyushin       : Spin-Orbit,Spin-Spin,Magnetic field MRCI
   Miquel Garcia          : C-PCM and meta-GGA Hessian, CCSD/C-PCM, Gaussian charge scheme
   Tiago L. C. Gouveia    : GS-ROHF, GS-ROCIS
   Yang Guo               : DLPNO-NEVPT2, F12-NEVPT2, CIM, IAO-localization
   Andreas Hansen         : Spin unrestricted coupled pair/coupled cluster methods
   Ingolf Harden          : AUTO-CI MPn and infrastructure 
   Benjamin Helmich-Paris : MC-RPA, TRAH-(SCF,CASSCF), AVAS, COSX integrals, SCF dyn. polar.
   Lee Huntington         : MR-EOM, pCC
   Robert Izsak           : Overlap fitted RIJCOSX, COSX-SCS-MP3, EOM
   Riya Kayal             : Wick's Theorem for AUTO-CI, AUTO-CI UHF-CCSDT
   Emily Kempfer          : AUTO-CI, RHF CISDT and CCSDT
   Christian Kollmar      : KDIIS, OOCD, Brueckner-CCSD(T), CCSD density, CASPT2, CASPT2-K, improved NEVPT2
   Axel Koslowski         : Symmetry handling
   Simone Kossmann        : Meta GGA functionals, TD-DFT gradient, OOMP2, (MP2 Hessian; deprecated post 5.0)
   Lucas Lang             : DCDCAS
   Marvin Lechner         : AUTO-CI (C++ implementation), FIC-MRCC
   Spencer Leger          : CASSCF response
   Dagmar Lenk            : GEPOL surface, SMD, ORCA-2-JSON
   Dimitrios Liakos       : Extrapolation schemes; Compound Job, initial MDCI parallelization
   Dimitrios Manganas     : Further ROCIS development; embedding schemes. LFT, Crystal Embedding
   Dimitrios Pantazis     : SARC Basis sets
   Anastasios Papadopoulos: AUTO-CI, single reference methods and gradients
   Taras Petrenko         : pre 6.0 DFT Hessian and TD-DFT gradient, (ASA, deprecated), ECA, 1-Electron XAS/XES, NRVS
   Peter Pinski           : DLPNO-MP2, DLPNO-MP2 Gradient
   Christoph Reimann      : Effective Core Potentials
   Marius Retegan         : Local ZFS, SOC
   Christoph Riplinger    : Optimizer, TS searches, QM/MM, DLPNO-CCSD(T), (RO)-DLPNO pert. Triples
   Michael Roemelt        : Original ROCIS implementation
   Masaaki Saitow         : Open-shell DLPNO-CCSD energy and density
   Barbara Sandhoefer     : DKH picture change effects
   Kantharuban Sivalingam : CASSCF convergence/infrastructure, NEVPT2 and variants, FIC-MRCI
   Bernardo de Souza      : ESD, SOC TD-DFT
   Georgi Stoychev        : AutoAux, RI-MP2 NMR, DLPNO-MP2 response, X2C
   Van Anh Tran           : RI-MP2 g-tensors
   Willem Van den Heuvel  : Paramagnetic NMR
   Zikuan Wang            : NOTCH, Electric field optimization 
   Frank Wennmohs         : Technical directorship and infrastructure
   Hang Xu                : AUTO-CI-Response properties 


 We gratefully acknowledge several colleagues who have allowed us to
 interface, adapt or use parts of their codes:
   Stefan Grimme, W. Hujo, H. Kruse, P. Pracht,  : VdW corrections, initial TS optimization,
                  C. Bannwarth, S. Ehlert,         DFT functionals, gCP, sTDA/sTD-DF
                  L. Wittmann, M. Mueller
   Ed Valeev, F. Pavosevic, A. Kumar             : LibInt (2-el integral package), F12 methods
   Garnet Chan, S. Sharma, J. Yang, R. Olivares  : DMRG
   Ulf Ekstrom                                   : XCFun DFT Library
   Mihaly Kallay                                 : mrcc  (arbitrary order and MRCC methods)
   Frank Weinhold                                : gennbo (NPA and NBO analysis)
   Simon Mueller                                 : openCOSMO-RS
   Christopher J. Cramer and Donald G. Truhlar   : smd solvation model
   Lars Goerigk                                  : TD-DFT with DH, B97 family of functionals
   V. Asgeirsson, H. Jonsson                     : NEB implementation
   FAccTs GmbH                                   : IRC, NEB, NEB-TS, DLPNO-Multilevel, CI-OPT
                                                   MM, QMMM, 2- and 3-layer-ONIOM, Crystal-QMMM,
                                                   LR-CPCM, SF, NACMEs, symmetry and pop. for TD-DFT,
                                                   nearIR, NL-DFT gradient (VV10), updates on ESD,
                                                   ML-optimized integration grids, MBIS, APM,
                                                   GOAT, DOCKER, SOLVATOR, interface openCOSMO-RS
   S Lehtola, MJT Oliveira, MAL Marques          : LibXC Library
   Liviu Ungur et al                             : ANISO software


 Your calculation uses the libint2 library for the computation of 2-el integrals
 For citations please refer to: http://libint.valeyev.net

 Your ORCA version has been built with support for libXC version: 6.2.2
 For citations please refer to: https://libxc.gitlab.io

 This ORCA versions uses:
   CBLAS   interface :  Fast vector & matrix operations
   LAPACKE interface :  Fast linear algebra routines
   SCALAPACK package :  Parallel linear algebra routines
   Shared memory     :  Shared parallel matrices
   BLAS/LAPACK       :  OpenBLAS 0.3.27  USE64BITINT DYNAMIC_ARCH NO_AFFINITY SkylakeX SINGLE_THREADED
        Core in use  :  SkylakeX
   Copyright (c) 2011-2014, The OpenBLAS Project


Your calculation utilizes the geometrical counterpoise correction gCP
Please cite in your paper:
H.Kruse, S. Grimme J.Chem.Phys., 136, (2012), 154101 
   

Your calculation utilizes the DFT-NL dispersion correction.
Cite in your paper:
Vydrov, O. A.; Van Voorhis, T. J. Chem. Phys. 2010, 133, 244103
Hujo, W.; Grimme, S. J. Chem. Theory Comput. 2011, 7, 3866 
   

Your calculation utilizes the SMD solvation module
Please cite in your paper:
A.V. Marenich, C.J. Cramer, D.G. Truhlar J. Phys. Chem. B, 113, (2009), 6378 

================================================================================

----- Orbital basis set information -----
Your calculation utilizes the basis: def2-TZVP
   F. Weigend and R. Ahlrichs, Phys. Chem. Chem. Phys. 7, 3297 (2005).

----- AuxJ basis set information -----
Your calculation utilizes the auxiliary basis: def2/J
   F. Weigend, Phys. Chem. Chem. Phys. 8, 1057 (2006).

================================================================================
                                        WARNINGS
                       Please study these warnings very carefully!
================================================================================


================================================================================
                                       INPUT FILE
================================================================================
NAME = sp_solv.inp
|  1> ! wb97x-v def2-tzvp def2/J RIJCOSX DEFGRID2 scfconv7 GCP(DFT/TZ) printgap
|  2> %output
|  3>     printlevel normal
|  4> end
|  5> %cpcm
|  6>     smd true
|  7>     smdsolvent "water"
|  8> end
|  9> * xyz 0 1
| 10> C 1.338020681838336 1.3292863599376419 1.2521060216737759e-05
| 11> C -0.028954424450867898 1.119098693102973 4.4885940114443815e-06
| 12> C -0.49419791732947665 -0.1998630376785774 0.00014960405858891696
| 13> C 0.4373628340245669 -1.2402273140181566 6.732491319564986e-05
| 14> N 1.7609721112404038 -1.0503515503168215 -3.610371581938663e-05
| 15> C 2.185814275320305 0.22263372975637513 -2.7002398269557467e-05
| 16> C -1.9232291861172324 -0.5258202298202099 0.0006650047525196499
| 17> O -2.81849334870644 0.3093911116984224 -8.893833627308375e-05
| 18> H 1.7549523786626877 2.3300151344770894 5.84422176590502e-05
| 19> H -0.731216089365256 1.9464067283294664 0.0001250224465266157
| 20> H 0.09001988373491232 -2.2720623672193376 3.287845050824353e-05
| 21> H 3.2633250318014086 0.3682983389485408 -6.866001422749316e-05
| 22> H -2.161576604703615 -1.6067048485372637 -0.000586023060972236
| 23> *
| 24> 
| 25>                          ****END OF INPUT****
================================================================================

                       ****************************
                       * Single Point Calculation *
                       ****************************

---------------------------------
CARTESIAN COORDINATES (ANGSTROEM)
---------------------------------
  C      1.338021    1.329286    0.000013
  C     -0.028954    1.119099    0.000004
  C     -0.494198   -0.199863    0.000150
  C      0.437363   -1.240227    0.000067
  N      1.760972   -1.050352   -0.000036
  C      2.185814    0.222634   -0.000027
  C     -1.923229   -0.525820    0.000665
  O     -2.818493    0.309391   -0.000089
  H      1.754952    2.330015    0.000058
  H     -0.731216    1.946407    0.000125
  H      0.090020   -2.272062    0.000033
  H      3.263325    0.368298   -0.000069
  H     -2.161577   -1.606705   -0.000586

----------------------------
CARTESIAN COORDINATES (A.U.)
----------------------------
  NO LB      ZA    FRAG     MASS         X           Y           Z
   0 C     6.0000    0    12.011    2.528493    2.511987    0.000024
   1 C     6.0000    0    12.011   -0.054716    2.114790    0.000008
   2 C     6.0000    0    12.011   -0.933899   -0.377686    0.000283
   3 C     6.0000    0    12.011    0.826496   -2.343690    0.000127
   4 N     7.0000    0    14.007    3.327755   -1.984877   -0.000068
   5 C     6.0000    0    12.011    4.130590    0.420717   -0.000051
   6 C     6.0000    0    12.011   -3.634376   -0.993656    0.001257
   7 O     8.0000    0    15.999   -5.326181    0.584664   -0.000168
   8 H     1.0000    0     1.008    3.316379    4.403090    0.000110
   9 H     1.0000    0     1.008   -1.381798    3.678176    0.000236
  10 H     1.0000    0     1.008    0.170113   -4.293576    0.000062
  11 H     1.0000    0     1.008    6.166791    0.695983   -0.000130
  12 H     1.0000    0     1.008   -4.084788   -3.036232   -0.001107

--------------------------------
INTERNAL COORDINATES (ANGSTROEM)
--------------------------------
 C      0   0   0     0.000000000000     0.00000000     0.00000000
 C      1   0   0     1.383040056025     0.00000000     0.00000000
 C      2   1   0     1.398610587687   118.17091569     0.00000000
 C      3   2   1     1.396482462373   118.72865476     0.00000000
 N      4   3   2     1.337159053767   123.67827476     0.00000000
 C      5   4   3     1.342006850857   116.61931534     0.00000000
 C      3   2   1     1.465734875044   122.27865610   179.97636417
 O      7   3   2     1.224367785532   124.13837265     0.06198175
 H      1   2   3     1.084107984528   121.35938511   180.00956122
 H      2   1   3     1.085177425902   121.58490730   179.98540285
 H      4   3   2     1.088728939322   119.55357356   180.00879953
 H      6   5   4     1.087312103510   116.15468310   179.99748437
 H      7   3   2     1.106852571934   115.28446638   179.92455736

---------------------------
INTERNAL COORDINATES (A.U.)
---------------------------
 C      0   0   0     0.000000000000     0.00000000     0.00000000
 C      1   0   0     2.613566938129     0.00000000     0.00000000
 C      2   1   0     2.642990978731   118.17091569     0.00000000
 C      3   2   1     2.638969404710   118.72865476     0.00000000
 N      4   3   2     2.526864409113   123.67827476     0.00000000
 C      5   4   3     2.536025417965   116.61931534     0.00000000
 C      3   2   1     2.769837498770   122.27865610   179.97636417
 O      7   3   2     2.313719801851   124.13837265     0.06198175
 H      1   2   3     2.048667190355   121.35938511   180.00956122
 H      2   1   3     2.050688141668   121.58490730   179.98540285
 H      4   3   2     2.057399529393   119.55357356   180.00879953
 H      6   5   4     2.054722097731   116.15468310   179.99748437
 H      7   3   2     2.091648231581   115.28446638   179.92455736

---------------------
BASIS SET INFORMATION
---------------------
There are 4 groups of distinct atoms

 Group   1 Type C   : 11s6p2d1f contracted to 5s3p2d1f pattern {62111/411/11/1}
 Group   2 Type N   : 11s6p2d1f contracted to 5s3p2d1f pattern {62111/411/11/1}
 Group   3 Type O   : 11s6p2d1f contracted to 5s3p2d1f pattern {62111/411/11/1}
 Group   4 Type H   : 5s1p contracted to 3s1p pattern {311/1}

Atom   0C    basis set group =>   1
Atom   1C    basis set group =>   1
Atom   2C    basis set group =>   1
Atom   3C    basis set group =>   1
Atom   4N    basis set group =>   2
Atom   5C    basis set group =>   1
Atom   6C    basis set group =>   1
Atom   7O    basis set group =>   3
Atom   8H    basis set group =>   4
Atom   9H    basis set group =>   4
Atom  10H    basis set group =>   4
Atom  11H    basis set group =>   4
Atom  12H    basis set group =>   4
---------------------------------
AUXILIARY/J BASIS SET INFORMATION
---------------------------------
There are 4 groups of distinct atoms

 Group   1 Type C   : 12s5p4d2f1g contracted to 6s4p3d1f1g pattern {711111/2111/211/2/1}
 Group   2 Type N   : 12s5p4d2f1g contracted to 6s4p3d1f1g pattern {711111/2111/211/2/1}
 Group   3 Type O   : 12s5p4d2f1g contracted to 6s4p3d1f1g pattern {711111/2111/211/2/1}
 Group   4 Type H   : 5s2p1d contracted to 3s1p1d pattern {311/2/1}

Atom   0C    basis set group =>   1
Atom   1C    basis set group =>   1
Atom   2C    basis set group =>   1
Atom   3C    basis set group =>   1
Atom   4N    basis set group =>   2
Atom   5C    basis set group =>   1
Atom   6C    basis set group =>   1
Atom   7O    basis set group =>   3
Atom   8H    basis set group =>   4
Atom   9H    basis set group =>   4
Atom  10H    basis set group =>   4
Atom  11H    basis set group =>   4
Atom  12H    basis set group =>   4

Checking for AutoStart:
The File: sp_solv.gbw exists
Trying to determine its content:
     ... Fine, the file contains calculation information
     ... Fine, the calculation information was read
     ... Fine, the file contains a basis set
     ... Fine, the basis set was read
     ... Fine, the file contains a geometry
     ... Fine, the geometry was read
     ... Fine, the file contains a set of orbitals
     ... Fine, the orbitals can be read
     => possible old guess file was deleted
     => GBW file was renamed to GES file
     => GES file is set as startup file
     => Guess is set to MORead
     ... now leaving AutoStart

------------------------------------------------------------------------------
                             ORCA STARTUP CALCULATIONS
                           -- RI-GTO INTEGRALS CHOSEN --
------------------------------------------------------------------------------
------------------------------------------------------------------------------
                   ___                                                        
                  /   \      - P O W E R E D   B Y -                         
                 /     \                                                     
                 |  |  |   _    _      __       _____    __    __             
                 |  |  |  | |  | |    /  \     |  _  \  |  |  /  |          
                  \  \/   | |  | |   /    \    | | | |  |  | /  /          
                 / \  \   | |__| |  /  /\  \   | |_| |  |  |/  /          
                |  |  |   |  __  | /  /__\  \  |    /   |      \           
                |  |  |   | |  | | |   __   |  |    \   |  |\   \          
                \     /   | |  | | |  |  |  |  | |\  \  |  | \   \       
                 \___/    |_|  |_| |__|  |__|  |_| \__\ |__|  \__/        
                                                                              
                      - O R C A' S   B I G   F R I E N D -                    
                                      &                                       
                       - I N T E G R A L  F E E D E R -                       
                                                                              
 v1 FN, 2020, v2 2021, v3 2022-2024                                           
------------------------------------------------------------------------------


----------------------
SHARK INTEGRAL PACKAGE
----------------------

Number of atoms                             ...     13
Number of basis functions                   ...    278
Number of shells                            ...    108
Maximum angular momentum                    ...      3
Integral batch strategy                     ... SHARK/LIBINT Hybrid
RI-J (if used) integral strategy            ... SPLIT-RIJ (Revised 2003 algorithm where possible)
Printlevel                                  ...      1
Contraction scheme used                     ... SEGMENTED contraction
Prescreening option                         ... SCHWARTZ
   Thresh                                   ... 3.000e-11
   Tcut                                     ... 1.000e-12
   Tpresel                                  ... 1.000e-12 
Coulomb Range Separation                    ... NOT USED
Exchange Range Separation                   ... Long Range
   Mu parameter                             ... 3.000e-01
   Scaling (regular/separated)              ... 1.670e-01 8.330e-01
Multipole approximations                    ... NOT USED
Finite Nucleus Model                        ... NOT USED
CABS basis                                  ... NOT available
Auxiliary Coulomb fitting basis             ... AVAILABLE
   # of basis functions in Aux-J            ...    447
   # of shells in Aux-J                     ...    145
   Maximum angular momentum in Aux-J        ...      4
Auxiliary J/K fitting basis                 ... NOT available
Auxiliary Correlation fitting basis         ... NOT available
Auxiliary 'external' fitting basis          ... NOT available

Checking pre-screening integrals            ... done (  0.0 sec) Dimension = 108
Check shell pair data                       ... done (  0.0 sec)
Shell pair information
Shell pair cut-off parameter TPreSel        ...   1.0e-12
Total number of shell pairs                 ...      5886
Shell pairs after pre-screening             ...      5445
Total number of primitive shell pairs       ...     18336
Primitive shell pairs kept                  ...     12880
          la=0 lb=0:   1348 shell pairs
          la=1 lb=0:   1493 shell pairs
          la=1 lb=1:    423 shell pairs
          la=2 lb=0:    819 shell pairs
          la=2 lb=1:    449 shell pairs
          la=2 lb=2:    130 shell pairs
          la=3 lb=0:    403 shell pairs
          la=3 lb=1:    224 shell pairs
          la=3 lb=2:    122 shell pairs
          la=3 lb=3:     34 shell pairs

Calculating one electron integrals          ... done (  0.0 sec)
Calculating RI/J V-Matrix + Cholesky decomp.... done (  0.1 sec)
Calculating Nuclear repulsion               ... done (  0.0 sec) ENN=    324.266557426552 Eh

Diagonalization of the overlap matrix:
Smallest eigenvalue                        ... 5.160e-05
Time for diagonalization                   ...    0.006 sec
Threshold for overlap eigenvalues          ... 1.000e-07
Number of eigenvalues below threshold      ... 0
Time for construction of square roots      ...    0.016 sec
Total time needed                          ...    0.030 sec

-------------------
DFT GRID GENERATION
-------------------

General Integration Accuracy     IntAcc      ... 4.388
Radial Grid Type                 RadialGrid  ... OptM3 with GC (2021)
Angular Grid (max. ang.)         AngularGrid ... 4 (Lebedev-302)
Angular grid pruning method      GridPruning ... 4 (adaptive)
Weight generation scheme         WeightScheme... mBecke (2022)
Basis function cutoff            BFCut       ... 1.0000e-11
Integration weight cutoff        WCut        ... 1.0000e-14
Partially contracted basis set               ... off
Rotationally invariant grid construction     ... off
Angular grids for H and He will be reduced by one unit

Total number of grid points                  ...    64429
Total number of batches                      ...     1014
Average number of points per batch           ...       63
Average number of grid points per atom       ...     4956

--------------------
COSX GRID GENERATION
--------------------

GRIDX 1
-------
General Integration Accuracy     IntAcc      ... 3.816
Radial Grid Type                 RadialGrid  ... OptM3 with GC (2021)
Angular Grid (max. ang.)         AngularGrid ... 1 (Lebedev-50)
Angular grid pruning method      GridPruning ... 4 (adaptive)
Weight generation scheme         WeightScheme... mBecke (2022)
Basis function cutoff            BFCut       ... 1.0000e-11
Integration weight cutoff        WCut        ... 1.0000e-14
Partially contracted basis set               ... on
Rotationally invariant grid construction     ... off
Angular grids for H and He will be reduced by one unit

Total number of grid points                  ...     8222
Total number of batches                      ...       71
Average number of points per batch           ...      115
Average number of grid points per atom       ...      632
UseSFitting                                  ... on

GRIDX 2
-------
General Integration Accuracy     IntAcc      ... 4.020
Radial Grid Type                 RadialGrid  ... OptM3 with GC (2021)
Angular Grid (max. ang.)         AngularGrid ... 2 (Lebedev-110)
Angular grid pruning method      GridPruning ... 4 (adaptive)
Weight generation scheme         WeightScheme... mBecke (2022)
Basis function cutoff            BFCut       ... 1.0000e-11
Integration weight cutoff        WCut        ... 1.0000e-14
Partially contracted basis set               ... on
Rotationally invariant grid construction     ... off
Angular grids for H and He will be reduced by one unit

Total number of grid points                  ...    18354
Total number of batches                      ...      150
Average number of points per batch           ...      122
Average number of grid points per atom       ...     1412
UseSFitting                                  ... on

GRIDX 3
-------
General Integration Accuracy     IntAcc      ... 4.338
Radial Grid Type                 RadialGrid  ... OptM3 with GC (2021)
Angular Grid (max. ang.)         AngularGrid ... 3 (Lebedev-194)
Angular grid pruning method      GridPruning ... 4 (adaptive)
Weight generation scheme         WeightScheme... mBecke (2022)
Basis function cutoff            BFCut       ... 1.0000e-11
Integration weight cutoff        WCut        ... 1.0000e-14
Partially contracted basis set               ... on
Rotationally invariant grid construction     ... off
Angular grids for H and He will be reduced by one unit

Total number of grid points                  ...    40428
Total number of batches                      ...      322
Average number of points per batch           ...      125
Average number of grid points per atom       ...     3110
UseSFitting                                  ... on
Initializing property integral containers    ... done (  0.0 sec)

SHARK setup successfully completed in   1.8 seconds

Maximum memory used throughout the entire STARTUP-calculation: 38.9 MB
-------------------------------------------------------------------------------
                                 ORCA GUESS
                   Start orbitals & Density for SCF / CASSCF
-------------------------------------------------------------------------------

------------
SCF SETTINGS
------------
Hamiltonian:
 Density Functional     Method          .... DFT(GTOs)
 Exchange Functional    Exchange        .... WB97X-V
 Correlation Functional Correlation     .... WB97X-V
 Gradients option       PostSCFGGA      .... off
 Hybrid DFT is turned on
   Fraction HF Exchange ScalHFX         ....  0.167000
   Scaling of DF-GGA-X  ScalDFX         ....  0.000000
   Scaling of DF-GGA-C  ScalDFC         ....  1.000000
   Scaling of DF-LDA-C  ScalLDAC        ....  1.000000
   Perturbative correction              ....  0.000000
 Long-range corrected/Screened/Range-Separated Hybrid DFT is turned on
   Amount of maximum screened exact exchange              ....  0.833000
   Range separation parameter mu (erf(mu*r12)/r12)        ....  0.300000
   NL short-range parameter             ....  6.000000
   NL long-range parameter              ....  0.010000
 RI-approximation to the Coulomb term is turned on
   Number of AuxJ basis functions       .... 447
   RIJ-COSX (HFX calculated with COS-X)).... on


General Settings:
 Integral files         IntName         .... sp_solv
 Hartree-Fock type      HFTyp           .... RHF
 Total Charge           Charge          ....    0
 Multiplicity           Mult            ....    1
 Number of Electrons    NEL             ....   56
 Basis Dimension        Dim             ....  278
 Nuclear Repulsion      ENuc            ....    324.2665574266 Eh

Convergence Acceleration:
 AO-DIIS                CNVDIIS         .... on
   Start iteration      DIISMaxIt       ....    12
   Startup error        DIISStart       ....  0.200000
   # of expansion vecs  DIISMaxEq       ....     5
   Bias factor          DIISBfac        ....   1.050
   Max. coefficient     DIISMaxC        ....  10.000
 MO-DIIS                CNVKDIIS        .... off
 Trust-Rad. Augm. Hess. CNVTRAH         .... auto
   Auto Start mean grad. ratio tolernc. ....  1.125000
   Auto Start start iteration           ....     1
   Auto Start num. interpolation iter.  ....    10
   Max. Number of Micro iterations      ....    24
   Max. Number of Macro iterations      .... Maxiter - #DIIS iter
   Number of Davidson start vectors     ....     2
   Converg. threshold    (grad. norm)   ....   1.000e-04
   Grad. Scal. Fac. for Micro threshold ....   0.100
   Minimum threshold for Micro iter.    ....   1.000e-02
   NR start threshold (gradient norm)   ....   1.000e-04
   Initial trust radius                 ....   0.400
   Minimum AH scaling param. (alpha)    ....   1.000
   Maximum AH scaling param. (alpha)    .... 1000.000
   Quad. conv. algorithm                .... NR
   White noise on init. David. guess    .... on
   Maximum white noise                  ....   0.010
   Pseudo random numbers                .... off
   Inactive MOs                         .... canonical
   Orbital update algorithm             .... Taylor
   Preconditioner                       .... Diag
   Full preconditioner red. dimension   ....   250
 SOSCF                  CNVSOSCF        .... on
   Start iteration      SOSCFMaxIt      ....   150
   Startup grad/error   SOSCFStart      ....  0.003300
   Hessian update       SOSCFHessUp     .... L-BFGS
 Level Shifting         CNVShift        .... on
   Level shift para.    LevelShift      ....    0.2500
   Turn off err/grad.   ShiftErr        ....    0.0010
 Zerner damping         CNVZerner       .... off
 Static damping         CNVDamp         .... on
   Fraction old density DampFac         ....    0.7000
   Max. Damping (<1)    DampMax         ....    0.9800
   Min. Damping (>=0)   DampMin         ....    0.0000
   Turn off err/grad.   DampErr         ....    0.1000

SCF Procedure:
 Maximum # iterations   MaxIter         ....   125
 SCF integral mode      SCFMode         .... Direct
   Integral package                     .... SHARK and LIBINT hybrid scheme
 Reset frequency        DirectResetFreq ....    20
 Integral Threshold     Thresh          ....  3.000e-11 Eh
 Primitive CutOff       TCut            ....  1.000e-12 Eh

Convergence Tolerance:
 Convergence Check Mode ConvCheckMode   .... Total+1el-Energy
 Convergence forced     ConvForced      .... 0
 Energy Change          TolE            ....  1.000e-07 Eh
 1-El. energy change                    ....  1.000e-04 Eh
 Orbital Gradient       TolG            ....  1.000e-04
 Orbital Rotation angle TolX            ....  1.000e-04
 DIIS Error             TolErr          ....  1.000e-07

---------------------
INITIAL GUESS: MOREAD
---------------------
Guess MOs are being read from file: sp_solv.ges
Input Geometry matches current geometry (good)
Atom 0: N(Shells)= 11 and 9 - projection required
Input basis set needs projection
NBasis(read)= 187
NBasis(calc)= 278
Basis set overlap was calculated
Using GuessMode=FMatrix for the initial guess
C*T matrix was formed
Effective Fockian was calculated
Effective Fockian was diagonalized
Initial density was built
                      ------------------
                      INITIAL GUESS DONE (   0.1 sec)
                      ------------------
             **** ENERGY FILE WAS UPDATED (sp_solv.en.tmp) ****
Finished Guess after   0.4 sec
Maximum memory used throughout the entire GUESS-calculation: 24.0 MB

-------------------------------------------------------------------------------------------
                                      ORCA LEAN-SCF
                              memory conserving SCF solver
-------------------------------------------------------------------------------------------

--------------------
CPCM SOLVATION MODEL
--------------------
CPCM parameters:
  Epsilon                                         ...      78.3550
  Refrac                                          ...       1.3328
  Rsolv                                           ...       1.3000
  Surface type                                    ... GAUSSIAN VDW
  Discretization scheme                           ... Constant charge density
    Threshold for H atoms                         ...       5.0000 (charges/Ang^2)
    Threshold for non-H atoms                     ...       5.0000 (charges/Ang^2)
  Epsilon function type                           ...         CPCM
Solvent:                                          ... WATER
SMD-CDS solvent descriptors:
  Soln                                            ...       1.3328
  Soln25                                          ...       1.3323
  Sola                                            ...       0.0000
  Solb                                            ...       0.0000
  Solg                                            ...       0.0000
  Solc                                            ...       0.0000
  Solh                                            ...       0.0000
Radii:
  Scheme                                          ... Element-dependent radii
  Radius for C  used is    3.4960 Bohr (=   1.8500 Ang.)
  Radius for N  used is    3.5716 Bohr (=   1.8900 Ang.)
  Radius for O  used is    2.8724 Bohr (=   1.5200 Ang.)
  Radius for H  used is    2.2677 Bohr (=   1.2000 Ang.)
Calculating surface                               ...        done! (  0.0s)
Cavity surface points                             ...         1078
Cavity Volume                                     ...     758.6364
Cavity Surface-area                               ...     476.9446
Calculating surface distance matrix               ...        done! (  0.0s)
Performing Cholesky decomposition & store         ...        done! (  0.0s)
Overall time for CPCM initialization              ...                 0.0s

----------------------------------------D-I-I-S--------------------------------------------
Iteration    Energy (Eh)           Delta-E    RMSDP     MaxDP     DIISErr   Damp  Time(sec)
-------------------------------------------------------------------------------------------
               ***  Starting incremental Fock matrix formation  ***
    1    -361.8448698549972278     0.00e+00  1.44e-03  4.56e-02  5.07e-02  0.700  13.1
    2    -361.8500611153128830    -5.19e-03  1.26e-03  4.47e-02  3.67e-02  0.700   6.6
                               ***Turning on AO-DIIS***
    3    -361.8539766665414845    -3.92e-03  1.04e-03  3.95e-02  2.62e-02  0.700   6.7
    4    -361.8568629405766615    -2.89e-03  2.61e-03  1.01e-01  1.85e-02  0.000   6.6
                              *** Initializing SOSCF ***
---------------------------------------S-O-S-C-F--------------------------------------
Iteration    Energy (Eh)           Delta-E    RMSDP     MaxDP     MaxGrad    Time(sec)
--------------------------------------------------------------------------------------
    5    -361.8642293278883244    -7.37e-03  1.26e-04  5.22e-03  1.92e-03     7.0
               *** Restarting incremental Fock matrix formation ***
    6    -361.8642657912731693    -3.65e-05  7.19e-05  3.17e-03  8.95e-04    13.0
    7    -361.8642793633243855    -1.36e-05  5.02e-05  2.35e-03  3.84e-04    10.5
    8    -361.8642821113259060    -2.75e-06  7.76e-06  5.68e-04  9.75e-05    10.3
    9    -361.8642821825170586    -7.12e-08  4.31e-06  2.77e-04  9.30e-05     9.4
                 **** Energy Check signals convergence ****

               *****************************************************
               *                     SUCCESS                       *
               *           SCF CONVERGED AFTER   9 CYCLES          *
               *****************************************************


------------------
NL GRID GENERATION
------------------

General Integration Accuracy     IntAcc      ... 4.004
Radial Grid Type                 RadialGrid  ... OptM3 with GC (2021)
Angular Grid (max. ang.)         AngularGrid ... 2 (Lebedev-110)
Angular grid pruning method      GridPruning ... 4 (adaptive)
Weight generation scheme         WeightScheme... mBecke (2022)
Basis function cutoff            BFCut       ... 1.0000e-10
Integration weight cutoff        WCut        ... 1.0000e-14
Partially contracted basis set               ... off
Rotationally invariant grid construction     ... off
Angular grids for H and He will be reduced by one unit

Total number of grid points                  ...    21065
Total number of batches                      ...      338
Average number of points per batch           ...       62
Average number of grid points per atom       ...     1620
Final grid set up in    0.2 sec

-------------------------------------------------------------------------------
                    post-SCF DFT-NL dispersion correction                      
-------------------------------------------------------------------------------

SCF Energy:     -361.864282183 
NL    Energy:      0.216190905 
SC+NL Energy:   -361.648091277 
NL done in  :              1.7 sec
-------------------------------------------------------------------------------
Recomputing exchange energy using gridx3       ... done (   22.615 sec)
Old exchange energy                            :    -15.282413616 Eh
New exchange energy                            :    -15.282424798 Eh
Exchange energy change after final integration :     -0.000011182 Eh
Total energy after final integration           :   -361.648102459 Eh

SMD CDS free energy correction energy :                 2.78840     Kcal/mol
Total Energy after SMD CDS correction =              -361.643658856 Eh
             **** ENERGY FILE WAS UPDATED (sp_solv.en.tmp) ****

----------------
TOTAL SCF ENERGY
----------------

Total Energy       :       -361.64365885632105 Eh           -9840.82426 eV

Components:
Nuclear Repulsion  :        324.26655742655180 Eh            8823.74162 eV
Electronic Energy  :       -686.10978372894704 Eh          -18669.99638 eV
One Electron Energy:      -1131.32839330848265 Eh          -30785.01066 eV
Two Electron Energy:        445.21860957953561 Eh           12115.01428 eV
CPCM Dielectric    :         -0.02105588012182 Eh              -0.57296 eV
SMD CDS (Gcds)     :          0.00444360301148 Eh               0.12092 eV

Virial components:
Potential Energy   :       -721.91693580448248 Eh          -19644.35852 eV
Kinetic Energy     :        360.27327694816142 Eh            9803.53427 eV
Virial Ratio       :          2.00380372899086

DFT components:
N(Alpha)           :       27.999936546426 electrons
N(Beta)            :       27.999936546426 electrons
N(Total)           :       55.999873092852 electrons
E(X)               :      -32.420648955059 Eh       
E(C)               :       -2.346977391642 Eh       
NL Energy, E(C,NL) :        0.216190905077 Eh       
E(XC)              :      -34.551435441624 Eh       

CPCM Solvation Model Properties:
Surface-charge          :         -0.03884240144833
Corrected charge        :         -0.00000000000000
Outlying charge corr.   :          0.00012425681838 Eh               0.00338 eV
Free-energy (cav+disp)  :          0.00444360301148 Eh               0.12092 eV

---------------
SCF CONVERGENCE
---------------

  Last Energy change         ...    7.1191e-08  Tolerance :   1.0000e-07
  Last MAX-Density change    ...    2.7690e-04  Tolerance :   1.0000e-05
  Last RMS-Density change    ...    4.3082e-06  Tolerance :   1.0000e-06
  Last DIIS Error            ...    1.9153e-03  Tolerance :   1.0000e-07
  Last Orbital Gradient      ...    9.3004e-05  Tolerance :   1.0000e-04
  Last Orbital Rotation      ...    1.1048e-04  Tolerance :   1.0000e-04


----------------
ORBITAL ENERGIES
----------------

  NO   OCC          E(Eh)            E(eV) 
   0   2.0000     -21.682141      -590.0010 
   1   2.0000     -16.539522      -450.0633 
   2   2.0000     -12.149978      -330.6177 
   3   2.0000     -12.099893      -329.2548 
   4   2.0000     -12.097748      -329.1965 
   5   2.0000     -12.080913      -328.7384 
   6   2.0000     -12.070605      -328.4579 
   7   2.0000     -12.063044      -328.2521 
   8   2.0000      -1.726118       -46.9701 
   9   2.0000      -1.533452       -41.7273 
  10   2.0000      -1.364565       -37.1317 
  11   2.0000      -1.317138       -35.8412 
  12   2.0000      -1.207332       -32.8532 
  13   2.0000      -1.155861       -31.4526 
  14   2.0000      -1.128036       -30.6954 
  15   2.0000      -1.033768       -28.1303 
  16   2.0000      -1.024073       -27.8664 
  17   2.0000      -0.984687       -26.7947 
  18   2.0000      -0.973511       -26.4906 
  19   2.0000      -0.920872       -25.0582 
  20   2.0000      -0.906072       -24.6555 
  21   2.0000      -0.883656       -24.0455 
  22   2.0000      -0.860999       -23.4290 
  23   2.0000      -0.843584       -22.9551 
  24   2.0000      -0.810757       -22.0618 
  25   2.0000      -0.779529       -21.2121 
  26   2.0000      -0.715585       -19.4720 
  27   2.0000      -0.667333       -18.1590 
  28   0.0000      -0.352943        -9.6041 
  29   0.0000      -0.293247        -7.9796 
  30   0.0000      -0.222931        -6.0663 
  31   0.0000      -0.089738        -2.4419 
  32   0.0000      -0.070027        -1.9055 
  33   0.0000      -0.029271        -0.7965 
  34   0.0000      -0.022463        -0.6113 
  35   0.0000      -0.004856        -0.1321 
  36   0.0000       0.010364         0.2820 
  37   0.0000       0.042183         1.1478 
  38   0.0000       0.049405         1.3444 
*Only the first 10 virtual orbitals were printed.

                    ********************************
                    * MULLIKEN POPULATION ANALYSIS *
                    ********************************

-----------------------
MULLIKEN ATOMIC CHARGES
-----------------------
   0 C :   -0.112351
   1 C :   -0.205533
   2 C :    0.122572
   3 C :   -0.068641
   4 N :   -0.286200
   5 C :   -0.027824
   6 C :    0.160142
   7 O :   -0.420165
   8 H :    0.178040
   9 H :    0.176367
  10 H :    0.175852
  11 H :    0.170766
  12 H :    0.136973
Sum of atomic charges:    0.0000000

--------------------------------
MULLIKEN REDUCED ORBITAL CHARGES
--------------------------------
  0 C s       :     3.145076  s :     3.145076
      pz      :     0.972532  p :     2.876510
      px      :     0.927781
      py      :     0.976197
      dz2     :     0.004935  d :     0.083409
      dxz     :     0.015041
      dyz     :     0.007130
      dx2y2   :     0.024707
      dxy     :     0.031597
      f0      :     0.001604  f :     0.007355
      f+1     :     0.000609
      f-1     :     0.000710
      f+2     :     0.000523
      f-2     :     0.000551
      f+3     :     0.001239
      f-3     :     0.002120

  1 C s       :     3.259984  s :     3.259984
      pz      :     0.850244  p :     2.843554
      px      :     1.010343
      py      :     0.982968
      dz2     :     0.003403  d :     0.094458
      dxz     :     0.017045
      dyz     :     0.013226
      dx2y2   :     0.022489
      dxy     :     0.038295
      f0      :     0.001517  f :     0.007537
      f+1     :     0.000583
      f-1     :     0.000603
      f+2     :     0.001119
      f-2     :     0.000228
      f+3     :     0.001369
      f-3     :     0.002119

  2 C s       :     3.098233  s :     3.098233
      pz      :     1.003302  p :     2.654348
      px      :     0.792382
      py      :     0.858664
      dz2     :     0.007036  d :     0.114832
      dxz     :     0.011194
      dyz     :     0.019500
      dx2y2   :     0.039450
      dxy     :     0.037652
      f0      :     0.001880  f :     0.010015
      f+1     :     0.000850
      f-1     :     0.000684
      f+2     :     0.000534
      f-2     :     0.000826
      f+3     :     0.002249
      f-3     :     0.002991

  3 C s       :     3.213529  s :     3.213529
      pz      :     0.864448  p :     2.734977
      px      :     0.855905
      py      :     1.014624
      dz2     :     0.002505  d :     0.109590
      dxz     :     0.030079
      dyz     :     0.007824
      dx2y2   :     0.035112
      dxy     :     0.034070
      f0      :     0.001837  f :     0.010545
      f+1     :     0.000949
      f-1     :     0.000652
      f+2     :     0.001046
      f-2     :     0.000828
      f+3     :     0.002235
      f-3     :     0.002998

  4 N s       :     3.510572  s :     3.510572
      pz      :     1.132531  p :     3.707280
      px      :     1.237436
      py      :     1.337312
      dz2     :     0.006386  d :     0.064514
      dxz     :     0.011277
      dyz     :     0.010567
      dx2y2   :     0.021535
      dxy     :     0.014749
      f0      :     0.000622  f :     0.003835
      f+1     :     0.000300
      f-1     :     0.000274
      f+2     :     0.000562
      f-2     :     0.000235
      f+3     :     0.000856
      f-3     :     0.000986

  5 C s       :     3.199429  s :     3.199429
      pz      :     0.859354  p :     2.711121
      px      :     1.028498
      py      :     0.823269
      dz2     :     0.002704  d :     0.107011
      dxz     :     0.007431
      dyz     :     0.028303
      dx2y2   :     0.044079
      dxy     :     0.024495
      f0      :     0.001817  f :     0.010261
      f+1     :     0.000680
      f-1     :     0.000903
      f+2     :     0.000647
      f-2     :     0.001155
      f+3     :     0.002119
      f-3     :     0.002940

  6 C s       :     3.252258  s :     3.252258
      pz      :     0.668667  p :     2.423585
      px      :     0.822296
      py      :     0.932621
      dz2     :     0.005847  d :     0.149269
      dxz     :     0.036605
      dyz     :     0.013702
      dx2y2   :     0.068705
      dxy     :     0.024410
      f0      :     0.002081  f :     0.014747
      f+1     :     0.000969
      f-1     :     0.000784
      f+2     :     0.000433
      f-2     :     0.002262
      f+3     :     0.004362
      f-3     :     0.003856

  7 O s       :     3.808306  s :     3.808306
      pz      :     1.369024  p :     4.580563
      px      :     1.601057
      py      :     1.610482
      dz2     :     0.002484  d :     0.029504
      dxz     :     0.005910
      dyz     :     0.004971
      dx2y2   :     0.007621
      dxy     :     0.008518
      f0      :     0.000158  f :     0.001792
      f+1     :     0.000095
      f-1     :     0.000079
      f+2     :     0.000006
      f-2     :     0.000457
      f+3     :     0.000501
      f-3     :     0.000495

  8 H s       :     0.799794  s :     0.799794
      pz      :     0.004312  p :     0.022166
      px      :     0.005024
      py      :     0.012830

  9 H s       :     0.801466  s :     0.801466
      pz      :     0.003522  p :     0.022167
      px      :     0.008579
      py      :     0.010066

 10 H s       :     0.802805  s :     0.802805
      pz      :     0.003608  p :     0.021343
      px      :     0.003971
      py      :     0.013764

 11 H s       :     0.807931  s :     0.807931
      pz      :     0.003615  p :     0.021303
      px      :     0.014695
      py      :     0.002993

 12 H s       :     0.843096  s :     0.843096
      pz      :     0.002110  p :     0.019931
      px      :     0.003172
      py      :     0.014648


------------------------
MULLIKEN OVERLAP CHARGES
------------------------
B(  0-C ,  1-C ) :   0.8230 B(  0-C ,  3-C ) :  -0.0562 B(  0-C ,  4-N ) :  -0.0556 
B(  0-C ,  5-C ) :   0.9783 B(  0-C ,  8-H ) :   0.8625 B(  0-C ,  9-H ) :  -0.0749 
B(  0-C , 11-H ) :  -0.0758 B(  1-C ,  2-C ) :   0.2383 B(  1-C ,  4-N ) :  -0.2216 
B(  1-C ,  5-C ) :   0.1348 B(  1-C ,  7-O ) :   0.0832 B(  1-C ,  8-H ) :  -0.1274 
B(  1-C ,  9-H ) :   0.9048 B(  1-C , 12-H ) :   0.0574 B(  2-C ,  3-C ) :   1.0448 
B(  2-C ,  5-C ) :  -0.1514 B(  2-C ,  6-C ) :   0.1811 B(  2-C ,  7-O ) :  -0.3829 
B(  2-C ,  9-H ) :  -0.1538 B(  2-C , 10-H ) :  -0.0977 B(  2-C , 12-H ) :  -0.3340 
B(  3-C ,  4-N ) :   1.0003 B(  3-C ,  5-C ) :  -0.1716 B(  3-C ,  6-C ) :  -0.0910 
B(  3-C , 10-H ) :   0.8496 B(  4-N ,  5-C ) :   0.9748 B(  5-C ,  8-H ) :  -0.0766 
B(  5-C , 11-H ) :   0.8394 B(  6-C ,  7-O ) :   1.2975 B(  6-C , 12-H ) :   0.9838 
B(  7-O , 12-H ) :  -0.1081 


                     *******************************
                     * LOEWDIN POPULATION ANALYSIS *
                     *******************************

----------------------
LOEWDIN ATOMIC CHARGES
----------------------
   0 C :   -0.134007
   1 C :   -0.043702
   2 C :   -0.174836
   3 C :   -0.143106
   4 N :    0.087222
   5 C :   -0.169670
   6 C :   -0.211263
   7 O :    0.024022
   8 H :    0.159631
   9 H :    0.163219
  10 H :    0.154611
  11 H :    0.148661
  12 H :    0.139217

-------------------------------
LOEWDIN REDUCED ORBITAL CHARGES
-------------------------------
  0 C s       :     2.768007  s :     2.768007
      pz      :     0.887141  p :     2.958993
      px      :     1.058695
      py      :     1.013156
      dz2     :     0.025556  d :     0.364354
      dxz     :     0.052821
      dyz     :     0.019192
      dx2y2   :     0.126203
      dxy     :     0.140582
      f0      :     0.003172  f :     0.042654
      f+1     :     0.004203
      f-1     :     0.003381
      f+2     :     0.003696
      f-2     :     0.003968
      f+3     :     0.009687
      f-3     :     0.014546

  1 C s       :     2.762141  s :     2.762141
      pz      :     0.788822  p :     2.853799
      px      :     1.046714
      py      :     1.018263
      dz2     :     0.024803  d :     0.383762
      dxz     :     0.052117
      dyz     :     0.040478
      dx2y2   :     0.103191
      dxy     :     0.163173
      f0      :     0.003166  f :     0.044000
      f+1     :     0.003651
      f-1     :     0.003433
      f+2     :     0.007979
      f-2     :     0.001497
      f+3     :     0.009762
      f-3     :     0.014512

  2 C s       :     2.713251  s :     2.713251
      pz      :     0.881316  p :     2.925551
      px      :     0.999359
      py      :     1.044876
      dz2     :     0.036633  d :     0.480584
      dxz     :     0.040040
      dyz     :     0.066809
      dx2y2   :     0.171464
      dxy     :     0.165637
      f0      :     0.003996  f :     0.055451
      f+1     :     0.004419
      f-1     :     0.004414
      f+2     :     0.003912
      f-2     :     0.006256
      f+3     :     0.013658
      f-3     :     0.018796

  3 C s       :     2.773661  s :     2.773661
      pz      :     0.810351  p :     2.824292
      px      :     0.995996
      py      :     1.017946
      dz2     :     0.031489  d :     0.484139
      dxz     :     0.091045
      dyz     :     0.019597
      dx2y2   :     0.173532
      dxy     :     0.168475
      f0      :     0.004230  f :     0.061014
      f+1     :     0.006187
      f-1     :     0.003191
      f+2     :     0.006489
      f-2     :     0.005759
      f+3     :     0.014580
      f-3     :     0.020578

  4 N s       :     3.048463  s :     3.048463
      pz      :     1.030907  p :     3.632459
      px      :     1.275544
      py      :     1.326009
      dz2     :     0.017548  d :     0.213951
      dxz     :     0.029175
      dyz     :     0.023226
      dx2y2   :     0.073970
      dxy     :     0.070033
      f0      :     0.001027  f :     0.017904
      f+1     :     0.001496
      f-1     :     0.001229
      f+2     :     0.003096
      f-2     :     0.000395
      f+3     :     0.004545
      f-3     :     0.006115

  5 C s       :     2.784603  s :     2.784603
      pz      :     0.809389  p :     2.839702
      px      :     1.009137
      py      :     1.021175
      dz2     :     0.031519  d :     0.484946
      dxz     :     0.014954
      dyz     :     0.092470
      dx2y2   :     0.213259
      dxy     :     0.132744
      f0      :     0.004170  f :     0.060419
      f+1     :     0.003191
      f-1     :     0.006244
      f+2     :     0.003658
      f-2     :     0.008240
      f+3     :     0.013312
      f-3     :     0.021604

  6 C s       :     2.819609  s :     2.819609
      pz      :     0.660523  p :     2.665507
      px      :     1.005203
      py      :     0.999781
      dz2     :     0.039193  d :     0.633805
      dxz     :     0.107887
      dyz     :     0.031502
      dx2y2   :     0.296343
      dxy     :     0.158881
      f0      :     0.006957  f :     0.092342
      f+1     :     0.006926
      f-1     :     0.005711
      f+2     :     0.002560
      f-2     :     0.015165
      f+3     :     0.029214
      f-3     :     0.025809

  7 O s       :     3.413527  s :     3.413527
      pz      :     1.287048  p :     4.490214
      px      :     1.586678
      py      :     1.616488
      dz2     :     0.007315  d :     0.066511
      dxz     :     0.006358
      dyz     :     0.005174
      dx2y2   :     0.024467
      dxy     :     0.023197
      f0      :     0.000317  f :     0.005725
      f+1     :     0.000513
      f-1     :     0.000469
      f+2     :     0.000014
      f-2     :     0.000624
      f+3     :     0.001987
      f-3     :     0.001802

  8 H s       :     0.780140  s :     0.780140
      pz      :     0.012639  p :     0.060229
      px      :     0.014151
      py      :     0.033439

  9 H s       :     0.776601  s :     0.776601
      pz      :     0.010485  p :     0.060179
      px      :     0.022918
      py      :     0.026776

 10 H s       :     0.786575  s :     0.786575
      pz      :     0.010954  p :     0.058814
      px      :     0.011475
      py      :     0.036385

 11 H s       :     0.792952  s :     0.792952
      pz      :     0.010727  p :     0.058387
      px      :     0.038529
      py      :     0.009131

 12 H s       :     0.804704  s :     0.804704
      pz      :     0.006511  p :     0.056080
      px      :     0.009118
      py      :     0.040450


---------------------------------
LOEWDIN BOND ORDERS (THRESH 0.050000)
---------------------------------
B(  0-C ,  1-C ) :   1.6003 B(  0-C ,  2-C ) :   0.2433 B(  0-C ,  3-C ) :   0.1169 
B(  0-C ,  4-N ) :   0.1862 B(  0-C ,  5-C ) :   1.5741 B(  0-C ,  8-H ) :   0.8234 
B(  0-C ,  9-H ) :   0.0941 B(  0-C , 11-H ) :   0.0952 B(  1-C ,  2-C ) :   1.4324 
B(  1-C ,  3-C ) :   0.2306 B(  1-C ,  4-N ) :   0.0862 B(  1-C ,  5-C ) :   0.2669 
B(  1-C ,  6-C ) :   0.1873 B(  1-C ,  8-H ) :   0.0955 B(  1-C ,  9-H ) :   0.8149 
B(  2-C ,  3-C ) :   1.4741 B(  2-C ,  4-N ) :   0.1852 B(  2-C ,  5-C ) :   0.1120 
B(  2-C ,  6-C ) :   1.2217 B(  2-C ,  7-O ) :   0.1831 B(  2-C ,  9-H ) :   0.0914 
B(  2-C , 10-H ) :   0.0936 B(  2-C , 12-H ) :   0.0864 B(  3-C ,  4-N ) :   1.7843 
B(  3-C ,  5-C ) :   0.3039 B(  3-C ,  6-C ) :   0.2148 B(  3-C , 10-H ) :   0.8334 
B(  4-N ,  5-C ) :   1.7700 B(  4-N , 10-H ) :   0.0758 B(  4-N , 11-H ) :   0.0767 
B(  5-C ,  8-H ) :   0.0973 B(  5-C , 11-H ) :   0.8461 B(  6-C ,  7-O ) :   2.6574 
B(  6-C , 12-H ) :   0.8523 B(  7-O , 12-H ) :   0.0760 

------------------------------------------
LOEWDIN REDUCED ORBITAL POPULATIONS PER MO
-------------------------------------------
THRESHOLD FOR PRINTING IS 0.1%%
                      0         1         2         3         4         5   
                 -21.68214 -16.53952 -12.14998 -12.09989 -12.09775 -12.08091
                   2.00000   2.00000   2.00000   2.00000   2.00000   2.00000
                  --------  --------  --------  --------  --------  --------
 0 C  s               0.0       0.0       0.0       0.0       0.1       0.3
 0 C  dx2y2           0.0       0.0       0.0       0.0       0.0       0.2
 0 C  dxy             0.0       0.0       0.0       0.0       0.2       0.0
 1 C  s               0.0       0.0       0.0       0.0       0.0      97.7
 2 C  s               0.0       0.0       0.0       0.1       0.0       0.9
 2 C  dx2y2           0.0       0.0       0.1       0.0       0.0       0.1
 2 C  dxy             0.0       0.0       0.0       0.2       0.0       0.1
 3 C  s               0.0       0.0       0.0      98.4       0.6       0.0
 3 C  dx2y2           0.0       0.1       0.0       0.0       0.0       0.0
 4 N  s               0.0      99.4       0.0       0.0       0.0       0.0
 4 N  px              0.0       0.0       0.0       0.1       0.0       0.0
 4 N  dx2y2           0.0       0.0       0.0       0.2       0.1       0.0
 5 C  s               0.0       0.0       0.0       0.6      98.4       0.0
 6 C  s               0.0       0.0      99.2       0.0       0.0       0.0
 7 O  s              99.7       0.0       0.0       0.0       0.0       0.0
 7 O  dxy             0.0       0.0       0.2       0.0       0.0       0.0

                      6         7         8         9        10        11   
                 -12.07060 -12.06304  -1.72612  -1.53345  -1.36456  -1.31714
                   2.00000   2.00000   2.00000   2.00000   2.00000   2.00000
                  --------  --------  --------  --------  --------  --------
 0 C  s               0.1      98.5       0.0       1.8       8.4      15.7
 0 C  px              0.0       0.0       0.0       0.0       4.0       0.3
 0 C  py              0.0       0.0       0.0       2.2       0.3       1.5
 0 C  dz2             0.0       0.0       0.0       0.2       0.3       0.3
 0 C  dx2y2           0.0       0.0       0.0       0.2       0.7       0.0
 0 C  dxy             0.0       0.0       0.0       0.1       0.3       0.6
 0 C  f+3             0.0       0.0       0.0       0.0       0.0       0.1
 1 C  s               0.9       0.4       0.1       1.0      19.6       1.9
 1 C  px              0.0       0.1       0.2       0.5       0.4       6.0
 1 C  py              0.1       0.0       0.1       0.7       2.7       2.1
 1 C  dz2             0.1       0.1       0.0       0.1       0.6       0.0
 1 C  dx2y2           0.1       0.2       0.0       0.0       0.0       1.8
 1 C  dxy             0.1       0.0       0.0       0.0       0.4       0.1
 1 C  f+3             0.0       0.0       0.0       0.0       0.1       0.0
 2 C  s              97.7       0.1       0.5       2.0      19.3       6.5
 2 C  px              0.0       0.0       1.8       2.1       0.2       0.1
 2 C  py              0.0       0.0       0.0       0.2       1.6       4.6
 2 C  dz2             0.0       0.0       0.1       0.2       0.7       0.1
 2 C  dx2y2           0.0       0.0       0.5       0.1       0.3       0.0
 2 C  dxy             0.0       0.0       0.1       0.2       0.5       0.9
 2 C  f+3             0.0       0.0       0.0       0.0       0.2       0.0
 2 C  f-3             0.0       0.0       0.0       0.0       0.0       0.1
 3 C  s               0.1       0.0       0.0      11.5       1.3      10.8
 3 C  px              0.0       0.0       0.0       7.6       6.5       0.9
 3 C  py              0.0       0.0       0.0       1.1       2.9       0.3
 3 C  dz2             0.1       0.0       0.0       0.9       0.1       0.1
 3 C  dx2y2           0.0       0.0       0.0       1.4       0.7       0.2
 3 C  dxy             0.2       0.0       0.0       0.3       1.0       0.7
 3 C  f+3             0.0       0.0       0.0       0.2       0.0       0.1
 3 C  f-3             0.0       0.0       0.0       0.1       0.0       0.0
 4 N  s               0.0       0.0       0.0      34.8       4.0       0.1
 4 N  px              0.0       0.0       0.0       1.8       0.4       6.2
 4 N  py              0.0       0.0       0.0       2.3       0.2       5.0
 4 N  dz2             0.0       0.0       0.0       0.4       0.0       0.0
 4 N  dx2y2           0.0       0.0       0.0       0.0       0.0       1.2
 4 N  dxy             0.0       0.0       0.0       0.1       0.1       0.0
 5 C  s               0.0       0.1       0.0      11.0       0.1      12.6
 5 C  px              0.0       0.0       0.0       2.3       1.2       0.8
 5 C  py              0.0       0.1       0.0       6.4       4.6       2.7
 5 C  dz2             0.0       0.1       0.0       0.9       0.0       0.1
 5 C  dx2y2           0.0       0.0       0.0       0.8       0.4       0.1
 5 C  dxy             0.0       0.2       0.0       0.8       0.8       1.2
 5 C  f+3             0.0       0.0       0.0       0.3       0.0       0.0
 6 C  s               0.0       0.0      13.8       0.1       2.6       1.9
 6 C  px              0.1       0.0       9.0       0.3       5.4       2.9
 6 C  py              0.0       0.0       8.1       0.0       0.1       0.1
 6 C  dz2             0.0       0.0       1.1       0.0       0.1       0.1
 6 C  dx2y2           0.1       0.0       0.0       0.0       0.4       0.3
 6 C  dxy             0.0       0.0       3.6       0.0       0.5       0.0
 6 C  f+1             0.0       0.0       0.2       0.0       0.0       0.0
 6 C  f-1             0.0       0.0       0.2       0.0       0.0       0.0
 6 C  f+3             0.0       0.0       0.3       0.0       0.0       0.0
 6 C  f-3             0.0       0.0       0.3       0.0       0.0       0.0
 7 O  s               0.0       0.0      53.7       0.0       0.6       0.4
 7 O  px              0.0       0.0       2.5       0.0       0.5       0.4
 7 O  py              0.0       0.0       2.2       0.0       0.1       0.1
 7 O  dxy             0.0       0.0       0.3       0.0       0.0       0.0
 8 H  s               0.0       0.0       0.0       0.2       1.0       2.2
 8 H  py              0.0       0.0       0.0       0.0       0.1       0.2
 9 H  s               0.0       0.0       0.0       0.1       2.4       0.2
 9 H  py              0.0       0.0       0.0       0.0       0.2       0.0
10 H  s               0.0       0.0       0.0       1.0       0.2       1.8
10 H  py              0.0       0.0       0.0       0.0       0.0       0.2
11 H  s               0.0       0.0       0.0       1.0       0.0       1.9
11 H  px              0.0       0.0       0.0       0.1       0.0       0.2
12 H  s               0.0       0.0       0.8       0.0       0.4       0.4

                     12        13        14        15        16        17   
                  -1.20733  -1.15586  -1.12804  -1.03377  -1.02407  -0.98469
                   2.00000   2.00000   2.00000   2.00000   2.00000   2.00000
                  --------  --------  --------  --------  --------  --------
 0 C  s               1.1       5.6       1.9       1.3       0.1       0.2
 0 C  px              4.9      10.1       1.9       0.0      10.9       2.5
 0 C  py              0.9       0.4       1.7       2.8       2.3       4.7
 0 C  dx2y2           0.4       0.2       0.1       0.0       0.0       0.0
 0 C  dxy             0.4       0.5       0.0       0.1       0.1       0.0
 1 C  s               3.0       8.7       0.7       0.2       0.3       0.1
 1 C  px              2.2       5.0       1.4       0.2       6.4       1.5
 1 C  py              0.9       0.5       4.5       4.0       5.2       6.2
 1 C  dx2y2           0.0       0.3       0.8       0.6       0.1       0.0
 1 C  dxy             0.1       0.1       0.1       0.6       0.0       0.0
 2 C  s               2.2       0.1       3.1       0.1       0.2       0.1
 2 C  px             10.2       0.3       3.9      19.0       0.8       0.2
 2 C  py              1.0      17.9       0.5       0.2       8.7       5.1
 2 C  dx2y2           0.6       0.3       0.7       0.3       0.1       0.1
 2 C  dxy             0.3       0.6       0.5       0.6       0.4       1.5
 2 C  f+3             0.0       0.0       0.0       0.0       0.0       0.1
 2 C  f-3             0.0       0.0       0.0       0.0       0.0       0.2
 3 C  s               3.3       6.8       0.2       0.3       0.1       1.7
 3 C  px              3.9       2.2       8.0       1.6       5.9       6.5
 3 C  py              0.5       0.4       2.9       3.9       0.2       1.4
 3 C  dx2y2           0.2       0.0       0.6       1.6       0.0       0.1
 3 C  f+3             0.1       0.0       0.0       0.0       0.0       0.0
 4 N  s               0.0       2.5       0.9       1.2       0.0       0.1
 4 N  px             10.3       4.5       2.7       0.2       4.6       4.5
 4 N  py              6.9       0.9       4.8       3.0       2.6       0.5
 4 N  dx2y2           0.8       0.1       0.1       0.0       0.0       0.0
 4 N  dxy             0.0       0.0       0.0       0.1       0.0       0.2
 5 C  s               6.5       1.8       2.2       0.1       0.7       0.0
 5 C  px              1.1       0.3       0.6       0.2       0.1       1.9
 5 C  py              1.4      15.5       0.4       0.1       8.9       3.5
 5 C  dx2y2           0.2       0.0       0.0       0.4       0.0       0.0
 5 C  dxy             0.0       0.3       0.0       0.0       0.1       0.1
 6 C  s              10.3       0.3       6.7       2.1       1.0       1.7
 6 C  px              4.3       0.0       1.2      16.5       1.5       1.5
 6 C  py              0.7       1.4       1.3       1.3      13.2      11.6
 6 C  dz2             0.0       0.0       0.3       0.1       0.0       0.0
 6 C  dx2y2           0.0       0.1       0.3       0.1       0.4       0.3
 6 C  dxy             0.7       0.5       0.8       0.2       0.2       0.8
 6 C  f+3             0.0       0.0       0.0       0.1       0.0       0.3
 6 C  f-3             0.0       0.0       0.0       0.0       0.0       0.3
 7 O  s               3.9       0.0       7.8       3.5       0.4       0.7
 7 O  px              5.6       0.0      13.4       5.1      12.2      21.5
 7 O  py              3.2       0.2      16.4      22.8       3.2       3.4
 7 O  dz2             0.1       0.0       0.1       0.0       0.0       0.0
 7 O  dx2y2           0.0       0.0       0.0       0.1       0.2       0.1
 7 O  dxy             0.2       0.0       0.4       0.1       0.0       0.0
 8 H  s               0.2       2.0       0.9       2.1       0.0       1.2
 8 H  px              0.1       0.0       0.1       0.0       0.1       0.1
 8 H  py              0.0       0.3       0.1       0.1       0.0       0.0
 9 H  s               0.6       3.4       0.5       1.0       0.1       0.7
 9 H  px              0.1       0.1       0.1       0.0       0.1       0.1
 9 H  py              0.0       0.4       0.0       0.0       0.0       0.0
10 H  s               0.7       2.9       0.0       0.2       0.2       3.6
10 H  py              0.1       0.4       0.0       0.0       0.0       0.3
11 H  s               2.0       0.5       1.0       0.0       0.6       0.4
11 H  px              0.3       0.1       0.1       0.0       0.1       0.0
11 H  py              0.0       0.1       0.0       0.0       0.1       0.1
12 H  s               2.6       0.4       2.4       0.9       6.2       7.3
12 H  px              0.1       0.0       0.0       0.2       0.0       0.0
12 H  py              0.3       0.0       0.4       0.0       0.4       0.5

                     18        19        20        21        22        23   
                  -0.97351  -0.92087  -0.90607  -0.88366  -0.86100  -0.84358
                   2.00000   2.00000   2.00000   2.00000   2.00000   2.00000
                  --------  --------  --------  --------  --------  --------
 0 C  s               0.8       0.0       1.5       0.3       0.5       0.0
 0 C  pz              0.0       0.0       0.0       0.0       0.0       6.6
 0 C  px              1.7       0.0       4.7       2.8       5.5       0.0
 0 C  py              0.4       0.0      26.0       0.1       0.6       0.0
 0 C  dyz             0.0       0.0       0.0       0.0       0.0       0.6
 0 C  dx2y2           1.1       0.0       0.6       0.1       1.9       0.0
 0 C  dxy             0.4       0.0       1.3       1.6       0.3       0.0
 0 C  f-3             0.0       0.0       0.0       0.3       0.1       0.0
 1 C  s               2.4       0.0       0.5       0.7       0.1       0.0
 1 C  pz              0.0       0.2       0.0       0.0       0.0       4.0
 1 C  px              9.1       0.0       1.5      11.6       4.1       0.0
 1 C  py              1.2       0.0       0.2      17.4       0.8       0.0
 1 C  dz2             0.0       0.0       0.1       0.1       0.0       0.0
 1 C  dxz             0.0       0.0       0.0       0.0       0.0       0.1
 1 C  dyz             0.0       0.0       0.0       0.0       0.0       0.2
 1 C  dx2y2           0.3       0.0       0.7       0.1       0.1       0.0
 1 C  dxy             0.2       0.0       1.3       3.1       0.1       0.0
 1 C  f-3             0.0       0.0       0.3       0.0       0.0       0.0
 2 C  s               0.1       0.0       1.3       0.4       0.2       0.0
 2 C  pz              0.0       2.2       0.0       0.0       0.0       6.9
 2 C  px              0.2       0.0       1.2       0.0       1.0       0.0
 2 C  py              1.4       0.0       0.1       3.2       1.6       0.0
 2 C  dz2             0.0       0.0       0.2       0.1       0.0       0.0
 2 C  dxz             0.0       1.1       0.0       0.0       0.0       0.8
 2 C  dyz             0.0       0.0       0.0       0.0       0.0       0.1
 2 C  dx2y2           3.2       0.0       0.1       0.0       1.1       0.0
 2 C  dxy             0.2       0.0       0.4       1.5       0.1       0.0
 2 C  f+3             0.0       0.0       0.0       0.1       0.0       0.0
 2 C  f-3             0.0       0.0       0.1       0.3       0.0       0.0
 3 C  s               1.9       0.0       0.5       0.4       0.3       0.0
 3 C  pz              0.0       0.2       0.0       0.0       0.0      20.5
 3 C  px              0.3       0.0       0.3       0.3       2.1       0.0
 3 C  py              8.7       0.0      11.5       4.5       9.2       0.0
 3 C  dz2             0.0       0.0       0.0       0.1       0.1       0.0
 3 C  dxz             0.0       0.0       0.0       0.0       0.0       1.0
 3 C  dyz             0.0       0.0       0.0       0.0       0.0       0.3
 3 C  dx2y2           0.3       0.0       0.5       0.1       0.5       0.0
 3 C  dxy             0.0       0.0       1.1       0.6       0.6       0.0
 3 C  f0              0.0       0.0       0.0       0.0       0.0       0.2
 3 C  f+2             0.0       0.0       0.0       0.0       0.0       0.2
 3 C  f-3             0.1       0.0       0.0       0.2       0.0       0.0
 4 N  s               0.4       0.0       0.6       2.2       0.2       0.0
 4 N  pz              0.0       0.2       0.0       0.0       0.0      35.0
 4 N  px              1.0       0.0       0.3       7.5       3.4       0.0
 4 N  py              3.2       0.0       0.4      10.3       1.3       0.0
 4 N  dxz             0.0       0.0       0.0       0.0       0.0       0.2
 4 N  dyz             0.0       0.0       0.0       0.0       0.0       0.3
 4 N  dx2y2           0.1       0.0       0.3       0.0       0.8       0.0
 4 N  dxy             0.9       0.0       0.2       0.1       0.0       0.0
 4 N  f-3             0.0       0.0       0.1       0.0       0.1       0.0
 5 C  s               3.0       0.0       0.7       0.4       0.7       0.0
 5 C  pz              0.0       0.2       0.0       0.0       0.0      18.5
 5 C  px             16.0       0.0       3.1       3.5      17.3       0.0
 5 C  py              0.8       0.0       0.4       0.5       0.5       0.0
 5 C  dz2             0.0       0.0       0.2       0.1       0.1       0.0
 5 C  dxz             0.0       0.0       0.0       0.0       0.0       0.5
 5 C  dyz             0.0       0.0       0.0       0.0       0.0       0.8
 5 C  dx2y2           0.1       0.0       1.2       0.0       4.4       0.0
 5 C  dxy             0.0       0.0       0.2       0.7       0.4       0.0
 5 C  f0              0.0       0.0       0.0       0.0       0.0       0.2
 5 C  f+2             0.0       0.0       0.0       0.0       0.0       0.1
 5 C  f-3             0.0       0.0       0.1       0.3       0.0       0.0
 6 C  s               0.1       0.0       0.2       0.0       0.3       0.0
 6 C  pz              0.0      30.6       0.0       0.0       0.0       0.0
 6 C  px              2.2       0.0       0.2       0.0       0.0       0.0
 6 C  py              0.9       0.0       0.2       0.2       1.2       0.0
 6 C  dxz             0.0       1.8       0.0       0.0       0.0       0.5
 6 C  dyz             0.0       1.5       0.0       0.0       0.0       0.0
 6 C  dx2y2           0.2       0.0       0.7       0.0       1.4       0.0
 6 C  f0              0.0       0.3       0.0       0.0       0.0       0.0
 6 C  f-2             0.0       0.6       0.0       0.0       0.0       0.0
 6 C  f+3             0.1       0.0       0.0       0.0       0.2       0.0
 6 C  f-3             0.1       0.0       0.0       0.0       0.1       0.0
 7 O  pz              0.0      60.0       0.0       0.0       0.0       1.4
 7 O  px              3.1       0.0       0.7       0.2       2.7       0.0
 7 O  py              5.2       0.0       2.1       0.1       4.7       0.0
 7 O  dxz             0.0       0.3       0.0       0.0       0.0       0.0
 7 O  dyz             0.0       0.2       0.0       0.0       0.0       0.0
 8 H  s               0.0       0.0      21.2       0.0       3.1       0.0
 8 H  px              0.0       0.0       0.1       0.0       0.0       0.0
 8 H  py              0.0       0.0       0.6       0.0       0.1       0.0
 9 H  s               6.8       0.0       0.1      20.1       0.0       0.0
 9 H  px              0.1       0.0       0.0       0.3       0.0       0.0
 9 H  py              0.3       0.0       0.0       0.3       0.0       0.0
10 H  s               7.1       0.0       8.4       1.4       7.4       0.0
10 H  pz              0.0       0.0       0.0       0.0       0.0       0.2
10 H  py              0.3       0.0       0.2       0.0       0.2       0.0
11 H  s              12.4       0.0       0.4       1.1      15.5       0.0
11 H  pz              0.0       0.0       0.0       0.0       0.0       0.2
11 H  px              0.6       0.0       0.0       0.0       0.4       0.0
12 H  s               0.3       0.0       0.5       0.1       1.9       0.0
12 H  pz              0.0       0.3       0.0       0.0       0.0       0.0

                     24        25        26        27        28        29   
                  -0.81076  -0.77953  -0.71558  -0.66733  -0.35294  -0.29325
                   2.00000   2.00000   2.00000   2.00000   0.00000   0.00000
                  --------  --------  --------  --------  --------  --------
 0 C  pz              0.0       0.0      10.2      27.5       0.2       6.5
 0 C  px              1.9       1.5       0.0       0.0       0.0       0.0
 0 C  py              1.8       4.7       0.0       0.0       0.0       0.0
 0 C  dxz             0.0       0.0       2.4       0.3       2.1       2.7
 0 C  dyz             0.0       0.0       0.1       0.3       0.4       0.0
 0 C  dx2y2           0.5       0.2       0.0       0.0       0.0       0.0
 0 C  dxy             0.8       0.4       0.0       0.0       0.0       0.0
 0 C  f+2             0.0       0.0       0.2       0.0       0.1       0.2
 0 C  f-2             0.0       0.0       0.1       0.1       0.2       0.1
 1 C  pz              0.0       0.0      33.5       1.8       8.8      15.9
 1 C  px              1.4       0.8       0.0       0.0       0.0       0.0
 1 C  py              3.0       1.4       0.0       0.0       0.0       0.0
 1 C  dxz             0.0       0.0       0.0       2.4       0.1       1.0
 1 C  dyz             0.0       0.0       0.4       1.4       0.3       0.1
 1 C  dx2y2           0.1       0.0       0.0       0.0       0.0       0.0
 1 C  dxy             0.0       1.9       0.0       0.0       0.0       0.0
 1 C  f+2             0.0       0.0       0.0       0.4       0.0       0.0
 2 C  s               0.6       0.1       0.0       0.0       0.0       0.0
 2 C  pz              0.0       0.0      20.6      14.4       2.9       0.2
 2 C  px              6.9       1.9       0.0       0.0       0.0       0.0
 2 C  py              2.9       3.2       0.0       0.0       0.0       0.0
 2 C  dxz             0.0       0.0       0.0       0.1       4.6       1.1
 2 C  dyz             0.0       0.0       1.6       1.5       0.5       4.6
 2 C  dx2y2           0.8       0.2       0.0       0.0       0.0       0.0
 2 C  dxy             0.1       0.1       0.0       0.0       0.0       0.0
 2 C  f+2             0.0       0.0       0.1       0.0       0.4       0.0
 2 C  f-2             0.0       0.0       0.1       0.1       0.1       0.6
 3 C  s               0.1       0.4       0.0       0.0       0.0       0.0
 3 C  pz              0.0       0.0       0.1      19.8       5.1      22.0
 3 C  px              0.3       3.2       0.0       0.0       0.0       0.0
 3 C  py              0.5       2.7       0.0       0.0       0.0       0.0
 3 C  dxz             0.0       0.0       3.1       0.5       0.5       2.5
 3 C  dyz             0.0       0.0       0.6       0.1       0.2       0.1
 3 C  dx2y2           1.0       1.5       0.0       0.0       0.0       0.0
 3 C  dxy             0.4       3.3       0.0       0.0       0.0       0.0
 3 C  f0              0.0       0.0       0.0       0.0       0.0       0.2
 3 C  f+2             0.0       0.0       0.2       0.0       0.0       0.4
 3 C  f-2             0.0       0.0       0.2       0.1       0.0       0.0
 3 C  f-3             0.0       0.3       0.0       0.0       0.0       0.0
 4 N  s               0.0       5.9       0.0       0.0       0.0       0.0
 4 N  pz              0.0       0.0      16.1       0.2       1.1      25.7
 4 N  px              0.3      15.9       0.0       0.0       0.0       0.0
 4 N  py              0.5      24.4       0.0       0.0       0.0       0.0
 4 N  dz2             0.0       0.2       0.0       0.0       0.0       0.0
 4 N  dxz             0.0       0.0       0.0       1.2       0.7       1.2
 4 N  dyz             0.0       0.0       0.0       0.9       0.7       0.2
 4 N  dxy             0.0       1.7       0.0       0.0       0.0       0.0
 4 N  f0              0.0       0.0       0.0       0.0       0.0       0.1
 4 N  f+2             0.0       0.0       0.0       0.2       0.1       0.0
 5 C  s               0.0       0.3       0.0       0.0       0.0       0.0
 5 C  pz              0.0       0.0       2.1      19.6      11.1       4.2
 5 C  px              0.3       1.8       0.0       0.0       0.0       0.0
 5 C  py              0.4       4.7       0.0       0.0       0.0       0.0
 5 C  dxz             0.0       0.0       0.1       0.2       0.2       0.0
 5 C  dyz             0.0       0.0       2.5       1.4       0.0       3.9
 5 C  dx2y2           0.4       2.4       0.0       0.0       0.0       0.0
[...]
 1 C  dxy             0.1       0.0       0.2       0.0       0.0       0.0
 1 C  f+3             0.1       0.0       0.3       0.0       0.0       0.0
 1 C  f-3             0.1       0.1       0.7       0.0       0.0       0.1
 2 C  s               0.0       0.4       0.2       0.0       0.1       0.0
 2 C  px              0.1       1.1       0.1       0.0       0.0       0.2
 2 C  py              0.5       0.1       0.3       0.0       0.1       0.0
 2 C  dx2y2           0.2       0.0       0.3       0.0       0.0       0.1
 2 C  dxy             0.1       0.1       0.3       0.0       0.7       0.3
 2 C  f+3             0.0       0.0       3.5       0.0       0.1       0.4
 2 C  f-3             1.5       0.2       3.8       0.0       0.0       0.0
 3 C  s               0.1       0.1       0.1       0.0       0.0       0.0
 3 C  px              0.5       0.0       0.0       0.0       0.0       0.0
 3 C  dx2y2           0.1       0.0       0.8       0.0       0.0       0.0
 3 C  dxy             0.2       0.1       0.1       0.0       0.0       0.0
 3 C  f+1             0.1       0.0       0.0       0.0       0.0       0.0
 3 C  f+3             0.7       0.1       0.0       0.0       0.0       0.0
 3 C  f-3             0.6       0.1       1.7       0.0       0.0       0.0
 4 N  s               0.2       0.0       0.2       0.0       0.0       0.0
 4 N  px              0.2       0.0       0.0       0.0       0.0       0.0
 4 N  dx2y2           0.2       0.0       0.4       0.0       0.0       0.0
 4 N  dxy             0.1       0.0       0.0       0.0       0.0       0.0
 4 N  f+3             0.4       0.1       1.4       0.0       0.0       0.0
 4 N  f-3             1.7       0.2       0.8       0.0       0.0       0.0
 5 C  dxy             0.2       0.0       0.1       0.0       0.0       0.0
 5 C  f+3             0.2       0.0       0.1       0.0       0.0       0.0
 5 C  f-3             0.2       0.1       0.4       0.0       0.0       0.0
 6 C  s               4.0       1.1       0.2       0.0       1.3       2.2
 6 C  pz              0.0       0.0       0.0       1.9       0.0       0.0
 6 C  px              1.6       1.0       0.8       0.0       0.8       1.5
 6 C  py              1.2       0.3       0.1       0.0       1.3       1.1
 6 C  dz2             1.7       0.3       0.0       0.0       0.1       0.1
 6 C  dxz             0.0       0.0       0.0       1.8       0.0       0.0
 6 C  dyz             0.0       0.0       0.0       1.5       0.0       0.0
 6 C  dx2y2           1.2       0.2       3.2       0.0       3.0       1.2
 6 C  dxy             5.6       0.8       1.3       0.0       0.2       0.6
 6 C  f0              0.0       0.0       0.0       0.3       0.0       0.0
 6 C  f+1             0.3       0.0       0.6       0.0       0.0       0.4
 6 C  f-1             0.0       0.2       0.0       0.0       0.2       0.1
 6 C  f-2             0.0       0.0       0.0       0.4       0.0       0.0
 6 C  f+3             0.0       0.1       8.1       0.0       1.0       0.1
 6 C  f-3             0.5       0.4       4.6       0.0       0.0       1.8
 7 O  s               2.7       1.0       0.1       0.0       0.4       1.5
 7 O  pz              0.0       0.0       0.0       2.2       0.0       0.0
 7 O  px              1.7       0.3       1.3       0.0       0.5       2.8
 7 O  py              2.3       0.6       0.5       0.0       2.4       0.2
 7 O  dz2             1.5      62.8       2.1       0.0       3.6      17.7
 7 O  dxz             0.0       0.0       0.0      36.4       0.0       0.0
 7 O  dyz             0.0       0.0       0.0      29.6       0.0       0.0
 7 O  dx2y2           0.1       5.0      29.3       0.0      39.1      19.1
 7 O  dxy            26.0      13.2       0.2       0.0      22.7      30.3
 7 O  f0              0.0       0.0       0.0       9.5       0.0       0.0
 7 O  f+1             7.0       0.1       0.4       0.0       0.0       4.5
 7 O  f-1            10.6       0.0       1.0       0.0       2.0       1.2
 7 O  f+2             0.0       0.0       0.0       0.1       0.0       0.0
 7 O  f-2             0.0       0.0       0.0      16.0       0.0       0.0
 7 O  f+3            16.5       6.3       9.5       0.0      17.3       0.4
 7 O  f-3             6.2       2.1      18.4       0.0       2.4      11.8
12 H  s               0.1       0.2       0.0       0.0       0.1       0.0
12 H  px              0.0       0.1       0.2       0.0       0.0       0.0

                    270       271       272       273       274       275   
                  20.74087  21.01527  21.15609  21.20576  21.26724  21.56354
                   0.00000   0.00000   0.00000   0.00000   0.00000   0.00000
                  --------  --------  --------  --------  --------  --------
 0 C  s              44.2      12.3       5.1      32.6       0.1       3.8
 0 C  px              0.1       0.4       0.0       0.0       0.0       0.0
 1 C  s              26.2      29.7      14.4       7.9       6.0      13.5
 1 C  px              0.1       0.1       0.0       0.2       0.1       0.0
 1 C  py              0.0       0.0       0.1       0.1       0.1       0.0
 2 C  s              12.5       5.8       7.9      16.3       7.0      49.0
 2 C  px              0.1       0.0       0.2       0.0       0.3       0.0
 2 C  py              0.2       0.0       0.4       0.0       0.1       0.0
 2 C  dx2y2           0.0       0.1       0.0       0.0       0.3       0.0
 2 C  dxy             0.0       0.0       0.3       0.0       0.0       0.0
 3 C  s               7.0       3.9      59.7       6.6       1.9      17.9
 3 C  px              0.1       0.0       0.0       0.0       0.2       0.0
 4 N  s               0.7       0.1       0.4       0.1       0.0       0.2
 4 N  px              0.1       0.1       0.3       0.1       0.1       0.1
 4 N  py              0.1       0.2       0.0       0.2       0.1       0.0
 5 C  s               6.7      42.6       4.4      30.1      10.0       3.5
 5 C  py              0.3       0.0       0.0       0.0       0.0       0.0
 5 C  dxy             0.1       0.0       0.0       0.0       0.0       0.0
 6 C  s               0.4       3.5       5.7       4.7      71.4      10.7
 6 C  px              0.1       0.0       0.0       0.0       0.1       0.0
 7 O  s               0.1       0.0       0.0       0.1       0.7       0.1
 7 O  px              0.0       0.0       0.0       0.0       0.3       0.0
 7 O  py              0.0       0.0       0.0       0.0       0.2       0.0
 8 H  s               0.1       0.0       0.0       0.1       0.0       0.0
 9 H  s               0.1       0.1       0.0       0.0       0.0       0.0
10 H  s               0.1       0.0       0.2       0.0       0.0       0.1
12 H  s               0.0       0.0       0.0       0.0       0.2       0.0

                    276       277   
                  30.38230  41.44579
                   0.00000   0.00000
                  --------  --------
 4 N  s              99.7       0.0
 7 O  s               0.0      99.8


                      *****************************
                      * MAYER POPULATION ANALYSIS *
                      *****************************

  NA   - Mulliken gross atomic population
  ZA   - Total nuclear charge
  QA   - Mulliken gross atomic charge
  VA   - Mayer's total valence
  BVA  - Mayer's bonded valence
  FA   - Mayer's free valence

  ATOM       NA         ZA         QA         VA         BVA        FA
  0 C      6.1124     6.0000    -0.1124     3.8983     3.8983     0.0000
  1 C      6.2055     6.0000    -0.2055     3.9952     3.9952     0.0000
  2 C      5.8774     6.0000     0.1226     3.4477     3.4477    -0.0000
  3 C      6.0686     6.0000    -0.0686     4.0512     4.0512     0.0000
  4 N      7.2862     7.0000    -0.2862     3.0531     3.0531     0.0000
  5 C      6.0278     6.0000    -0.0278     4.0265     4.0265     0.0000
  6 C      5.8399     6.0000     0.1601     4.0034     4.0034    -0.0000
  7 O      8.4202     8.0000    -0.4202     2.0449     2.0449     0.0000
  8 H      0.8220     1.0000     0.1780     0.9582     0.9582     0.0000
  9 H      0.8236     1.0000     0.1764     0.9800     0.9800     0.0000
 10 H      0.8241     1.0000     0.1759     0.9727     0.9727    -0.0000
 11 H      0.8292     1.0000     0.1708     0.9707     0.9707     0.0000
 12 H      0.8630     1.0000     0.1370     0.9613     0.9613    -0.0000

  Mayer bond orders larger than 0.100000
B(  0-C ,  1-C ) :   1.4821 B(  0-C ,  5-C ) :   1.4028 B(  0-C ,  8-H ) :   0.9581 
B(  1-C ,  2-C ) :   1.3137 B(  1-C ,  9-H ) :   0.9569 B(  2-C ,  3-C ) :   1.3662 
B(  2-C ,  6-C ) :   0.9469 B(  2-C ,  7-O ) :  -0.1134 B(  3-C ,  4-N ) :   1.5066 
B(  3-C , 10-H ) :   0.9627 B(  4-N ,  5-C ) :   1.4736 B(  5-C , 11-H ) :   0.9604 
B(  6-C ,  7-O ) :   2.0075 B(  6-C , 12-H ) :   0.9944 

-------
TIMINGS
-------

Total SCF time: 0 days 0 hours 1 min 48 sec 

Total time                  ....     108.384 sec
Sum of individual times     ....     105.927 sec  ( 97.7%)

SCF preparation             ....       0.339 sec  (  0.3%)
Fock matrix formation       ....     104.249 sec  ( 96.2%)
  Startup                   ....       0.058 sec  (  0.1% of F)
  Split-RI-J                ....       4.101 sec  (  3.9% of F)
  Chain of spheres X        ....      84.976 sec  ( 81.5% of F)
  XC integration            ....      12.011 sec  ( 11.5% of F)
    XC Preparation          ....       0.000 sec  (  0.0% of XC)
    Basis function eval.    ....       2.510 sec  ( 20.9% of XC)
    Density eval.           ....       2.070 sec  ( 17.2% of XC)
    XC-Functional eval.     ....       2.434 sec  ( 20.3% of XC)
    XC-Potential eval.      ....       3.910 sec  ( 32.6% of XC)
  CPCM terms                ....       4.287 sec  (  4.1% of F)
Diagonalization             ....       0.000 sec  (  0.0%)
Density matrix formation    ....       0.201 sec  (  0.2%)
Total Energy calculation    ....       0.052 sec  (  0.0%)
Population analysis         ....       0.144 sec  (  0.1%)
Orbital Transformation      ....       0.068 sec  (  0.1%)
Orbital Orthonormalization  ....       0.000 sec  (  0.0%)
DIIS solution               ....       0.500 sec  (  0.5%)
  MO trafo                  ....       0.000 sec  (  0.0 % of DIIS)
  Orb grad                  ....       0.000 sec  (  0.0 % of DIIS)
  Energy W gradient         ....       0.000 sec  (  0.0 % of DIIS)
  DIIS error                ....       0.011 sec  (  2.2 % of DIIS)
  DIIS work                 ....       0.442 sec  ( 88.5 % of DIIS)
  Form Q                    ....       0.000 sec  (  0.0 % of DIIS)
  Form QpQm                 ....       0.000 sec  (  0.0 % of DIIS)
  Exp/Cayley                ....       0.000 sec  (  0.0 % of DIIS)
  Orb update                ....       0.000 sec  (  0.0 % of DIIS)
  Wake-sleep                ....       0.013 sec  (  2.5 % of DIIS)
SOSCF solution              ....       0.198 sec  (  0.2%)
  MO trafo                  ....       0.078 sec  ( 39.5 % of SOSCF)
  Orb grad                  ....       0.002 sec  (  1.2 % of SOSCF)
  Rot update                ....       0.058 sec  ( 29.6 % of SOSCF)
  Step                      ....       0.059 sec  ( 29.7 % of SOSCF)
Grid generation             ....       0.176 sec  (  0.2%)
Finished LeanSCF after 108.5 sec

Maximum memory used throughout the entire LEANSCF-calculation: 34.9 MB
------------------   -----------------
gCP correction             0.006207754
------------------   -----------------

-------------------------   --------------------
FINAL SINGLE POINT ENERGY      -361.637451102721
-------------------------   --------------------


------------------------------------------------------------------------------
                              ORCA PROPERTY CALCULATIONS
------------------------------------------------------------------------------

GBWName                                 ... sp_solv.gbw
Number of atoms                         ...     13
Number of basis functions               ...    278
Max core memory                         ...   1024 MB

Electric properties:
Dipole moment                           ... YES
Quadrupole moment                       ...  NO
Static polarizability (Dipole/Dipole)   ...  NO
Static polarizability (Dipole/Quad.)    ...  NO
Static polarizability (Quad./Quad.)     ...  NO
Static polarizability (Velocity)        ...  NO

Atomic electric properties:
Dipole moment                           ...  NO
Quadrupole moment                       ...  NO
Static polarizability                   ...  NO

Choice of electric origin               ... Center of mass
Position of electric origin             ...     0.000010    -0.009195     0.000143

General magnetic properties:
Magnetizability                         ...  NO

EPR properties:
g-Tensor (aka g-matrix)                 ...  NO
Zero-Field splitting spin-orbit         ...  NO
Zero-field splitting spin-spin          ...  NO
Hyperfine couplings                     ...  NO (   0 nuclei)
Quadrupole couplings                    ...  NO (   0 nuclei)
Contact density                         ...  NO (   0 nuclei)

NMR properties:
Chemical shifts                         ...  NO (   0 nuclei)
Spin-rotation constants                 ...  NO (   0 nuclei)
Spin-spin couplings                     ...  NO (   0 nuclei,    0 pairs)

Choice of magnetic origin               ... GIAO
Position of magnetic origin             ...     0.000000     0.000000     0.000000

Properties with geometric perturbations:
SCF Hessian                             ...  NO
IR spectrum                             ...  NO
VCD spectrum                            ...  NO
X-ray spectroscopy properties:
SCF XES/XAS/RIXS spectra                ...  NO


-------------
DIPOLE MOMENT
-------------

Method             : SCF
Type of density    : Electron Density
Multiplicity       :   1
Irrep              :   0
Energy             :  -361.6436588563210535 Eh
Relativity type    : 
Basis              : AO
                                X                 Y                 Z
Electronic contribution:     -1.119442264      -0.559142243       0.001176469
Nuclear contribution   :      2.046523586       0.740314652      -0.000769128
                        -----------------------------------------
Total Dipole Moment    :      0.927081323       0.181172410       0.000407341
                        -----------------------------------------
Magnitude (a.u.)       :      0.944618117
Magnitude (Debye)      :      2.401028440



--------------------
Rotational spectrum 
--------------------
 
Rotational constants in cm-1:             0.180589             0.052980             0.040963 
Rotational constants in MHz :          5413.919131          1588.307720          1228.033587 

Dipole components along the rotational axes: 
x,y,z [a.u.] :     0.927855    -0.177170     0.000451 
x,y,z [Debye]:     2.358419    -0.450330     0.001145 

 

Dipole moment calculation done in   0.0 sec 

Maximum memory used throughout the entire PROP-calculation: 21.9 MB

--------------------------------
SUGGESTED CITATIONS FOR THIS RUN
--------------------------------

Below you find a list of papers that are relevant to this ORCA run
We neither can nor want to force you to cite these papers, but we appreciate if you do
You receive ORCA, which is the product of decades of hard work by many enthusiastic individuals, for free
The only thing we kindly ask in return is that you cite our papers,
We deeply appreciate it, if you show your appreciation for ORCA by not just citing the generic ORCA reference.

Please note that relegating all ORCA citations to the supporting information does *not* help us.
SI sections are not indexed - citations you put there will not count into any citation statistics
But we need these citations in order to attract the funding resources that allow us to do what we are doing

Therefore, if you are a happy ORCA user, please consider citing a few of the papers listed below in the main body of your paper

In addition to the list printed below, the program has created the file sp_solv.bibtex that contains the list in bibtex format
You can import this file easily into all common literature databanks and citation aid programs


List of essential papers. We consider these as the minimum necessary citations

  1. Neese,F.
     Software update: the ORCA program system, version 5.0
     WIRES Comput. Molec. Sci., 2022 12(1)e1606
     doi.org/10.1002/wcms.1606

List of papers to cite with high priority. The work reported in these papers was absolutely
necessary for this run to complete.
Our perspective: the developers of density functionals and basis sets usually get cited in chemistry papers
Good! But without the algorithms to do something with them, the functionals or basis sets would not do anything.
Hence, in our opinion, the algorithm design and method developments papers are equally worthy of getting cited

  1. Neese,F.
     An improvement of the resolution of the identity approximation for the formation of the Coulomb matrix
     J. Comp. Chem., 2003 24(14)1740-1747
     doi.org/10.1002/jcc.10318
  2. Neese,F.; Wennmohs,F.; Hansen,A.; Becker,U.
     Efficient, approximate and parallel Hartree-Fock and hybrid DFT calculations. A 'chain-of-spheres' algorithm for the Hartree-Fock exchange
     Chem. Phys., 2009 356(1-3)98-109
     doi.org/10.1016/j.chemphys.2008.10.036
  3. Garcia-Rates,M.; Neese,F.
     Effect of the Solute Cavity on the Solvation Energy and its Derivatives within the Framework of the Gaussian Charge Scheme
     J. Comput. Chem., 2020 41 922-939
     doi.org/10.1002/jcc.26139
  4. Helmich-Paris,B.; de Souza,B.; Neese,F.; Izsák,R.
     An improved chain of spheres for exchange algorithm
     J. Chem. Phys., 2021 155 104109
     doi.org/doi: 10.1063/5.0058766.
  5. Neese,F.
     The SHARK Integral Generation and Digestion System
     J. Comp. Chem., 2022  1-16
     doi.org/10.1002/jcc.26942

List of suggested additional citations. These are papers that are important in the 'surrounding' of 
of this run, or papers that preceded the highly important papers. If you like your results we are grateful for a citation.

  1. Izsak,R.; Neese,F.
     An overlap fitted chain of spheres exchange method
     J. Chem. Phys., 2011 135 144105
     doi.org/10.1063/1.3646921
  2. Izsak,R.; Hansen,A.; Neese,F.
     The resolution of identity and chain of spheres approximations for the LPNO-CCSD singles Fock term
     Molec. Phys., 2012 110 2413-2417
     doi.org/10.1080/00268976.2012.687466
  3. Neese,F.
     The ORCA program system
     WIRES Comput. Molec. Sci., 2012 2(1)73-78
     doi.org/10.1002/wcms.81
  4. Izsak,R.; Neese,F.; Klopper,W.
     Robust fitting techniques in the chain of spheres approximation to the Fock exchange: The role of the complementary space
     J. Chem. Phys., 2013 139 
     doi.org/10.1063/1.4819264
  5. Neese,F.
     Software update: the ORCA program system, version 4.0
     WIRES Comput. Molec. Sci., 2018 8(1)1-6
     doi.org/10.1002/wcms.1327
  6. Neese,F.; Wennmohs,F.; Becker,U.; Riplinger,C.
     The ORCA quantum chemistry program package
     J. Chem. Phys., 2020 152 Art. No. L224108
     doi.org/10.1063/5.0004608

List of optional additional citations

  1. Neese,F.
     Approximate second-order SCF convergence for spin unrestricted wavefunctions
     Chem. Phys. Lett., 2000 325(1-3)93-98
     doi.org/10.1016/s0009-2614(00)00662-x

Timings for individual modules:

Sum of individual times          ...      110.820 sec (=   1.847 min)
Startup calculation              ...        1.820 sec (=   0.030 min)   1.6 %
SCF iterations                   ...      108.896 sec (=   1.815 min)  98.3 %
Property calculations            ...        0.104 sec (=   0.002 min)   0.1 %
                             ****ORCA TERMINATED NORMALLY****
TOTAL RUN TIME: 0 days 0 hours 1 minutes 51 seconds 535 msec
