 Entering Gaussian System
 *********************************************
 Gaussian 98:
 frequency output generated by the xtb code
 *********************************************
                         Standard orientation:
 --------------------------------------------------------------------
  Center     Atomic     Atomic              Coordinates (Angstroms)
  Number     Number      Type              X           Y           Z
 --------------------------------------------------------------------
    1          6             0       -3.185854    0.004639    0.840682
    2          6             0       -2.480042   -0.007897   -0.517243
    3          6             0       -0.988029   -0.004687   -0.339280
    4          6             0       -0.286397    1.190418   -0.233524
    5          6             0        1.079020    1.201631   -0.030382
    6          6             0        1.777233    0.002630    0.074582
    7          6             0        1.086633   -1.198413   -0.026731
    8          6             0       -0.281441   -1.194224   -0.230080
    9          8             0        3.124995    0.058032    0.272604
   10          1             0       -2.903667    0.890938    1.404192
   11          1             0       -2.905296   -0.871885    1.420067
   12          1             0       -4.264831    0.004424    0.707983
   13          1             0       -2.784316    0.871249   -1.088051
   14          1             0       -2.783413   -0.897885   -1.071535
   15          1             0       -0.815991    2.128370   -0.314639
   16          1             0        1.626113    2.128111    0.048771
   17          1             0        1.617470   -2.136524    0.052000
   18          1             0       -0.806339   -2.135274   -0.308120
   19          1             0        3.495499   -0.835521    0.326811
 --------------------------------------------------------------------
     1 basis functions        1 primitive gaussians
     1 alpha electrons        1 beta electrons
 
 Harmonic frequencies (cm**-1), IR intensities (km*mol⁻¹),
 Raman scattering activities (A**4/amu), Raman depolarization ratios,
 reduced masses (AMU), force constants (mDyne/A) and normal coordinates:
                      1                      2                      3
                        a                      a                      a 
 Frequencies --    39.7725                95.9518               198.9953
 Red. masses --     8.3279                11.1350                 2.0811
 Frc consts  --     0.0000                 0.0000                 0.0000
 IR Inten    --     0.5866                 0.2067                 0.1681
 Raman Activ --     0.0000                 0.0000                 0.0000
 Depolar     --     0.0000                 0.0000                 0.0000
 Atom AN      X      Y      Z        X      Y      Z        X      Y      Z
   1   6     0.00  -0.54   0.01    -0.39  -0.01  -0.32    -0.01  -0.08   0.00
   2   6    -0.00   0.25  -0.00     0.06   0.00  -0.08    -0.00  -0.08   0.00
   3   6    -0.00   0.19  -0.00     0.02   0.00   0.26    -0.00   0.14   0.00
   4   6     0.11   0.13  -0.20     0.02   0.00   0.28     0.04   0.11   0.01
   5   6     0.12   0.04  -0.21     0.05  -0.00   0.14     0.06   0.02   0.01
   6   6    -0.00  -0.01   0.00     0.07  -0.00  -0.04     0.00  -0.01  -0.00
   7   6    -0.12   0.04   0.21     0.04   0.00   0.14    -0.05   0.02  -0.02
   8   6    -0.11   0.13   0.20     0.02   0.00   0.29    -0.04   0.11  -0.01
   9   8     0.01  -0.13  -0.01     0.15  -0.00  -0.50     0.01  -0.15   0.01
  10   1    -0.01  -0.24   0.15    -0.17  -0.00  -0.06    -0.42   0.24  -0.21
  11   1     0.01  -0.25  -0.14    -0.17  -0.00  -0.07     0.42   0.25   0.21
  12   1     0.00  -0.14   0.00    -0.10  -0.00  -0.20    -0.00  -0.57   0.00
  13   1    -0.01   0.16   0.14     0.06   0.00  -0.05    -0.06  -0.07  -0.04
  14   1     0.01   0.16  -0.14     0.06   0.00  -0.05     0.06  -0.07   0.04
  15   1     0.06   0.05  -0.10     0.01   0.00   0.10     0.03   0.04   0.00
  16   1     0.06  -0.00  -0.11     0.02  -0.00   0.02     0.03  -0.00   0.01
  17   1    -0.06  -0.00   0.11     0.01   0.00   0.03    -0.03  -0.00  -0.01
  18   1    -0.06   0.05   0.10     0.00   0.00   0.10    -0.03   0.04  -0.01
  19   1    -0.02  -0.04   0.04     0.04  -0.00  -0.16    -0.02  -0.05  -0.00
                      4                      5                      6
                        a                      a                      a 
 Frequencies --   217.7897               313.6271               369.8185
 Red. masses --    10.5105                 8.8291                 7.0375
 Frc consts  --     0.0000                 0.0000                 0.0000
 IR Inten    --     0.1540                 4.0008                55.1203
 Raman Activ --     0.0000                 0.0000                 0.0000
 Depolar     --     0.0000                 0.0000                 0.0000
 Atom AN      X      Y      Z        X      Y      Z        X      Y      Z
   1   6     0.49   0.00  -0.05    -0.00   0.07  -0.00    -0.04  -0.00   0.02
   2   6     0.03   0.00  -0.27     0.00   0.46  -0.00    -0.02   0.00   0.02
   3   6    -0.00  -0.00  -0.23     0.00  -0.21   0.01    -0.01  -0.00  -0.03
   4   6    -0.09   0.01   0.08    -0.01  -0.22  -0.01     0.07  -0.01  -0.43
   5   6    -0.13   0.01   0.32    -0.05  -0.18  -0.01    -0.05  -0.00   0.35
   6   6    -0.13  -0.00   0.15    -0.01  -0.13  -0.00     0.01   0.01   0.07
   7   6    -0.13  -0.01   0.31     0.06  -0.18   0.00     0.06   0.01  -0.31
   8   6    -0.09  -0.01   0.09     0.01  -0.23   0.01    -0.04   0.01   0.33
   9   8    -0.07   0.00  -0.37    -0.04   0.44  -0.00     0.01  -0.01   0.11
  10   1     0.21   0.00  -0.05    -0.17   0.07  -0.00    -0.02  -0.00   0.01
  11   1     0.22   0.00  -0.04     0.16   0.07   0.00    -0.02  -0.00   0.01
  12   1     0.13  -0.01   0.12    -0.00  -0.18   0.00    -0.01  -0.00  -0.00
  13   1    -0.02   0.00  -0.06     0.12   0.26   0.14    -0.01   0.00   0.01
  14   1    -0.02  -0.00  -0.06    -0.12   0.26  -0.14    -0.02   0.00   0.01
  15   1    -0.03   0.00   0.03    -0.01  -0.07  -0.00     0.04  -0.00  -0.26
  16   1    -0.04   0.00   0.13    -0.01  -0.05  -0.00    -0.03   0.00   0.20
  17   1    -0.04  -0.00   0.13     0.02  -0.05   0.00     0.03   0.00  -0.20
  18   1    -0.03  -0.00   0.03     0.01  -0.07   0.01    -0.02  -0.00   0.20
  19   1    -0.01   0.00  -0.13     0.11   0.16   0.02     0.08  -0.01  -0.51
                      7                      8                      9
                        a                      a                      a 
 Frequencies --   385.8098               401.0446               405.0594
 Red. masses --    11.0497                 4.3288                10.0452
 Frc consts  --     0.0000                 0.0000                 0.0000
 IR Inten    --     1.1675               150.6883                10.7980
 Raman Activ --     0.0000                 0.0000                 0.0000
 Depolar     --     0.0000                 0.0000                 0.0000
 Atom AN      X      Y      Z        X      Y      Z        X      Y      Z
   1   6    -0.27   0.01   0.16    -0.03  -0.00   0.02    -0.02  -0.04   0.01
   2   6    -0.21   0.02   0.13    -0.03   0.00   0.01     0.01  -0.18   0.03
   3   6    -0.09  -0.02  -0.29    -0.01  -0.00  -0.05     0.02   0.27  -0.02
   4   6     0.06  -0.09  -0.23     0.03  -0.01  -0.20     0.14   0.21  -0.02
   5   6     0.03  -0.05   0.16    -0.04  -0.01   0.30     0.11  -0.28   0.05
   6   6     0.14   0.02   0.36     0.03   0.01  -0.00    -0.02  -0.35   0.04
   7   6     0.02   0.09   0.30     0.04   0.01  -0.21    -0.10  -0.30  -0.00
   8   6     0.09   0.05  -0.37    -0.02   0.01   0.17    -0.11   0.19  -0.05
   9   8     0.28  -0.02  -0.20     0.07  -0.01  -0.24    -0.05   0.45  -0.03
  10   1    -0.11   0.00   0.06    -0.01  -0.00   0.01     0.04  -0.03   0.00
  11   1    -0.10   0.00   0.06    -0.01  -0.00   0.00    -0.07  -0.03   0.01
  12   1    -0.07  -0.01   0.00    -0.01  -0.00   0.00    -0.01   0.05  -0.01
  13   1    -0.09   0.01   0.06    -0.01   0.00   0.01    -0.09  -0.14  -0.07
  14   1    -0.10   0.01   0.05    -0.02   0.00   0.00     0.09  -0.13   0.09
  15   1     0.04  -0.01  -0.10     0.02  -0.00  -0.10     0.11   0.10  -0.01
  16   1    -0.02   0.01   0.03    -0.03   0.00   0.17     0.13  -0.14   0.03
  17   1    -0.02   0.01   0.12     0.02   0.00  -0.12    -0.11  -0.13  -0.02
  18   1     0.07  -0.00  -0.18    -0.01  -0.00   0.12    -0.11   0.10  -0.03
  19   1     0.06  -0.01  -0.06    -0.11  -0.00   0.80     0.17   0.19   0.02
                     10                     11                     12
                        a                      a                      a 
 Frequencies --   453.5623               528.6912               614.2276
 Red. masses --    11.2167                 8.7870                11.3222
 Frc consts  --     0.0000                 0.0000                 0.0000
 IR Inten    --     1.3342                 0.3793                 1.0777
 Raman Activ --     0.0000                 0.0000                 0.0000
 Depolar     --     0.0000                 0.0000                 0.0000
 Atom AN      X      Y      Z        X      Y      Z        X      Y      Z
   1   6    -0.03   0.00   0.00     0.14  -0.00  -0.10     0.00   0.02   0.00
   2   6     0.37   0.01   0.21    -0.11  -0.00  -0.16     0.01   0.06   0.00
   3   6     0.30  -0.02   0.15    -0.20   0.00   0.47     0.00   0.10   0.00
   4   6     0.07   0.14  -0.19    -0.05  -0.05  -0.00    -0.39   0.28  -0.06
   5   6    -0.02   0.18   0.06    -0.02  -0.07  -0.14    -0.38  -0.24  -0.06
   6   6    -0.33   0.02   0.26     0.02  -0.00   0.51    -0.00  -0.10  -0.00
   7   6    -0.01  -0.13   0.05    -0.02   0.06  -0.15     0.38  -0.24   0.06
   8   6     0.08  -0.16  -0.19    -0.05   0.06  -0.00     0.39   0.27   0.05
   9   8    -0.39  -0.04  -0.20     0.16   0.01  -0.09     0.01  -0.16   0.00
  10   1    -0.08   0.00   0.03     0.11  -0.00  -0.06    -0.01   0.00   0.01
  11   1    -0.08  -0.00   0.03     0.11   0.00  -0.06     0.01   0.00  -0.00
  12   1     0.01  -0.00  -0.14     0.02   0.00   0.10     0.00  -0.00  -0.00
  13   1     0.13   0.00   0.05     0.01   0.00  -0.06     0.03   0.05   0.04
  14   1     0.11   0.01   0.04     0.01  -0.00  -0.06    -0.03   0.05  -0.04
  15   1    -0.02   0.00  -0.16     0.04  -0.00  -0.21    -0.08   0.09  -0.01
  16   1     0.06   0.02  -0.04     0.00  -0.01  -0.28    -0.08  -0.08  -0.01
  17   1     0.07   0.00  -0.04     0.01   0.00  -0.29     0.07  -0.08   0.01
  18   1    -0.01  -0.02  -0.15     0.03   0.01  -0.21     0.08   0.09   0.01
  19   1    -0.12  -0.01  -0.00     0.03   0.00   0.03    -0.04  -0.06  -0.01
                     13                     14                     15
                        a                      a                      a 
 Frequencies --   680.0468               737.5911               806.0513
 Red. masses --    11.2730                10.6771                 5.0283
 Frc consts  --     0.0000                 0.0000                 0.0000
 IR Inten    --     4.1730                31.5212                38.6619
 Raman Activ --     0.0000                 0.0000                 0.0000
 Depolar     --     0.0000                 0.0000                 0.0000
 Atom AN      X      Y      Z        X      Y      Z        X      Y      Z
   1   6     0.06  -0.00  -0.07    -0.12   0.00   0.05     0.01  -0.00  -0.05
   2   6     0.02  -0.00  -0.02    -0.43  -0.00  -0.20    -0.05  -0.01  -0.02
   3   6    -0.10   0.00   0.54    -0.06  -0.00   0.08    -0.06   0.00   0.28
   4   6    -0.01  -0.01  -0.30     0.27  -0.05   0.03     0.04  -0.02  -0.18
   5   6    -0.09  -0.04   0.28     0.27   0.14   0.08     0.04  -0.01  -0.19
   6   6     0.10  -0.00  -0.48    -0.10  -0.00  -0.09    -0.04  -0.00   0.28
   7   6    -0.10   0.04   0.29     0.28  -0.13   0.09     0.05   0.01  -0.26
   8   6    -0.01   0.01  -0.30     0.28   0.06   0.03     0.05   0.02  -0.21
   9   8     0.07   0.00   0.08    -0.42  -0.01  -0.05    -0.02   0.00  -0.07
  10   1     0.05  -0.00  -0.03     0.09  -0.00  -0.04     0.05  -0.00  -0.04
  11   1     0.05   0.00  -0.03     0.09   0.00  -0.04     0.05   0.01  -0.03
  12   1     0.01   0.00   0.04    -0.06   0.00   0.24    -0.01   0.00   0.07
  13   1     0.05   0.00  -0.02    -0.11   0.00  -0.05     0.03   0.01  -0.02
  14   1     0.05  -0.00  -0.02    -0.11  -0.00  -0.06     0.03   0.00  -0.03
  15   1     0.01  -0.00  -0.13     0.11   0.00  -0.04    -0.04  -0.00   0.31
  16   1    -0.04  -0.00   0.10     0.14   0.00  -0.01    -0.05  -0.00   0.37
  17   1    -0.04   0.00   0.09     0.14  -0.00  -0.02    -0.07   0.00   0.50
  18   1     0.01   0.00  -0.13     0.12  -0.00  -0.04    -0.05   0.01   0.36
  19   1     0.02   0.00   0.01    -0.09   0.00  -0.01    -0.00   0.00  -0.02
                     16                     17                     18
                        a                      a                      a 
 Frequencies --   822.0879               857.6540               862.8072
 Red. masses --     2.4732                11.3107                 3.3522
 Frc consts  --     0.0000                 0.0000                 0.0000
 IR Inten    --     5.5023                24.6611                 0.4295
 Raman Activ --     0.0000                 0.0000                 0.0000
 Depolar     --     0.0000                 0.0000                 0.0000
 Atom AN      X      Y      Z        X      Y      Z        X      Y      Z
   1   6    -0.00   0.12  -0.00     0.12  -0.00  -0.05    -0.00  -0.01  -0.01
   2   6    -0.00   0.32  -0.00     0.19   0.00   0.12    -0.01  -0.02  -0.00
   3   6    -0.00  -0.01   0.01    -0.15   0.00  -0.04    -0.00   0.00   0.03
   4   6    -0.02  -0.06  -0.02     0.13  -0.42   0.02     0.03   0.01  -0.21
   5   6    -0.04  -0.02  -0.02    -0.02  -0.35  -0.00     0.04   0.01  -0.28
   6   6    -0.00   0.01   0.01     0.07  -0.00   0.01    -0.01  -0.00   0.04
   7   6     0.04  -0.02   0.01    -0.02   0.35   0.01    -0.04  -0.00   0.26
   8   6     0.02  -0.06   0.01     0.12   0.42   0.02    -0.02  -0.00   0.13
   9   8    -0.00  -0.01  -0.00    -0.39   0.00  -0.06     0.01  -0.00  -0.01
  10   1    -0.15  -0.16   0.37    -0.05   0.01   0.02     0.01   0.01  -0.02
  11   1     0.16  -0.17  -0.36    -0.06  -0.00   0.02    -0.00   0.01   0.01
  12   1    -0.00  -0.16   0.00     0.05  -0.00  -0.18    -0.00   0.01   0.01
  13   1    -0.07  -0.22  -0.42     0.05   0.01   0.04     0.01   0.01   0.01
  14   1     0.08  -0.21   0.43     0.05  -0.00   0.04    -0.00   0.01  -0.02
  15   1    -0.03  -0.03   0.03     0.13  -0.07   0.02    -0.07   0.00   0.43
  16   1    -0.03   0.01   0.02    -0.08  -0.06  -0.01    -0.07   0.00   0.52
  17   1     0.03   0.00  -0.00    -0.07   0.06  -0.03     0.07  -0.00  -0.50
  18   1     0.03  -0.03  -0.01     0.12   0.07   0.01     0.04   0.00  -0.26
  19   1    -0.01  -0.01  -0.00    -0.09  -0.00  -0.01     0.00   0.00  -0.00
                     19                     20                     21
                        a                      a                      a 
 Frequencies --   902.1707               919.9657              1000.4513
 Red. masses --     2.7318                 3.8477                 8.2577
 Frc consts  --     0.0000                 0.0000                 0.0000
 IR Inten    --     0.0685                 0.1189                24.1939
 Raman Activ --     0.0000                 0.0000                 0.0000
 Depolar     --     0.0000                 0.0000                 0.0000
 Atom AN      X      Y      Z        X      Y      Z        X      Y      Z
   1   6    -0.00  -0.00   0.02     0.00  -0.00  -0.00     0.28  -0.00  -0.15
   2   6     0.01  -0.00  -0.00    -0.00  -0.01   0.00    -0.11   0.00   0.15
   3   6     0.00   0.00  -0.00     0.00  -0.00  -0.00    -0.22  -0.00   0.03
   4   6    -0.02   0.01   0.12     0.05   0.00  -0.33     0.03  -0.23  -0.00
   5   6     0.02  -0.00  -0.14    -0.04   0.00   0.25     0.09   0.39   0.01
   6   6     0.00  -0.00  -0.04     0.00  -0.00   0.00    -0.11  -0.00  -0.02
   7   6     0.03   0.00  -0.19     0.02   0.00  -0.16     0.09  -0.39   0.01
   8   6    -0.04  -0.00   0.29    -0.04   0.00   0.24     0.02   0.24  -0.00
   9   8     0.00   0.00  -0.01    -0.00   0.00   0.01     0.12  -0.00   0.02
  10   1    -0.01   0.00   0.00     0.00   0.00  -0.00    -0.11   0.02   0.02
  11   1    -0.01  -0.00   0.01     0.00   0.00   0.00    -0.11  -0.02   0.02
  12   1     0.00   0.00  -0.01     0.00   0.00   0.00     0.11  -0.00  -0.37
  13   1    -0.00   0.00   0.01     0.01   0.00   0.00    -0.12   0.01   0.10
  14   1    -0.01   0.00   0.00    -0.01   0.00  -0.00    -0.12  -0.00   0.10
  15   1     0.05   0.00  -0.33    -0.09   0.00   0.58    -0.10  -0.12  -0.01
  16   1    -0.05  -0.00   0.37     0.07  -0.00  -0.44    -0.09   0.17  -0.00
  17   1    -0.06   0.00   0.42    -0.04  -0.00   0.22    -0.09  -0.17  -0.01
  18   1     0.10  -0.00  -0.63     0.06   0.00  -0.37    -0.10   0.12  -0.01
  19   1    -0.00  -0.00   0.00     0.00   0.00  -0.01     0.04   0.00   0.01
                     22                     23                     24
                        a                      a                      a 
 Frequencies --  1031.2302              1061.1602              1079.3723
 Red. masses --     6.3816                 4.2235                 8.2248
 Frc consts  --     0.0000                 0.0000                 0.0000
 IR Inten    --     0.8792                 9.0971                14.1672
 Raman Activ --     0.0000                 0.0000                 0.0000
 Depolar     --     0.0000                 0.0000                 0.0000
 Atom AN      X      Y      Z        X      Y      Z        X      Y      Z
   1   6     0.31   0.00  -0.20    -0.01   0.20   0.01     0.07   0.01   0.51
   2   6    -0.27  -0.01   0.15     0.02  -0.37  -0.00     0.11  -0.01  -0.60
   3   6    -0.07  -0.01   0.07    -0.00  -0.16  -0.01    -0.05  -0.00   0.12
   4   6    -0.03   0.30  -0.01    -0.01   0.14   0.00     0.00   0.01  -0.02
   5   6     0.04  -0.18   0.00     0.06   0.10   0.01     0.01  -0.00  -0.01
   6   6     0.05  -0.00   0.01    -0.00  -0.10  -0.00    -0.01   0.00   0.00
   7   6     0.04   0.19   0.00    -0.07   0.09  -0.01     0.01  -0.00  -0.01
   8   6    -0.02  -0.28  -0.01     0.01   0.17  -0.00     0.00  -0.01  -0.02
   9   8    -0.07  -0.00  -0.01    -0.03  -0.04  -0.00     0.01   0.01   0.00
  10   1    -0.12   0.02   0.02    -0.11  -0.08   0.25    -0.26   0.02   0.23
  11   1    -0.11  -0.02   0.00     0.12  -0.08  -0.25    -0.25  -0.02   0.23
  12   1     0.12  -0.01  -0.38    -0.00  -0.13   0.01     0.06  -0.00  -0.27
  13   1    -0.20   0.01   0.12     0.48   0.09   0.02    -0.04   0.01  -0.11
  14   1    -0.23   0.00   0.12    -0.46   0.08  -0.03    -0.04  -0.01  -0.11
  15   1     0.12   0.16   0.03    -0.03   0.03  -0.01     0.01   0.01   0.03
  16   1     0.20  -0.16   0.04     0.14  -0.04   0.02     0.02  -0.01   0.01
  17   1     0.18   0.14   0.03    -0.13  -0.04  -0.02     0.01   0.01   0.01
  18   1     0.13  -0.16   0.03     0.01   0.04   0.01     0.00  -0.01   0.03
  19   1    -0.01  -0.00  -0.00     0.14   0.06   0.02    -0.02  -0.01  -0.00
                     25                     26                     27
                        a                      a                      a 
 Frequencies --  1109.0526              1136.4993              1186.1192
 Red. masses --     3.6714                 2.3603                 2.4400
 Frc consts  --     0.0000                 0.0000                 0.0000
 IR Inten    --   264.1561                46.4668                53.1076
 Raman Activ --     0.0000                 0.0000                 0.0000
 Depolar     --     0.0000                 0.0000                 0.0000
 Atom AN      X      Y      Z        X      Y      Z        X      Y      Z
   1   6    -0.00  -0.06   0.01    -0.01  -0.05  -0.00    -0.01   0.00   0.00
   2   6     0.01   0.11  -0.01     0.02   0.10   0.01     0.04  -0.01   0.02
   3   6    -0.01  -0.06   0.00    -0.02  -0.11  -0.01    -0.07   0.02  -0.02
   4   6    -0.07   0.05  -0.01    -0.12   0.02  -0.02    -0.05  -0.17  -0.01
   5   6     0.00   0.15   0.00     0.10   0.07   0.01     0.02  -0.05   0.00
   6   6     0.03  -0.20   0.00    -0.06  -0.04  -0.01    -0.19   0.03  -0.03
   7   6    -0.01   0.15  -0.00    -0.10   0.07  -0.01     0.08   0.04   0.01
   8   6     0.05   0.05   0.01     0.11   0.09   0.02    -0.08   0.12  -0.01
   9   8    -0.19  -0.24  -0.03     0.10   0.08   0.02     0.12  -0.02   0.02
  10   1     0.02   0.02  -0.06     0.03   0.02  -0.06     0.01  -0.00   0.00
  11   1    -0.03   0.02   0.07    -0.02   0.02   0.05     0.01   0.00  -0.01
  12   1     0.00   0.03  -0.01    -0.00   0.03   0.01    -0.00  -0.00   0.01
  13   1    -0.11  -0.02  -0.02    -0.07  -0.02  -0.02     0.04  -0.00  -0.01
  14   1     0.12  -0.02   0.01     0.10  -0.02   0.02     0.03   0.00  -0.02
  15   1    -0.21  -0.09  -0.03    -0.36  -0.18  -0.06    -0.21  -0.16  -0.04
  16   1     0.01   0.04   0.00     0.51  -0.27   0.08     0.40  -0.26   0.06
  17   1     0.02   0.06   0.00    -0.37  -0.17  -0.05     0.52   0.29   0.08
  18   1     0.18  -0.08   0.03     0.31  -0.13   0.05    -0.38   0.24  -0.06
  19   1     0.75   0.28   0.11    -0.23  -0.09  -0.03     0.06   0.01   0.01
                     28                     29                     30
                        a                      a                      a 
 Frequencies --  1211.4507              1233.5601              1272.4129
 Red. masses --     5.7986                 3.4990                10.3987
 Frc consts  --     0.0000                 0.0000                 0.0000
 IR Inten    --   135.1610                 1.1583               172.2521
 Raman Activ --     0.0000                 0.0000                 0.0000
 Depolar     --     0.0000                 0.0000                 0.0000
 Atom AN      X      Y      Z        X      Y      Z        X      Y      Z
   1   6     0.02   0.00  -0.04     0.00  -0.35   0.00     0.01   0.01   0.05
   2   6    -0.17  -0.01  -0.06    -0.00   0.26  -0.00     0.08  -0.00   0.09
   3   6     0.43   0.00   0.10     0.00  -0.16   0.00    -0.41  -0.02  -0.09
   4   6     0.02   0.05   0.00     0.01   0.05   0.00    -0.18   0.14  -0.03
   5   6     0.03  -0.13   0.00    -0.04   0.04  -0.01     0.19   0.10   0.03
   6   6     0.34  -0.01   0.05     0.02  -0.01   0.00     0.55  -0.01   0.08
   7   6     0.00   0.13  -0.00     0.05   0.04   0.01     0.24  -0.08   0.04
   8   6     0.02  -0.03   0.00    -0.01   0.04  -0.00    -0.22  -0.13  -0.03
   9   8    -0.19   0.01  -0.03    -0.01  -0.01  -0.00    -0.29   0.01  -0.04
  10   1    -0.03  -0.00   0.01     0.11   0.07  -0.29     0.01   0.00   0.00
  11   1    -0.02   0.00   0.00    -0.11   0.08   0.29     0.01  -0.01  -0.01
  12   1     0.00  -0.00  -0.01     0.00   0.13  -0.00     0.01  -0.00  -0.05
  13   1    -0.22  -0.02   0.05     0.35  -0.05  -0.35     0.21  -0.00  -0.09
  14   1    -0.22   0.02   0.04    -0.35  -0.04   0.35     0.24   0.00  -0.11
  15   1    -0.42  -0.24  -0.06     0.12   0.09   0.02    -0.11   0.01  -0.02
  16   1    -0.13   0.05  -0.02     0.05  -0.02   0.01     0.07   0.03   0.01
  17   1    -0.16  -0.06  -0.02    -0.07  -0.03  -0.01     0.03  -0.06   0.00
  18   1    -0.36   0.21  -0.06    -0.14   0.09  -0.02    -0.12  -0.01  -0.02
  19   1    -0.07  -0.01  -0.01     0.01   0.00   0.00    -0.10  -0.02  -0.02
                     31                     32                     33
                        a                      a                      a 
 Frequencies --  1285.4321              1320.4869              1336.5669
 Red. masses --     3.2933                 5.7250                11.3527
 Frc consts  --     0.0000                 0.0000                 0.0000
 IR Inten    --    34.4503                 5.3193                26.9082
 Raman Activ --     0.0000                 0.0000                 0.0000
 Depolar     --     0.0000                 0.0000                 0.0000
 Atom AN      X      Y      Z        X      Y      Z        X      Y      Z
   1   6    -0.00   0.07  -0.00    -0.16  -0.00  -0.09    -0.01  -0.03  -0.00
   2   6     0.01   0.02  -0.01     0.52  -0.00  -0.19     0.04  -0.02  -0.01
   3   6     0.02  -0.19   0.01    -0.21  -0.02   0.03    -0.04   0.40  -0.00
   4   6    -0.13  -0.11  -0.02    -0.05   0.01  -0.01    -0.36  -0.17  -0.05
   5   6    -0.12   0.08  -0.02     0.03   0.07   0.00     0.36  -0.17   0.05
   6   6     0.02   0.24   0.00     0.11  -0.03   0.02     0.04   0.38   0.01
   7   6     0.10   0.08   0.01     0.08  -0.05   0.01    -0.34  -0.20  -0.05
   8   6     0.13  -0.11   0.02    -0.11   0.02  -0.02     0.33  -0.18   0.05
   9   8    -0.06  -0.08  -0.01    -0.05   0.01  -0.01    -0.06  -0.03  -0.01
  10   1    -0.01  -0.01   0.05     0.07  -0.05   0.01     0.01   0.00  -0.02
  11   1     0.02  -0.01  -0.05     0.07   0.05   0.01    -0.00   0.01   0.02
  12   1    -0.00  -0.02   0.01    -0.06   0.00   0.20    -0.00   0.01   0.01
  13   1    -0.19  -0.01   0.09    -0.39   0.04   0.31     0.11   0.02  -0.03
  14   1     0.15  -0.01  -0.06    -0.39  -0.04   0.31    -0.14   0.01   0.06
  15   1     0.39   0.22   0.06     0.03   0.03   0.01    -0.02   0.00  -0.00
  16   1     0.29  -0.17   0.04     0.05  -0.00   0.01     0.01   0.01   0.00
  17   1    -0.35  -0.19  -0.05     0.07   0.01   0.01     0.01   0.00   0.00
  18   1    -0.38   0.21  -0.06     0.05  -0.04   0.02     0.02  -0.01   0.00
  19   1     0.19   0.07   0.03    -0.04  -0.01  -0.00     0.13   0.06   0.02
                     34                     35                     36
                        a                      a                      a 
 Frequencies --  1403.8082              1428.1519              1483.0542
 Red. masses --     3.0363                 9.7030                 2.0558
 Frc consts  --     0.0000                 0.0000                 0.0000
 IR Inten    --     0.1823                28.1074                 7.4776
 Raman Activ --     0.0000                 0.0000                 0.0000
 Depolar     --     0.0000                 0.0000                 0.0000
 Atom AN      X      Y      Z        X      Y      Z        X      Y      Z
   1   6     0.22  -0.00  -0.36    -0.00  -0.01   0.00     0.01   0.00   0.03
   2   6    -0.05  -0.00   0.01    -0.00  -0.08   0.00    -0.17  -0.00  -0.23
   3   6     0.00   0.00  -0.01     0.02   0.41   0.00    -0.02   0.00  -0.02
   4   6    -0.01  -0.01  -0.00     0.30  -0.13   0.04     0.03   0.04   0.01
   5   6    -0.00   0.01   0.00    -0.33  -0.09  -0.05     0.02  -0.04   0.00
   6   6     0.02   0.00   0.00     0.00   0.38   0.00    -0.04   0.00  -0.01
   7   6     0.00  -0.01   0.00     0.33  -0.10   0.05     0.02   0.04   0.00
   8   6    -0.02   0.01  -0.00    -0.31  -0.12  -0.05     0.03  -0.04   0.01
   9   8    -0.01  -0.00  -0.00    -0.04  -0.09  -0.01     0.01  -0.00   0.00
  10   1    -0.34  -0.14   0.37    -0.00   0.00  -0.01    -0.02   0.05  -0.07
  11   1    -0.34   0.15   0.36     0.00  -0.00   0.00    -0.02  -0.06  -0.07
  12   1    -0.05   0.01   0.52     0.00   0.01  -0.00    -0.00  -0.00  -0.01
  13   1     0.08   0.03   0.00     0.12   0.01  -0.02     0.29   0.40   0.44
  14   1     0.08  -0.03   0.00    -0.12   0.02   0.01     0.29  -0.39   0.45
  15   1     0.01   0.01  -0.00    -0.10  -0.15  -0.02    -0.06  -0.02  -0.01
  16   1     0.01  -0.00   0.00     0.12  -0.16   0.02    -0.03   0.01  -0.01
  17   1     0.01   0.00   0.00    -0.13  -0.16  -0.02    -0.03  -0.01  -0.01
  18   1     0.01  -0.01  -0.00     0.12  -0.16   0.02    -0.06   0.02  -0.01
  19   1    -0.00   0.00  -0.00     0.15   0.05   0.02     0.01   0.00   0.00
                     37                     38                     39
                        a                      a                      a 
 Frequencies --  1493.6077              1493.8461              1504.1202
 Red. masses --     2.0329                 7.2825                 3.4809
 Frc consts  --     0.0000                 0.0000                 0.0000
 IR Inten    --    10.6700               109.2042                42.9689
 Raman Activ --     0.0000                 0.0000                 0.0000
 Depolar     --     0.0000                 0.0000                 0.0000
 Atom AN      X      Y      Z        X      Y      Z        X      Y      Z
   1   6    -0.03  -0.20  -0.02    -0.08   0.06  -0.07     0.16  -0.00   0.09
   2   6     0.02  -0.04   0.01     0.08   0.01   0.02     0.14   0.00   0.05
   3   6    -0.10  -0.00  -0.01    -0.34  -0.01  -0.05    -0.20  -0.00  -0.03
   4   6     0.04   0.06   0.01     0.16   0.20   0.02     0.07   0.11   0.01
   5   6     0.06  -0.06   0.01     0.19  -0.22   0.03     0.12  -0.12   0.02
   6   6    -0.11   0.00  -0.02    -0.36   0.02  -0.05    -0.19   0.01  -0.03
   7   6     0.05   0.06   0.01     0.19   0.20   0.03     0.12   0.11   0.02
   8   6     0.05  -0.06   0.01     0.15  -0.20   0.02     0.07  -0.10   0.01
   9   8     0.03  -0.00   0.00     0.09  -0.01   0.01     0.04  -0.00   0.01
  10   1    -0.39   0.02   0.13     0.29  -0.20   0.17    -0.32   0.32  -0.34
  11   1     0.49   0.13  -0.02     0.03   0.16   0.21    -0.31  -0.32  -0.33
  12   1     0.00   0.69  -0.04     0.01  -0.21  -0.11    -0.02   0.01   0.30
  13   1    -0.01  -0.00   0.02     0.01  -0.02  -0.04    -0.06  -0.06  -0.05
  14   1     0.02   0.00  -0.03     0.01   0.02  -0.02    -0.06   0.06  -0.05
  15   1    -0.05  -0.02  -0.01    -0.18  -0.07  -0.03    -0.09  -0.03  -0.01
  16   1    -0.05   0.02  -0.01    -0.17   0.07  -0.03    -0.09   0.04  -0.01
  17   1    -0.05  -0.02  -0.01    -0.18  -0.07  -0.03    -0.10  -0.04  -0.01
  18   1    -0.06   0.02  -0.01    -0.18   0.07  -0.03    -0.09   0.03  -0.01
  19   1     0.01   0.00   0.00     0.04   0.01   0.01     0.02   0.01   0.00
                     40                     41                     42
                        a                      a                      a 
 Frequencies --  1587.9752              1613.6199              2972.9344
 Red. masses --    11.5460                11.5448                 1.9816
 Frc consts  --     0.0000                 0.0000                 0.0000
 IR Inten    --    19.1368                53.6680                59.6090
 Raman Activ --     0.0000                 0.0000                 0.0000
 Depolar     --     0.0000                 0.0000                 0.0000
 Atom AN      X      Y      Z        X      Y      Z        X      Y      Z
   1   6     0.00   0.00  -0.00    -0.01   0.00   0.01     0.00   0.02  -0.00
   2   6     0.00   0.04  -0.00    -0.05   0.00  -0.01    -0.00  -0.30   0.00
   3   6    -0.01  -0.50  -0.00     0.30  -0.03   0.04     0.00  -0.01   0.00
   4   6     0.17   0.28   0.02    -0.43  -0.13  -0.06    -0.00   0.00  -0.00
   5   6     0.10  -0.28   0.01     0.42  -0.13   0.06     0.00  -0.00   0.00
   6   6     0.02   0.54   0.00    -0.24   0.03  -0.04     0.00   0.00   0.00
   7   6    -0.15  -0.30  -0.02     0.40   0.10   0.06    -0.00  -0.00  -0.00
   8   6    -0.13   0.28  -0.02    -0.44   0.16  -0.06     0.00   0.00   0.00
   9   8    -0.03  -0.05  -0.00     0.02  -0.01   0.00    -0.00   0.00  -0.00
  10   1    -0.00   0.00   0.00     0.01  -0.00   0.00    -0.02  -0.06  -0.04
  11   1     0.00   0.00  -0.00     0.01   0.00   0.00     0.02  -0.06   0.04
  12   1    -0.00   0.00   0.00     0.00   0.00  -0.01    -0.00   0.01  -0.00
  13   1    -0.06  -0.01   0.01    -0.01   0.00   0.01    -0.19   0.53  -0.36
  14   1     0.06  -0.01  -0.01    -0.00  -0.01   0.01     0.20   0.55   0.35
  15   1    -0.08  -0.00  -0.01     0.08   0.07   0.01     0.01  -0.01   0.00
  16   1    -0.06  -0.02  -0.01    -0.07   0.07  -0.01     0.00   0.00   0.00
  17   1     0.08  -0.01   0.01    -0.06  -0.07  -0.01    -0.00   0.00  -0.00
  18   1     0.08   0.00   0.01     0.09  -0.07   0.01    -0.01  -0.01  -0.00
  19   1     0.10   0.04   0.01     0.02   0.01   0.00     0.00  -0.00   0.00
                     43                     44                     45
                        a                      a                      a 
 Frequencies --  2984.2710              3029.7883              3030.8841
 Red. masses --     1.4754                 1.9557                 1.9481
 Frc consts  --     0.0000                 0.0000                 0.0000
 IR Inten    --    65.6090                80.4316                90.3829
 Raman Activ --     0.0000                 0.0000                 0.0000
 Depolar     --     0.0000                 0.0000                 0.0000
 Atom AN      X      Y      Z        X      Y      Z        X      Y      Z
   1   6    -0.02   0.00  -0.01     0.02  -0.29   0.01    -0.26  -0.02  -0.12
   2   6     0.10  -0.00   0.18     0.00  -0.04   0.00    -0.02  -0.00  -0.02
   3   6     0.01  -0.00   0.00    -0.00  -0.00  -0.00     0.00  -0.00   0.00
   4   6    -0.00   0.00  -0.00    -0.00   0.00  -0.00     0.00   0.00   0.00
   5   6     0.00   0.00  -0.00    -0.00  -0.00  -0.00    -0.00  -0.00  -0.00
   6   6    -0.00  -0.00  -0.00    -0.00   0.00   0.00     0.00   0.00   0.00
   7   6     0.00  -0.00  -0.00     0.00  -0.00   0.00    -0.00   0.00  -0.00
   8   6    -0.00  -0.00  -0.00     0.00   0.00   0.00     0.00  -0.00   0.00
   9   8     0.00   0.00   0.00    -0.00   0.00  -0.00    -0.00  -0.00  -0.00
  10   1     0.01   0.03   0.02     0.19   0.51   0.34     0.07   0.33   0.18
  11   1     0.01  -0.03   0.02    -0.20   0.55  -0.38     0.04  -0.25   0.14
  12   1     0.06   0.00   0.01    -0.05  -0.04  -0.01     0.82  -0.00   0.10
  13   1    -0.18   0.58  -0.34    -0.02   0.06  -0.04     0.01  -0.05   0.03
  14   1    -0.18  -0.58  -0.32     0.02   0.05   0.03     0.02   0.05   0.03
  15   1     0.00  -0.01   0.00     0.00  -0.00   0.00     0.00  -0.00   0.00
  16   1    -0.00  -0.00  -0.00     0.00   0.00   0.00     0.00   0.00   0.00
  17   1    -0.00   0.01  -0.00    -0.00   0.00  -0.00     0.00  -0.01   0.00
  18   1     0.00   0.01   0.00    -0.00  -0.00  -0.00     0.00   0.00   0.00
  19   1     0.00  -0.00   0.00     0.00  -0.00   0.00     0.00   0.00   0.00
                     46                     47                     48
                        a                      a                      a 
 Frequencies --  3039.4020              3064.4842              3074.8079
 Red. masses --     1.2448                 1.7815                 1.8138
 Frc consts  --     0.0000                 0.0000                 0.0000
 IR Inten    --    37.7357                49.4059               127.0945
 Raman Activ --     0.0000                 0.0000                 0.0000
 Depolar     --     0.0000                 0.0000                 0.0000
 Atom AN      X      Y      Z        X      Y      Z        X      Y      Z
   1   6     0.04  -0.00  -0.14    -0.00   0.00  -0.00    -0.00  -0.00  -0.00
   2   6     0.00  -0.00  -0.01    -0.00   0.00  -0.00     0.00  -0.00   0.00
   3   6    -0.00   0.00  -0.00     0.00   0.00   0.00     0.01  -0.00   0.00
   4   6    -0.00   0.00  -0.00    -0.01   0.01  -0.00     0.12  -0.21   0.02
   5   6     0.00   0.00   0.00    -0.01  -0.01  -0.00     0.03   0.04   0.00
   6   6    -0.00  -0.00  -0.00     0.01  -0.00   0.00     0.00   0.00   0.00
   7   6     0.00  -0.00   0.00     0.11  -0.20   0.02     0.03  -0.06   0.00
   8   6    -0.00  -0.00  -0.00     0.07   0.12   0.01    -0.04  -0.07  -0.01
   9   8     0.00   0.00   0.00    -0.00   0.00  -0.00    -0.00  -0.00  -0.00
  10   1     0.17   0.51   0.29    -0.00  -0.00  -0.00     0.00   0.00   0.00
  11   1     0.17  -0.49   0.30     0.00  -0.00   0.00     0.00  -0.00  -0.00
  12   1    -0.49  -0.00  -0.09     0.01   0.00   0.00     0.00   0.00   0.00
  13   1     0.00  -0.01   0.00     0.00  -0.00   0.00    -0.00   0.01  -0.01
  14   1     0.00   0.01   0.00    -0.00  -0.00  -0.00     0.00   0.00   0.00
  15   1     0.00  -0.01   0.00     0.03  -0.04   0.00    -0.42   0.75  -0.06
  16   1    -0.00  -0.00  -0.00     0.02   0.04   0.00    -0.11  -0.18  -0.02
  17   1    -0.00   0.00  -0.00    -0.40   0.71  -0.06    -0.12   0.21  -0.02
  18   1     0.00   0.01   0.00    -0.25  -0.44  -0.04     0.14   0.24   0.02
  19   1     0.00  -0.00   0.00    -0.00  -0.00  -0.00    -0.00   0.00  -0.00
                     49                     50                     51
                        a                      a                      a 
 Frequencies --  3079.7285              3098.8605              3459.1627
 Red. masses --     1.8586                 1.8599                 1.8655
 Frc consts  --     0.0000                 0.0000                 0.0000
 IR Inten    --    85.1399                75.0470               140.1836
 Raman Activ --     0.0000                 0.0000                 0.0000
 Depolar     --     0.0000                 0.0000                 0.0000
 Atom AN      X      Y      Z        X      Y      Z        X      Y      Z
   1   6     0.00  -0.00  -0.00     0.00   0.00  -0.00     0.00   0.00   0.00
   2   6     0.00   0.00   0.00     0.00  -0.00   0.00    -0.00   0.00  -0.00
   3   6     0.01  -0.00   0.00     0.00   0.00   0.00    -0.00  -0.00   0.00
   4   6     0.04  -0.08   0.01     0.04  -0.07   0.01    -0.00   0.00  -0.00
   5   6     0.03   0.04   0.00    -0.13  -0.23  -0.02     0.00   0.00   0.00
   6   6    -0.01  -0.00  -0.00    -0.01  -0.00  -0.00    -0.01   0.01  -0.00
   7   6    -0.06   0.12  -0.01    -0.01   0.02  -0.00     0.00  -0.00   0.00
   8   6     0.11   0.19   0.02     0.01   0.02   0.00    -0.00   0.00  -0.00
   9   8     0.00  -0.00   0.00     0.00   0.00   0.00    -0.09   0.22  -0.01
  10   1     0.00   0.00   0.00     0.00   0.00   0.00    -0.00  -0.00  -0.00
  11   1     0.00  -0.00   0.00     0.00  -0.00   0.00    -0.00   0.00   0.00
  12   1    -0.01  -0.00  -0.00    -0.00   0.00  -0.00     0.00  -0.00  -0.00
  13   1    -0.00   0.00  -0.00    -0.00   0.00  -0.00     0.00  -0.00   0.00
  14   1    -0.00  -0.01  -0.01    -0.00  -0.00  -0.00     0.00   0.00   0.00
  15   1    -0.16   0.28  -0.02    -0.13   0.23  -0.02     0.00  -0.00   0.00
  16   1    -0.10  -0.17  -0.01     0.46   0.79   0.07    -0.00  -0.01  -0.00
  17   1     0.21  -0.39   0.03     0.04  -0.07   0.01    -0.00  -0.00  -0.00
  18   1    -0.37  -0.67  -0.06    -0.03  -0.06  -0.01     0.00   0.00   0.00
  19   1     0.00   0.00   0.00     0.00  -0.01   0.00     0.38  -0.89   0.06
