      -----------------------------------------------------------      
     |                   =====================                   |     
     |                           x T B                           |     
     |                   =====================                   |     
     |                         S. Grimme                         |     
     |          Mulliken Center for Theoretical Chemistry        |     
     |                    University of Bonn                     |     
      -----------------------------------------------------------      

   * xtb version 6.7.1 (edcfbbe) compiled by 'albert@albert-system' on 2024-07-22

   xtb is free software: you can redistribute it and/or modify it under
   the terms of the GNU Lesser General Public License as published by
   the Free Software Foundation, either version 3 of the License, or
   (at your option) any later version.
   
   xtb is distributed in the hope that it will be useful,
   but WITHOUT ANY WARRANTY; without even the implied warranty of
   MERCHANTABILITY or FITNESS FOR A PARTICULAR PURPOSE.  See the
   GNU Lesser General Public License for more details.
   
   Cite this work as:
   * C. Bannwarth, E. Caldeweyher, S. Ehlert, A. Hansen, P. Pracht,
     J. Seibert, S. Spicher, S. Grimme, WIREs Comput. Mol. Sci., 2020, 11,
     e01493. DOI: 10.1002/wcms.1493
   
   for GFN2-xTB:
   * C. Bannwarth, S. Ehlert and S. Grimme., J. Chem. Theory Comput., 2019,
     15, 1652-1671. DOI: 10.1021/acs.jctc.8b01176
   for GFN1-xTB:
   * S. Grimme, C. Bannwarth, P. Shushkov, J. Chem. Theory Comput., 2017,
     13, 1989-2009. DOI: 10.1021/acs.jctc.7b00118
   for GFN0-xTB:
   * P. Pracht, E. Caldeweyher, S. Ehlert, S. Grimme, ChemRxiv, 2019, preprint.
     DOI: 10.26434/chemrxiv.8326202.v1
   for GFN-FF:
   * S. Spicher and S. Grimme, Angew. Chem. Int. Ed., 2020, 59, 15665-15673.
     DOI: 10.1002/anie.202004239
   
   for ALPB and GBSA implicit solvation:
   * S. Ehlert, M. Stahn, S. Spicher, S. Grimme, J. Chem. Theory Comput.,
     2021, 17, 4250-4261. DOI: 10.1021/acs.jctc.1c00471
   
   for ddCOSMO and CPCM-X implicit solvation:
   * M. Stahn, S. Ehlert, S. Grimme, J. Phys. Chem. A,
     2023, XX, XXXX-XXXX. DOI: 10.1021/acs.jpca.3c04382
   
   for DFT-D4:
   * E. Caldeweyher, C. Bannwarth and S. Grimme, J. Chem. Phys., 2017,
     147, 034112. DOI: 10.1063/1.4993215
   * E. Caldeweyher, S. Ehlert, A. Hansen, H. Neugebauer, S. Spicher,
     C. Bannwarth and S. Grimme, J. Chem. Phys., 2019, 150, 154122.
     DOI: 10.1063/1.5090222
   * E. Caldeweyher, J.-M. Mewes, S. Ehlert and S. Grimme, Phys. Chem. Chem. Phys.
     2020, 22, 8499-8512. DOI: 10.1039/D0CP00502A
   
   for sTDA-xTB:
   * S. Grimme and C. Bannwarth, J. Chem. Phys., 2016, 145, 054103.
     DOI: 10.1063/1.4959605
   
   in the mass-spec context:
   * V. Asgeirsson, C. Bauer and S. Grimme, Chem. Sci., 2017, 8, 4879.
     DOI: 10.1039/c7sc00601b
   * J. Koopman and S. Grimme, ACS Omega 2019, 4, 12, 15120-15133.
     DOI: 10.1021/acsomega.9b02011
   
   for metadynamics refer to:
   * S. Grimme, J. Chem. Theory Comput., 2019, 155, 2847-2862
     DOI: 10.1021/acs.jctc.9b00143
   
   for SPH calculations refer to:
   * S. Spicher and S. Grimme, J. Chem. Theory Comput., 2021, 17, 1701-1714
     DOI: 10.1021/acs.jctc.0c01306
   
   for ONIOM refer to:
   * C. Plett, A. Katbashev, S. Ehlert, S. Grimme, M. Bursch,
     Phys. Chem. Chem. Phys., 2023, 25, 17860-17868. DOI: 10.1039/D3CP02178E
   
   for DIPRO refer to:
   * J. Kohn, N. Gildemeister, S. Grimme, D. Fazzi, A. Hansen,
     J. Chem. Phys., 2023, just accepted.
   
   for PTB refer to:
   * S. Grimme, M. Mueller, A. Hansen, J. Chem. Phys., 2023, 158, 124111.
     DOI: 10.1063/5.0137838
   
   with help from (in alphabetical order)
   P. Atkinson, C. Bannwarth, F. Bohle, G. Brandenburg, E. Caldeweyher
   M. Checinski, S. Dohm, S. Ehlert, S. Ehrlich, I. Gerasimov, C. Hölzer
   A. Katbashev, J. Kohn, J. Koopman, C. Lavigne, S. Lehtola, F. März, M. Müller,
   F. Musil, H. Neugebauer, J. Pisarek, C. Plett, P. Pracht, F. Pultar,
   J. Seibert, P. Shushkov, S. Spicher, M. Stahn, M. Steiner, T. Strunk,
   J. Stückrath, T. Rose, and J. Unsleber
   
 * started run on 2025/04/06 at 18:00:43.867     
   ID    Z sym.   atoms
    1    6 C      1, 2, 4, 6, 8, 10
    2    1 H      3, 5, 7, 9, 11, 18-24
    3    8 O      12-17

           -------------------------------------------------
          |                Calculation Setup                |
           -------------------------------------------------

          program call               : /srv/scratch/z5358697/.xtb/bin/xtb solv.coord --gfn2 --sp --chrg 0 --norestart --parallel 1 --alpb water reference -I xtb_sp-xcontrol-inp
          hostname                   : k155
          coordinate file            : solv.coord
          omp threads                :                     1


           -------------------------------------------------
          |                 G F N 2 - x T B                 |
           -------------------------------------------------

        Reference                      10.1021/acs.jctc.8b01176
      * Hamiltonian:
        H0-scaling (s, p, d)           1.850000    2.230000    2.230000
        zeta-weighting                 0.500000
      * Dispersion:
        s8                             2.700000
        a1                             0.520000
        a2                             5.000000
        s9                             5.000000
      * Repulsion:
        kExp                           1.500000    1.000000
        rExp                           1.000000
      * Coulomb:
        alpha                          2.000000
        third order                    shell-resolved
        anisotropic                    true
        a3                             3.000000
        a5                             4.000000
        cn-shift                       1.200000
        cn-exp                         4.000000
        max-rad                        5.000000

      * Solvation model:               ALPB
        Solvent                        water
        Parameter file                 internal GFN2-xTB/ALPB
        Dielectric constant                8.0200E+01
        Reference state                gsolv=reference [X=1]
        Free energy shift                  2.8945E-03 Eh       1.8164E+00 kcal/mol
        Temperature                        2.9815E+02 K
        Density                            1.0000E+00 kg/L
        Solvent mass                       1.8000E+01 g/mol
        Interaction kernel             P16
        Born radius scaling (c1)           1.4744E+00
        Born radii integrator          GBOBC
        Born offset                        0.0000E+00 a0       0.0000E+00 AA
        H-bond correction              true
        Ion screening                  false
        Surface tension                    1.0000E-05 Eh       1.5569E+01 dyn/cm
        Grid points                               974 per atom

          ...................................................
          :                      SETUP                      :
          :.................................................:
          :  # basis functions                  60          :
          :  # atomic orbitals                  60          :
          :  # shells                           36          :
          :  # electrons                        72          :
          :  max. iterations                   250          :
          :  Hamiltonian                  GFN2-xTB          :
          :  restarted?                      false          :
          :  GBSA solvation                   true          :
          :  PC potential                    false          :
          :  electronic temp.          300.0000000     K    :
          :  accuracy                    1.0000000          :
          :  -> integral cutoff          0.2500000E+02      :
          :  -> integral neglect         0.1000000E-07      :
          :  -> SCF convergence          0.1000000E-05 Eh   :
          :  -> wf. convergence          0.1000000E-03 e    :
          :  Broyden damping             0.4000000          :
          :  net charge                          0          :
          :  unpaired electrons                  0          :
          ...................................................

 iter      E             dE          RMSdq      gap      omega  full diag
   1    -43.6489087 -0.436489E+02  0.486E+00    9.99       0.0  T
   2    -43.6831158 -0.342071E-01  0.261E+00    9.93       1.0  T
   3    -43.6851313 -0.201554E-02  0.615E-01    9.96       1.0  T
   4    -43.6855970 -0.465626E-03  0.183E-01    9.97       1.0  T
   5    -43.6856667 -0.697506E-04  0.806E-02    9.98       1.0  T
   6    -43.6856833 -0.166273E-04  0.218E-02    9.99       1.0  T
   7    -43.6856842 -0.833797E-06  0.555E-03    9.99       3.7  T
   8    -43.6856844 -0.222464E-06  0.225E-03    9.99       9.1  T
   9    -43.6856844 -0.157700E-07  0.940E-04    9.99      21.7  T
  10    -43.6856844 -0.359005E-08  0.348E-04    9.99      58.7  T

   *** convergence criteria satisfied after 10 iterations ***

         #    Occupation            Energy/Eh            Energy/eV
      -------------------------------------------------------------
         1        2.0000           -0.7339102             -19.9707
       ...           ...                  ...                  ...
        30        2.0000           -0.4675793             -12.7235
        31        2.0000           -0.4596070             -12.5065
        32        2.0000           -0.4430479             -12.0559
        33        2.0000           -0.4348534             -11.8330
        34        2.0000           -0.4282769             -11.6540
        35        2.0000           -0.4156581             -11.3106
        36        2.0000           -0.4038313             -10.9888 (HOMO)
        37                         -0.0367707              -1.0006 (LUMO)
        38                          0.0023016               0.0626
        39                          0.0182552               0.4967
        40                          0.0299190               0.8141
        41                          0.0410582               1.1173
       ...                                ...                  ...
        60                          0.2953352               8.0365
      -------------------------------------------------------------
                  HL-Gap            0.3670605 Eh            9.9882 eV
             Fermi-level           -0.2203010 Eh           -5.9947 eV

 SCC (total)                   0 d,  0 h,  0 min,  0.022 sec
 SCC setup                      ...        0 min,  0.001 sec (  6.492%)
 Dispersion                     ...        0 min,  0.000 sec (  0.588%)
 classical contributions        ...        0 min,  0.000 sec (  0.110%)
 integral evaluation            ...        0 min,  0.003 sec ( 11.497%)
 iterations                     ...        0 min,  0.010 sec ( 47.030%)
 molecular gradient             ...        0 min,  0.007 sec ( 33.591%)
 printout                       ...        0 min,  0.000 sec (  0.625%)

         :::::::::::::::::::::::::::::::::::::::::::::::::::::
         ::                     SUMMARY                     ::
         :::::::::::::::::::::::::::::::::::::::::::::::::::::
         :: total energy             -43.384467188771 Eh    ::
         :: total w/o Gsasa/hb       -43.368285000268 Eh    ::
         :: gradient norm              0.000069503379 Eh/a0 ::
         :: HOMO-LUMO gap              9.988225940237 eV    ::
         ::.................................................::
         :: SCC energy               -43.685491227379 Eh    ::
         :: -> isotropic ES            0.168063518129 Eh    ::
         :: -> anisotropic ES         -0.007236774305 Eh    ::
         :: -> anisotropic XC         -0.009599753602 Eh    ::
         :: -> dispersion             -0.019575733253 Eh    ::
         :: -> Gsolv                  -0.034048025594 Eh    ::
         ::    -> Gelec               -0.017865837091 Eh    ::
         ::    -> Gsasa                0.005140734664 Eh    ::
         ::    -> Ghb                 -0.024217472327 Eh    ::
         ::    -> Gshift               0.002894549160 Eh    ::
         :: repulsion energy           0.301024038609 Eh    ::
         :: add. restraining           0.000000000000 Eh    ::
         :: total charge              -0.000000000000 e     ::
         :::::::::::::::::::::::::::::::::::::::::::::::::::::

           -------------------------------------------------
          |                Property Printout                |
           -------------------------------------------------

    * Orbital Energies and Occupations

         #    Occupation            Energy/Eh            Energy/eV
      -------------------------------------------------------------
         1        2.0000           -0.7339102             -19.9707
       ...           ...                  ...                  ...
        24        2.0000           -0.5205298             -14.1643
        25        2.0000           -0.5049903             -13.7415
        26        2.0000           -0.5008981             -13.6301
        27        2.0000           -0.4924386             -13.3999
        28        2.0000           -0.4792548             -13.0412
        29        2.0000           -0.4702246             -12.7955
        30        2.0000           -0.4675793             -12.7235
        31        2.0000           -0.4596070             -12.5065
        32        2.0000           -0.4430479             -12.0559
        33        2.0000           -0.4348534             -11.8330
        34        2.0000           -0.4282769             -11.6540
        35        2.0000           -0.4156581             -11.3106
        36        2.0000           -0.4038313             -10.9888 (HOMO)
        37                         -0.0367707              -1.0006 (LUMO)
        38                          0.0023016               0.0626
        39                          0.0182552               0.4967
        40                          0.0299190               0.8141
        41                          0.0410582               1.1173
        42                          0.0566417               1.5413
        43                          0.0690078               1.8778
        44                          0.0807183               2.1965
        45                          0.0998962               2.7183
        46                          0.1059800               2.8839
        47                          0.1235720               3.3626
       ...                                ...                  ...
        60                          0.2953352               8.0365
      -------------------------------------------------------------
                  HL-Gap            0.3670605 Eh            9.9882 eV
             Fermi-level           -0.2203010 Eh           -5.9947 eV

     #   Z          covCN         q      C6AA      α(0)
     1   6 C        3.675     0.067    19.672     6.355
     2   6 C        3.748     0.088    19.175     6.245
     3   1 H        0.923     0.045     2.382     2.414
     4   6 C        3.724     0.085    19.270     6.268
     5   1 H        0.924     0.043     2.403     2.424
     6   6 C        3.727     0.101    19.009     6.225
     7   1 H        0.924     0.066     2.129     2.282
     8   6 C        3.725     0.085    19.271     6.268
     9   1 H        0.924     0.065     2.138     2.286
    10   6 C        3.626     0.242    17.222     5.979
    11   1 H        0.922     0.011     2.873     2.651
    12   8 O        1.700    -0.368    20.224     6.072
    13   8 O        1.657    -0.500    22.881     6.457
    14   8 O        1.655    -0.499    22.868     6.455
    15   8 O        1.655    -0.488    22.630     6.422
    16   8 O        1.656    -0.507    23.042     6.480
    17   8 O        1.655    -0.498    22.839     6.451
    18   1 H        0.924     0.048     2.349     2.397
    19   1 H        0.924     0.067     2.119     2.277
    20   1 H        0.804     0.394     0.495     1.105
    21   1 H        0.804     0.359     0.567     1.183
    22   1 H        0.804     0.350     0.587     1.204
    23   1 H        0.805     0.378     0.528     1.141
    24   1 H        0.805     0.363     0.559     1.175

 Mol. C6AA /au·bohr⁶  :       4722.620677
 Mol. C8AA /au·bohr⁸  :     100693.451250
 Mol. α(0) /au        :         98.217424


Wiberg/Mayer (AO) data.
largest (>0.10) Wiberg bond orders for each atom

 ---------------------------------------------------------------------------
     #   Z sym  total        # sym  WBO       # sym  WBO       # sym  WBO
 ---------------------------------------------------------------------------
     1   6 C    3.958 --    17 O    1.010     2 C    0.979    19 H    0.969
                            18 H    0.967
     2   6 C    3.939 --     1 C    0.979     4 C    0.959    12 O    0.958
                             3 H    0.956
     3   1 H    0.998 --     2 C    0.956
     4   6 C    3.956 --    16 O    0.996     6 C    0.962     5 H    0.961
                             2 C    0.959
     5   1 H    0.998 --     4 C    0.961
     6   6 C    3.958 --    15 O    1.007     8 C    0.968     4 C    0.962
                             7 H    0.958
     7   1 H    0.995 --     6 C    0.958
     8   6 C    3.958 --    14 O    1.008     6 C    0.968     9 H    0.957
                            10 C    0.947
     9   1 H    0.996 --     8 C    0.957
    10   6 C    3.926 --    13 O    1.024     8 C    0.947    12 O    0.947
                            11 H    0.946
    11   1 H    1.000 --    10 C    0.946
    12   8 O    2.062 --     2 C    0.958    10 C    0.947
    13   8 O    1.939 --    10 C    1.024    20 H    0.826
    14   8 O    1.929 --     8 C    1.008    21 H    0.837
    15   8 O    1.940 --     6 C    1.007    22 H    0.853
    16   8 O    1.930 --     4 C    0.996    23 H    0.840
    17   8 O    1.926 --     1 C    1.010    24 H    0.855
    18   1 H    0.998 --     1 C    0.967
    19   1 H    0.995 --     1 C    0.969
    20   1 H    0.844 --    13 O    0.826
    21   1 H    0.871 --    14 O    0.837
    22   1 H    0.877 --    15 O    0.853
    23   1 H    0.857 --    16 O    0.840
    24   1 H    0.868 --    17 O    0.855
 ---------------------------------------------------------------------------

Topologies differ in total number of bonds
Writing topology from bond orders to xtbtopo.mol

molecular dipole:
                 x           y           z       tot (Debye)
 q only:       -1.222      -0.314       0.107
   full:       -1.505      -0.473       0.173       4.034
molecular quadrupole (traceless):
                xx          xy          yy          xz          yz          zz
 q only:       -9.119      -8.893       9.863      -1.922       6.838      -0.744
  q+dip:      -11.775     -11.052      12.660      -1.990       5.792      -0.885
   full:      -11.912     -11.238      12.736      -2.170       7.003      -0.824


           -------------------------------------------------
          | TOTAL ENERGY              -43.384467188771 Eh   |
          | GRADIENT NORM               0.000069503379 Eh/α |
          | HOMO-LUMO GAP               9.988225940237 eV   |
           -------------------------------------------------

------------------------------------------------------------------------
 * finished run on 2025/04/06 at 18:00:43.921     
------------------------------------------------------------------------
 total:
 * wall-time:     0 d,  0 h,  0 min,  0.054 sec
 *  cpu-time:     0 d,  0 h,  0 min,  0.029 sec
 * ratio c/w:     0.527 speedup
 SCF:
 * wall-time:     0 d,  0 h,  0 min,  0.022 sec
 *  cpu-time:     0 d,  0 h,  0 min,  0.020 sec
 * ratio c/w:     0.901 speedup

