
                                 *****************
                                 * O   R   C   A *
                                 *****************

                                            #,                                       
                                            ###                                      
                                            ####                                     
                                            #####                                    
                                            ######                                   
                                           ########,                                 
                                     ,,################,,,,,                         
                               ,,#################################,,                 
                          ,,##########################################,,             
                       ,#########################################, ''#####,          
                    ,#############################################,,   '####,        
                  ,##################################################,,,,####,       
                ,###########''''           ''''###############################       
              ,#####''   ,,,,##########,,,,          '''####'''          '####       
            ,##' ,,,,###########################,,,                        '##       
           ' ,,###''''                  '''############,,,                           
         ,,##''                                '''############,,,,        ,,,,,,###''
      ,#''                                            '''#######################'''  
     '                                                          ''''####''''         
             ,#######,   #######,   ,#######,      ##                                
            ,#'     '#,  ##    ##  ,#'     '#,    #''#        ,####,   ,####,        
            ##       ##  ##   ,#'  ##            #'  '#       #'       #'  '#        
            ##       ##  #######   ##           ,######,      #####,   #    #        
            '#,     ,#'  ##    ##  '#,     ,#' ,#      #,     #,   #   #,  ,#        
             '#######'   ##     ##  '#######'  #'      '#     '####' # '####'        



                #########################################################
                #                        -***-                          #
                #          Department of theory and spectroscopy        #
                #                                                       #
                #                      Frank Neese                      #
                #                                                       #
                #     Directorship, Architecture, Infrastructure        #
                #                    SHARK, DRIVERS                     #
                #        Core code/Algorithms in most modules           #
                #                                                       #
                #        Max Planck Institute fuer Kohlenforschung      #
                #                Kaiser Wilhelm Platz 1                 #
                #                 D-45470 Muelheim/Ruhr                 #
                #                      Germany                          #
                #                                                       #
                #                  All rights reserved                  #
                #                        -***-                          #
                #########################################################


                         Program Version 6.0.0  -   RELEASE  -


 With contributions from (in alphabetic order):
   Daniel Aravena         : Magnetic Suceptibility
   Michael Atanasov       : Ab Initio Ligand Field Theory (pilot matlab implementation)
   Alexander A. Auer      : GIAO ZORA, VPT2 properties, NMR spectrum
   Ute Becker             : All parallelization in ORCA, NUMFREQ, NUMCALC
   Giovanni Bistoni       : ED, misc. LED, open-shell LED, HFLD
   Martin Brehm           : Molecular dynamics
   Dmytro Bykov           : pre 5.0 version of the SCF Hessian
   Marcos Casanova-Páez   : Triplet and SCS-CIS(D). UHF-(DLPNO)-IP/EA/STEOM-CCSD. UHF-CVS-IP/STEOM-CCSD
   Vijay G. Chilkuri      : MRCI spin determinant printing, contributions to CSF-ICE
   Pauline Colinet        : FMM embedding
   Dipayan Datta          : RHF DLPNO-CCSD density
   Achintya Kumar Dutta   : EOM-CC, STEOM-CC
   Nicolas Foglia         : Exact transition moments, OPA infrastructure, MCD improvements
   Dmitry Ganyushin       : Spin-Orbit,Spin-Spin,Magnetic field MRCI
   Miquel Garcia          : C-PCM and meta-GGA Hessian, CCSD/C-PCM, Gaussian charge scheme
   Tiago L. C. Gouveia    : GS-ROHF, GS-ROCIS
   Yang Guo               : DLPNO-NEVPT2, F12-NEVPT2, CIM, IAO-localization
   Andreas Hansen         : Spin unrestricted coupled pair/coupled cluster methods
   Ingolf Harden          : AUTO-CI MPn and infrastructure 
   Benjamin Helmich-Paris : MC-RPA, TRAH-(SCF,CASSCF), AVAS, COSX integrals, SCF dyn. polar.
   Lee Huntington         : MR-EOM, pCC
   Robert Izsak           : Overlap fitted RIJCOSX, COSX-SCS-MP3, EOM
   Riya Kayal             : Wick's Theorem for AUTO-CI, AUTO-CI UHF-CCSDT
   Emily Kempfer          : AUTO-CI, RHF CISDT and CCSDT
   Christian Kollmar      : KDIIS, OOCD, Brueckner-CCSD(T), CCSD density, CASPT2, CASPT2-K, improved NEVPT2
   Axel Koslowski         : Symmetry handling
   Simone Kossmann        : Meta GGA functionals, TD-DFT gradient, OOMP2, (MP2 Hessian; deprecated post 5.0)
   Lucas Lang             : DCDCAS
   Marvin Lechner         : AUTO-CI (C++ implementation), FIC-MRCC
   Spencer Leger          : CASSCF response
   Dagmar Lenk            : GEPOL surface, SMD, ORCA-2-JSON
   Dimitrios Liakos       : Extrapolation schemes; Compound Job, initial MDCI parallelization
   Dimitrios Manganas     : Further ROCIS development; embedding schemes. LFT, Crystal Embedding
   Dimitrios Pantazis     : SARC Basis sets
   Anastasios Papadopoulos: AUTO-CI, single reference methods and gradients
   Taras Petrenko         : pre 6.0 DFT Hessian and TD-DFT gradient, (ASA, deprecated), ECA, 1-Electron XAS/XES, NRVS
   Peter Pinski           : DLPNO-MP2, DLPNO-MP2 Gradient
   Christoph Reimann      : Effective Core Potentials
   Marius Retegan         : Local ZFS, SOC
   Christoph Riplinger    : Optimizer, TS searches, QM/MM, DLPNO-CCSD(T), (RO)-DLPNO pert. Triples
   Michael Roemelt        : Original ROCIS implementation
   Masaaki Saitow         : Open-shell DLPNO-CCSD energy and density
   Barbara Sandhoefer     : DKH picture change effects
   Kantharuban Sivalingam : CASSCF convergence/infrastructure, NEVPT2 and variants, FIC-MRCI
   Bernardo de Souza      : ESD, SOC TD-DFT
   Georgi Stoychev        : AutoAux, RI-MP2 NMR, DLPNO-MP2 response, X2C
   Van Anh Tran           : RI-MP2 g-tensors
   Willem Van den Heuvel  : Paramagnetic NMR
   Zikuan Wang            : NOTCH, Electric field optimization 
   Frank Wennmohs         : Technical directorship and infrastructure
   Hang Xu                : AUTO-CI-Response properties 


 We gratefully acknowledge several colleagues who have allowed us to
 interface, adapt or use parts of their codes:
   Stefan Grimme, W. Hujo, H. Kruse, P. Pracht,  : VdW corrections, initial TS optimization,
                  C. Bannwarth, S. Ehlert,         DFT functionals, gCP, sTDA/sTD-DF
                  L. Wittmann, M. Mueller
   Ed Valeev, F. Pavosevic, A. Kumar             : LibInt (2-el integral package), F12 methods
   Garnet Chan, S. Sharma, J. Yang, R. Olivares  : DMRG
   Ulf Ekstrom                                   : XCFun DFT Library
   Mihaly Kallay                                 : mrcc  (arbitrary order and MRCC methods)
   Frank Weinhold                                : gennbo (NPA and NBO analysis)
   Simon Mueller                                 : openCOSMO-RS
   Christopher J. Cramer and Donald G. Truhlar   : smd solvation model
   Lars Goerigk                                  : TD-DFT with DH, B97 family of functionals
   V. Asgeirsson, H. Jonsson                     : NEB implementation
   FAccTs GmbH                                   : IRC, NEB, NEB-TS, DLPNO-Multilevel, CI-OPT
                                                   MM, QMMM, 2- and 3-layer-ONIOM, Crystal-QMMM,
                                                   LR-CPCM, SF, NACMEs, symmetry and pop. for TD-DFT,
                                                   nearIR, NL-DFT gradient (VV10), updates on ESD,
                                                   ML-optimized integration grids, MBIS, APM,
                                                   GOAT, DOCKER, SOLVATOR, interface openCOSMO-RS
   S Lehtola, MJT Oliveira, MAL Marques          : LibXC Library
   Liviu Ungur et al                             : ANISO software


 Your calculation uses the libint2 library for the computation of 2-el integrals
 For citations please refer to: http://libint.valeyev.net

 Your ORCA version has been built with support for libXC version: 6.2.2
 For citations please refer to: https://libxc.gitlab.io

 This ORCA versions uses:
   CBLAS   interface :  Fast vector & matrix operations
   LAPACKE interface :  Fast linear algebra routines
   SCALAPACK package :  Parallel linear algebra routines
   Shared memory     :  Shared parallel matrices
   BLAS/LAPACK       :  OpenBLAS 0.3.27  USE64BITINT DYNAMIC_ARCH NO_AFFINITY SkylakeX SINGLE_THREADED
        Core in use  :  SkylakeX
   Copyright (c) 2011-2014, The OpenBLAS Project


Your calculation utilizes the geometrical counterpoise correction gCP
Please cite in your paper:
H.Kruse, S. Grimme J.Chem.Phys., 136, (2012), 154101 
   

Your calculation utilizes the atom-pairwise dispersion correction
based on EEQ partial charges (D4)


Your calculation utilizes the SMD solvation module
Please cite in your paper:
A.V. Marenich, C.J. Cramer, D.G. Truhlar J. Phys. Chem. B, 113, (2009), 6378 

================================================================================

----- Orbital basis set information -----
Your calculation utilizes the basis: def2-mTZVPP
   Stefan Grimme, Andreas Hansen, Sebastian Ehlert, and Jan-Michael Mewes 
   J. Chem. Phys. 154, 064103 (2021). DOI: 10.1063/5.0040021

----- AuxJ basis set information -----
Your calculation utilizes the auxiliary basis: def2/J
   F. Weigend, Phys. Chem. Chem. Phys. 8, 1057 (2006).

================================================================================
                                        WARNINGS
                       Please study these warnings very carefully!
================================================================================

Using LibXC functional ID 497 : Re-regularized SCAN exchange by Furness et al
[ 1]  J. W. Furness, A. D. Kaplan, J. Ning, J. P. Perdew, and J. Sun.,  J. Phys. Chem. Lett. 11, 8208-8215 (2020)
[ 2]  J. W. Furness, A. D. Kaplan, J. Ning, J. P. Perdew, and J. Sun.,  J. Phys. Chem. Lett. 11, 9248-9248 (2020)
Using LibXC functional ID 498 : Re-regularized SCAN correlation by Furness et al
[ 1]  J. W. Furness, A. D. Kaplan, J. Ning, J. P. Perdew, and J. Sun.,  J. Phys. Chem. Lett. 11, 8208-8215 (2020)
[ 2]  J. W. Furness, A. D. Kaplan, J. Ning, J. P. Perdew, and J. Sun.,  J. Phys. Chem. Lett. 11, 9248-9248 (2020)
Using LibXC functional ID 497 : Re-regularized SCAN exchange by Furness et al
[ 1]  J. W. Furness, A. D. Kaplan, J. Ning, J. P. Perdew, and J. Sun.,  J. Phys. Chem. Lett. 11, 8208-8215 (2020)
[ 2]  J. W. Furness, A. D. Kaplan, J. Ning, J. P. Perdew, and J. Sun.,  J. Phys. Chem. Lett. 11, 9248-9248 (2020)
Using LibXC functional ID 498 : Re-regularized SCAN correlation by Furness et al
[ 1]  J. W. Furness, A. D. Kaplan, J. Ning, J. P. Perdew, and J. Sun.,  J. Phys. Chem. Lett. 11, 8208-8215 (2020)
[ 2]  J. W. Furness, A. D. Kaplan, J. Ning, J. P. Perdew, and J. Sun.,  J. Phys. Chem. Lett. 11, 9248-9248 (2020)

================================================================================
                                       INPUT FILE
================================================================================
NAME = sp_solv.inp
|  1> ! r2scan-3c def2/J RI DEFGRID2 scfconv6 printgap
|  2> %output
|  3>     printlevel normal
|  4> end
|  5> %cpcm
|  6>     smd true
|  7>     smdsolvent "water"
|  8> end
|  9> * xyz 0 1
| 10> C -2.4699942485 -0.4925834268 -0.5682090713
| 11> C -1.7547706483 0.1945349746 0.5904090293
| 12> C -0.4452169998 0.9026858004 0.2246536076
| 13> C 0.8279185707 0.0589381189 0.0055544692
| 14> C 0.7871508582 -0.7250702448 -1.3084221289
| 15> C 2.0085339987 1.038131112 -0.0620351739
| 16> C 1.0615981326 -0.9075769667 1.1687880201
| 17> H -3.4776567521 -0.7715154383 -0.2667577002
| 18> H -2.5423437368 0.1766405092 -1.4224125318
| 19> H -1.9554235672 -1.3951261777 -0.8820369275
| 20> H -2.4267651827 0.9604147956 0.987765099
| 21> H -1.5818337481 -0.5238224131 1.391980864
| 22> H -0.2252633758 1.5989962484 1.0388684334
| 23> H -0.616864993 1.5033605796 -0.6723729393
| 24> H 1.766706964 -1.1509917709 -1.516543906
| 25> H 0.0742248526 -1.5417418446 -1.2607626353
| 26> H 0.5150535404 -0.0749337519 -2.1364143852
| 27> H 2.1067744333 1.5888528619 0.8708161738
| 28> H 1.8652015665 1.753879054 -0.8684634933
| 29> H 2.9386403816 0.5034136984 -0.2407647523
| 30> H 2.0356219577 -1.3816171957 1.0686994787
| 31> H 1.034167804 -0.3778332196 2.1185109288
| 32> H 0.3083893042 -1.6909465324 1.1852418492
| 33> *
| 34> 
| 35>                          ****END OF INPUT****
================================================================================

                       ****************************
                       * Single Point Calculation *
                       ****************************

---------------------------------
CARTESIAN COORDINATES (ANGSTROEM)
---------------------------------
  C     -2.469994   -0.492583   -0.568209
  C     -1.754771    0.194535    0.590409
  C     -0.445217    0.902686    0.224654
  C      0.827919    0.058938    0.005554
  C      0.787151   -0.725070   -1.308422
  C      2.008534    1.038131   -0.062035
  C      1.061598   -0.907577    1.168788
  H     -3.477657   -0.771515   -0.266758
  H     -2.542344    0.176641   -1.422413
  H     -1.955424   -1.395126   -0.882037
  H     -2.426765    0.960415    0.987765
  H     -1.581834   -0.523822    1.391981
  H     -0.225263    1.598996    1.038868
  H     -0.616865    1.503361   -0.672373
  H      1.766707   -1.150992   -1.516544
  H      0.074225   -1.541742   -1.260763
  H      0.515054   -0.074934   -2.136414
  H      2.106774    1.588853    0.870816
  H      1.865202    1.753879   -0.868463
  H      2.938640    0.503414   -0.240765
  H      2.035622   -1.381617    1.068699
  H      1.034168   -0.377833    2.118511
  H      0.308389   -1.690947    1.185242

----------------------------
CARTESIAN COORDINATES (A.U.)
----------------------------
  NO LB      ZA    FRAG     MASS         X           Y           Z
   0 C     6.0000    0    12.011   -4.667613   -0.930848   -1.073760
   1 C     6.0000    0    12.011   -3.316036    0.367618    1.115711
   2 C     6.0000    0    12.011   -0.841338    1.705829    0.424534
   3 C     6.0000    0    12.011    1.564539    0.111377    0.010496
   4 C     6.0000    0    12.011    1.487500   -1.370184   -2.472559
   5 C     6.0000    0    12.011    3.795579    1.961783   -0.117229
   6 C     6.0000    0    12.011    2.006130   -1.715072    2.208689
   7 H     1.0000    0     1.008   -6.571819   -1.457953   -0.504099
   8 H     1.0000    0     1.008   -4.804333    0.333802   -2.687970
   9 H     1.0000    0     1.008   -3.695215   -2.636406   -1.666808
  10 H     1.0000    0     1.008   -4.585922    1.814921    1.866606
  11 H     1.0000    0     1.008   -2.989233   -0.989881    2.630463
  12 H     1.0000    0     1.008   -0.425686    3.021665    1.963177
  13 H     1.0000    0     1.008   -1.165706    2.840940   -1.270601
  14 H     1.0000    0     1.008    3.338592   -2.175059   -2.865853
  15 H     1.0000    0     1.008    0.140265   -2.913470   -2.382496
  16 H     1.0000    0     1.008    0.973310   -0.141604   -4.037238
  17 H     1.0000    0     1.008    3.981227    3.002497    1.645604
  18 H     1.0000    0     1.008    3.524720    3.314351   -1.641158
  19 H     1.0000    0     1.008    5.553226    0.951314   -0.454979
  20 H     1.0000    0     1.008    3.846768   -2.610878    2.019549
  21 H     1.0000    0     1.008    1.954294   -0.714001    4.003405
  22 H     1.0000    0     1.008    0.582771   -3.195426    2.239782

--------------------------------
INTERNAL COORDINATES (ANGSTROEM)
--------------------------------
 C      0   0   0     0.000000000000     0.00000000     0.00000000
 C      1   0   0     1.525146681098     0.00000000     0.00000000
 C      2   1   0     1.533031434408   115.30628326     0.00000000
 C      3   2   1     1.542980480549   119.08557007   282.80412140
 C      4   3   2     1.530642225044   112.33442085    72.78201485
 C      4   3   2     1.535330604926   106.97663984   191.14864188
 C      4   3   2     1.530316909101   111.31069169   309.63386137
 H      1   2   3     1.088145081016   109.83425116   192.41767061
 H      1   2   3     1.087547091809   110.52683164   311.83530996
 H      1   2   3     1.085289973501   111.83838338    72.74836080
 H      2   1   3     1.093636320084   107.66012427   119.00973571
 H      2   1   3     1.090166003001   109.63895029   235.03327597
 H      3   2   1     1.093697224673   106.75427259   162.03832643
 H      3   2   1     1.093128469019   108.38968269    47.06798352
 H      5   4   3     1.088234342827   109.91791067   169.26537132
 H      5   4   3     1.085120923543   111.42529942   288.66738881
 H      5   4   3     1.087329566528   110.73865307    49.66777692
 H      6   4   3     1.087730327659   110.76910970    61.43097974
 H      6   4   3     1.087734313575   110.54702386   301.33616979
 H      6   4   3     1.087641879533   110.56517698   181.38978778
 H      7   4   3     1.087866842354   109.99858992   188.50318489
 H      7   4   3     1.087820970486   110.62278813   308.18898544
 H      7   4   3     1.086858842784   111.15569551    69.02619933

---------------------------
INTERNAL COORDINATES (A.U.)
---------------------------
 C      0   0   0     0.000000000000     0.00000000     0.00000000
 C      1   0   0     2.882109541334     0.00000000     0.00000000
 C      2   1   0     2.897009565724   115.30628326     0.00000000
 C      3   2   1     2.915810538225   119.08557007   282.80412140
 C      4   3   2     2.892494614350   112.33442085    72.78201485
 C      4   3   2     2.901354368338   106.97663984   191.14864188
 C      4   3   2     2.891879856310   111.31069169   309.63386137
 H      1   2   3     2.056296197093   109.83425116   192.41767061
 H      1   2   3     2.055166161262   110.52683164   311.83530996
 H      1   2   3     2.050900825808   111.83838338    72.74836080
 H      2   1   3     2.066673135067   107.66012427   119.00973571
 H      2   1   3     2.060115186183   109.63895029   235.03327597
 H      3   2   1     2.066788228062   106.75427259   162.03832643
 H      3   2   1     2.065713435639   108.38968269    47.06798352
 H      5   4   3     2.056464877471   109.91791067   169.26537132
 H      5   4   3     2.050581367684   111.42529942   288.66738881
 H      5   4   3     2.054755098054   110.73865307    49.66777692
 H      6   4   3     2.055512426836   110.76910970    61.43097974
 H      6   4   3     2.055519959125   110.54702386   301.33616979
 H      6   4   3     2.055345284100   110.56517698   181.38978778
 H      7   4   3     2.055770402222   109.99858992   188.50318489
 H      7   4   3     2.055683716954   110.62278813   308.18898544
 H      7   4   3     2.053865559091   111.15569551    69.02619933

---------------------
BASIS SET INFORMATION
---------------------
There are 2 groups of distinct atoms

 Group   1 Type C   : 11s6p1d contracted to 5s3p1d pattern {62111/411/1}
 Group   2 Type H   : 4s1p contracted to 2s1p pattern {31/1}

Atom   0C    basis set group =>   1
Atom   1C    basis set group =>   1
Atom   2C    basis set group =>   1
Atom   3C    basis set group =>   1
Atom   4C    basis set group =>   1
Atom   5C    basis set group =>   1
Atom   6C    basis set group =>   1
Atom   7H    basis set group =>   2
Atom   8H    basis set group =>   2
Atom   9H    basis set group =>   2
Atom  10H    basis set group =>   2
Atom  11H    basis set group =>   2
Atom  12H    basis set group =>   2
Atom  13H    basis set group =>   2
Atom  14H    basis set group =>   2
Atom  15H    basis set group =>   2
Atom  16H    basis set group =>   2
Atom  17H    basis set group =>   2
Atom  18H    basis set group =>   2
Atom  19H    basis set group =>   2
Atom  20H    basis set group =>   2
Atom  21H    basis set group =>   2
Atom  22H    basis set group =>   2
---------------------------------
AUXILIARY/J BASIS SET INFORMATION
---------------------------------
There are 2 groups of distinct atoms

 Group   1 Type C   : 12s5p4d2f1g contracted to 6s4p3d1f1g pattern {711111/2111/211/2/1}
 Group   2 Type H   : 5s2p1d contracted to 3s1p1d pattern {311/2/1}

Atom   0C    basis set group =>   1
Atom   1C    basis set group =>   1
Atom   2C    basis set group =>   1
Atom   3C    basis set group =>   1
Atom   4C    basis set group =>   1
Atom   5C    basis set group =>   1
Atom   6C    basis set group =>   1
Atom   7H    basis set group =>   2
Atom   8H    basis set group =>   2
Atom   9H    basis set group =>   2
Atom  10H    basis set group =>   2
Atom  11H    basis set group =>   2
Atom  12H    basis set group =>   2
Atom  13H    basis set group =>   2
Atom  14H    basis set group =>   2
Atom  15H    basis set group =>   2
Atom  16H    basis set group =>   2
Atom  17H    basis set group =>   2
Atom  18H    basis set group =>   2
Atom  19H    basis set group =>   2
Atom  20H    basis set group =>   2
Atom  21H    basis set group =>   2
Atom  22H    basis set group =>   2

Checking for AutoStart:
The File: sp_solv.gbw exists
Trying to determine its content:
     ... Fine, the file contains calculation information
     ... Fine, the calculation information was read
     ... Fine, the file contains a basis set
     ... Fine, the basis set was read
     ... Fine, the file contains a geometry
     ... Fine, the geometry was read
     ... Fine, the file contains a set of orbitals
     ... Fine, the orbitals can be read
     => possible old guess file was deleted
     => GBW file was renamed to GES file
     => GES file is set as startup file
     => Guess is set to MORead
     ... now leaving AutoStart

------------------------------------------------------------------------------
                             ORCA STARTUP CALCULATIONS
                           -- RI-GTO INTEGRALS CHOSEN --
------------------------------------------------------------------------------
------------------------------------------------------------------------------
                   ___                                                        
                  /   \      - P O W E R E D   B Y -                         
                 /     \                                                     
                 |  |  |   _    _      __       _____    __    __             
                 |  |  |  | |  | |    /  \     |  _  \  |  |  /  |          
                  \  \/   | |  | |   /    \    | | | |  |  | /  /          
                 / \  \   | |__| |  /  /\  \   | |_| |  |  |/  /          
                |  |  |   |  __  | /  /__\  \  |    /   |      \           
                |  |  |   | |  | | |   __   |  |    \   |  |\   \          
                \     /   | |  | | |  |  |  |  | |\  \  |  | \   \       
                 \___/    |_|  |_| |__|  |__|  |_| \__\ |__|  \__/        
                                                                              
                      - O R C A' S   B I G   F R I E N D -                    
                                      &                                       
                       - I N T E G R A L  F E E D E R -                       
                                                                              
 v1 FN, 2020, v2 2021, v3 2022-2024                                           
------------------------------------------------------------------------------


----------------------
SHARK INTEGRAL PACKAGE
----------------------

Number of atoms                             ...     23
Number of basis functions                   ...    213
Number of shells                            ...    111
Maximum angular momentum                    ...      2
Integral batch strategy                     ... SHARK/LIBINT Hybrid
RI-J (if used) integral strategy            ... SPLIT-RIJ (Revised 2003 algorithm where possible)
Printlevel                                  ...      1
Contraction scheme used                     ... SEGMENTED contraction
Prescreening option                         ... SCHWARTZ
   Thresh                                   ... 1.000e-10
   Tcut                                     ... 1.000e-11
   Tpresel                                  ... 1.000e-11 
Coulomb Range Separation                    ... NOT USED
Exchange Range Separation                   ... NOT USED
Multipole approximations                    ... NOT USED
Finite Nucleus Model                        ... NOT USED
CABS basis                                  ... NOT available
Auxiliary Coulomb fitting basis             ... AVAILABLE
   # of basis functions in Aux-J            ...    519
   # of shells in Aux-J                     ...    185
   Maximum angular momentum in Aux-J        ...      4
Auxiliary J/K fitting basis                 ... NOT available
Auxiliary Correlation fitting basis         ... NOT available
Auxiliary 'external' fitting basis          ... NOT available

Checking pre-screening integrals            ... done (  0.0 sec) Dimension = 111
Check shell pair data                       ... done (  0.0 sec)
Shell pair information
Shell pair cut-off parameter TPreSel        ...   1.0e-11
Total number of shell pairs                 ...      6216
Shell pairs after pre-screening             ...      5755
Total number of primitive shell pairs       ...     21523
Primitive shell pairs kept                  ...     14405
          la=0 lb=0:   2107 shell pairs
          la=1 lb=0:   2287 shell pairs
          la=1 lb=1:    647 shell pairs
          la=2 lb=0:    442 shell pairs
          la=2 lb=1:    245 shell pairs
          la=2 lb=2:     27 shell pairs

Calculating one electron integrals          ... done (  0.0 sec)
Calculating RI/J V-Matrix + Cholesky decomp.... done (  0.1 sec)
Calculating Nuclear repulsion               ... done (  0.0 sec) ENN=    339.889390160316 Eh

Diagonalization of the overlap matrix:
Smallest eigenvalue                        ... 1.500e-04
Time for diagonalization                   ...    0.003 sec
Threshold for overlap eigenvalues          ... 1.000e-07
Number of eigenvalues below threshold      ... 0
Time for construction of square roots      ...    0.018 sec
Total time needed                          ...    0.031 sec

-------------------
DFT GRID GENERATION
-------------------

General Integration Accuracy     IntAcc      ... 4.388
Radial Grid Type                 RadialGrid  ... OptM3 with GC (2021)
Angular Grid (max. ang.)         AngularGrid ... 4 (Lebedev-302)
Angular grid pruning method      GridPruning ... 4 (adaptive)
Weight generation scheme         WeightScheme... mBecke (2022)
Basis function cutoff            BFCut       ... 1.0000e-10
Integration weight cutoff        WCut        ... 1.0000e-14
Partially contracted basis set               ... off
Rotationally invariant grid construction     ... off
Angular grids for H and He will be reduced by one unit

Total number of grid points                  ...    92795
Total number of batches                      ...     1461
Average number of points per batch           ...       63
Average number of grid points per atom       ...     4035
Initializing property integral containers    ... done (  0.0 sec)

SHARK setup successfully completed in   1.1 seconds

Maximum memory used throughout the entire STARTUP-calculation: 39.4 MB
-------------------------------------------------------------------------------
                                 ORCA GUESS
                   Start orbitals & Density for SCF / CASSCF
-------------------------------------------------------------------------------

------------
SCF SETTINGS
------------
Hamiltonian:
 Density Functional     Method          .... DFT(GTOs)
  Functional kind                       .... Exchange
  Functional name                       .... Re-regularized SCAN exchange by Furness et al
  Functional family                     .... MGGA
  Functional refs                              
    [ 0] J. W. Furness, A. D. Kaplan, J. Ning, J. P. Perdew, and J. Sun.,  J. Phys. Chem. Lett. 11, 8208-8215 (2020), doi: 10.1021/acs.jpclett.0c02405
    [ 1] J. W. Furness, A. D. Kaplan, J. Ning, J. P. Perdew, and J. Sun.,  J. Phys. Chem. Lett. 11, 9248-9248 (2020), doi: 10.1021/acs.jpclett.0c03077
  Functional external parameters        .... 6
    Parameter  0 _c1        =  6.670000e-01 : c1 parameter        
    Parameter  1 _c2        =  8.000000e-01 : c2 parameter        
    Parameter  2 _d         =  1.240000e+00 : d parameter         
    Parameter  3 _k1        =  6.500000e-02 : k1 parameter        
    Parameter  4 _eta       =  1.000000e-03 : eta parameter       
    Parameter  5 _dp2       =  3.610000e-01 : dp2 parameter       
  Functional kind                       .... Correlation
  Functional name                       .... Re-regularized SCAN correlation by Furness et al
  Functional family                     .... MGGA
  Functional refs                              
    [ 0] J. W. Furness, A. D. Kaplan, J. Ning, J. P. Perdew, and J. Sun.,  J. Phys. Chem. Lett. 11, 8208-8215 (2020), doi: 10.1021/acs.jpclett.0c02405
    [ 1] J. W. Furness, A. D. Kaplan, J. Ning, J. P. Perdew, and J. Sun.,  J. Phys. Chem. Lett. 11, 9248-9248 (2020), doi: 10.1021/acs.jpclett.0c03077
  Functional external parameters        .... 1
    Parameter  0 _eta       =  1.000000e-03 : Regularization parameter
 Gradients option       PostSCFGGA      .... off
 RI-approximation to the Coulomb term is turned on
   Number of AuxJ basis functions       .... 519


General Settings:
 Integral files         IntName         .... sp_solv
 Hartree-Fock type      HFTyp           .... RHF
 Total Charge           Charge          ....    0
 Multiplicity           Mult            ....    1
 Number of Electrons    NEL             ....   58
 Basis Dimension        Dim             ....  213
 Nuclear Repulsion      ENuc            ....    339.8893901603 Eh

Convergence Acceleration:
 AO-DIIS                CNVDIIS         .... on
   Start iteration      DIISMaxIt       ....    12
   Startup error        DIISStart       ....  0.200000
   # of expansion vecs  DIISMaxEq       ....     5
   Bias factor          DIISBfac        ....   1.050
   Max. coefficient     DIISMaxC        ....  10.000
 MO-DIIS                CNVKDIIS        .... off
 Trust-Rad. Augm. Hess. CNVTRAH         .... auto
   Auto Start mean grad. ratio tolernc. ....  1.125000
   Auto Start start iteration           ....     1
   Auto Start num. interpolation iter.  ....    10
   Max. Number of Micro iterations      ....    24
   Max. Number of Macro iterations      .... Maxiter - #DIIS iter
   Number of Davidson start vectors     ....     2
   Converg. threshold    (grad. norm)   ....   3.330e-04
   Grad. Scal. Fac. for Micro threshold ....   0.100
   Minimum threshold for Micro iter.    ....   1.000e-02
   NR start threshold (gradient norm)   ....   1.000e-04
   Initial trust radius                 ....   0.400
   Minimum AH scaling param. (alpha)    ....   1.000
   Maximum AH scaling param. (alpha)    .... 1000.000
   Quad. conv. algorithm                .... NR
   White noise on init. David. guess    .... on
   Maximum white noise                  ....   0.010
   Pseudo random numbers                .... off
   Inactive MOs                         .... canonical
   Orbital update algorithm             .... Taylor
   Preconditioner                       .... Diag
   Full preconditioner red. dimension   ....   250
   COSX micro iterations for RIJONX calc.... off
 SOSCF                  CNVSOSCF        .... on
   Start iteration      SOSCFMaxIt      ....   150
   Startup grad/error   SOSCFStart      ....  0.003300
   Hessian update       SOSCFHessUp     .... L-BFGS
 Level Shifting         CNVShift        .... on
   Level shift para.    LevelShift      ....    0.2500
   Turn off err/grad.   ShiftErr        ....    0.0010
 Zerner damping         CNVZerner       .... off
 Static damping         CNVDamp         .... on
   Fraction old density DampFac         ....    0.7000
   Max. Damping (<1)    DampMax         ....    0.9800
   Min. Damping (>=0)   DampMin         ....    0.0000
   Turn off err/grad.   DampErr         ....    0.1000

SCF Procedure:
 Maximum # iterations   MaxIter         ....   125
 SCF integral mode      SCFMode         .... Direct
   Integral package                     .... SHARK and LIBINT hybrid scheme
 Reset frequency        DirectResetFreq ....    20
 Integral Threshold     Thresh          ....  1.000e-10 Eh
 Primitive CutOff       TCut            ....  1.000e-11 Eh

Convergence Tolerance:
 Convergence Check Mode ConvCheckMode   .... Total+1el-Energy
 Convergence forced     ConvForced      .... 0
 Energy Change          TolE            ....  1.000e-06 Eh
 1-El. energy change                    ....  1.000e-03 Eh
 Orbital Gradient       TolG            ....  3.330e-04
 Orbital Rotation angle TolX            ....  3.330e-04
 DIIS Error             TolErr          ....  1.000e-06

---------------------
INITIAL GUESS: MOREAD
---------------------
Guess MOs are being read from file: sp_solv.ges
Input Geometry matches current geometry (good)
Atom 0: N(Shells)= 9 and 6 - projection required
Input basis set needs projection
NBasis(read)= 130
NBasis(calc)= 213
Basis set overlap was calculated
Using GuessMode=FMatrix for the initial guess
C*T matrix was formed
Effective Fockian was calculated
Effective Fockian was diagonalized
Initial density was built
                      ------------------
                      INITIAL GUESS DONE (   0.0 sec)
                      ------------------
             **** ENERGY FILE WAS UPDATED (sp_solv.en.tmp) ****
Finished Guess after   0.3 sec
Maximum memory used throughout the entire GUESS-calculation: 14.9 MB

-------------------------------------------------------------------------------------------
                                      ORCA LEAN-SCF
                              memory conserving SCF solver
-------------------------------------------------------------------------------------------

--------------------
CPCM SOLVATION MODEL
--------------------
CPCM parameters:
  Epsilon                                         ...      78.3550
  Refrac                                          ...       1.3328
  Rsolv                                           ...       1.3000
  Surface type                                    ... GAUSSIAN VDW
  Discretization scheme                           ... Constant charge density
    Threshold for H atoms                         ...       5.0000 (charges/Ang^2)
    Threshold for non-H atoms                     ...       5.0000 (charges/Ang^2)
  Epsilon function type                           ...         CPCM
Solvent:                                          ... WATER
SMD-CDS solvent descriptors:
  Soln                                            ...       1.3328
  Soln25                                          ...       1.3323
  Sola                                            ...       0.0000
  Solb                                            ...       0.0000
  Solg                                            ...       0.0000
  Solc                                            ...       0.0000
  Solh                                            ...       0.0000
Radii:
  Scheme                                          ... Element-dependent radii
  Radius for C  used is    3.4960 Bohr (=   1.8500 Ang.)
  Radius for H  used is    2.2677 Bohr (=   1.2000 Ang.)
Calculating surface                               ...        done! (  0.0s)
Cavity surface points                             ...         1671
Cavity Volume                                     ...     912.8125
Cavity Surface-area                               ...     583.1087
Calculating surface distance matrix               ...        done! (  0.0s)
Performing Cholesky decomposition & store         ...        done! (  0.1s)
Overall time for CPCM initialization              ...                 0.1s

----------------------------------------D-I-I-S--------------------------------------------
Iteration    Energy (Eh)           Delta-E    RMSDP     MaxDP     DIISErr   Damp  Time(sec)
-------------------------------------------------------------------------------------------
               ***  Starting incremental Fock matrix formation  ***
    1    -276.1412080783661054     0.00e+00  4.62e-03  2.15e-01  2.87e-01  0.700   3.0
    2    -276.1861216779121264    -4.49e-02  3.64e-03  1.43e-01  2.02e-01  0.700   2.7
                               ***Turning on AO-DIIS***
    3    -276.2179649120150202    -3.18e-02  2.68e-03  9.50e-02  1.41e-01  0.700   2.6
    4    -276.2403411016499035    -2.24e-02  1.92e-03  6.48e-02  9.90e-02  0.700   2.6
    5    -276.2560482433862603    -1.57e-02  4.53e-03  1.49e-01  6.93e-02  0.000   2.5
                              *** Initializing SOSCF ***
---------------------------------------S-O-S-C-F--------------------------------------
Iteration    Energy (Eh)           Delta-E    RMSDP     MaxDP     MaxGrad    Time(sec)
--------------------------------------------------------------------------------------
    6    -276.2928548360569607    -3.68e-02  6.53e-05  1.70e-03  2.07e-04     2.6
               *** Restarting incremental Fock matrix formation ***
    7    -276.2928561634461744    -1.33e-06  2.73e-05  5.07e-04  5.49e-05     2.9
                  *** Gradient check signals convergence ***

               *****************************************************
               *                     SUCCESS                       *
               *           SCF CONVERGED AFTER   7 CYCLES          *
               *****************************************************


SMD CDS free energy correction energy :                 3.85783     Kcal/mol
Total Energy after SMD CDS correction =              -276.286708321 Eh
             **** ENERGY FILE WAS UPDATED (sp_solv.en.tmp) ****

----------------
TOTAL SCF ENERGY
----------------

Total Energy       :       -276.28670832052728 Eh           -7518.14355 eV

Components:
Nuclear Repulsion  :        339.88939016031605 Eh            9248.86051 eV
Electronic Energy  :       -616.17940399931888 Eh          -16767.09401 eV
One Electron Energy:      -1043.94444834790579 Eh          -28407.17263 eV
Two Electron Energy:        427.76504434858691 Eh           11640.07863 eV
CPCM Dielectric    :         -0.00284232444333 Eh              -0.07734 eV
SMD CDS (Gcds)     :          0.00614784291890 Eh               0.16729 eV

Virial components:
Potential Energy   :       -551.25777988384573 Eh          -15000.48680 eV
Kinetic Energy     :        274.97107156331845 Eh            7482.34325 eV
Virial Ratio       :          2.00478463697919

DFT components:
N(Alpha)           :       28.999912644114 electrons
N(Beta)            :       28.999912644114 electrons
N(Total)           :       57.999825288229 electrons
E(X)               :      -42.137462049845 Eh       
E(C)               :       -1.782426703707 Eh       
E(XC)              :      -43.919888753552 Eh       

CPCM Solvation Model Properties:
Surface-charge          :         -0.05205498779655
Corrected charge        :          0.00000000000000
Outlying charge corr.   :          0.00020976779388 Eh               0.00571 eV
Free-energy (cav+disp)  :          0.00614784291890 Eh               0.16729 eV

---------------
SCF CONVERGENCE
---------------

  Last Energy change         ...    1.3274e-06  Tolerance :   1.0000e-06
  Last MAX-Density change    ...    5.0719e-04  Tolerance :   1.0000e-05
  Last RMS-Density change    ...    2.7343e-05  Tolerance :   1.0000e-06
  Last DIIS Error            ...    2.0708e-04  Tolerance :   1.0000e-06
  Last Orbital Gradient      ...    5.4864e-05  Tolerance :   3.3300e-04
  Last Orbital Rotation      ...    1.1293e-04  Tolerance :   3.3300e-04


----------------
ORBITAL ENERGIES
----------------

  NO   OCC          E(Eh)            E(eV) 
   0   2.0000     -10.031375      -272.9676 
   1   2.0000     -10.013879      -272.4915 
   2   2.0000     -10.010228      -272.3921 
   3   2.0000     -10.005073      -272.2519 
   4   2.0000     -10.003704      -272.2146 
   5   2.0000     -10.003376      -272.2057 
   6   2.0000     -10.002477      -272.1812 
   7   2.0000      -0.783663       -21.3245 
   8   2.0000      -0.723698       -19.6928 
   9   2.0000      -0.644338       -17.5333 
  10   2.0000      -0.642097       -17.4724 
  11   2.0000      -0.633195       -17.2301 
  12   2.0000      -0.549423       -14.9506 
  13   2.0000      -0.484157       -13.1746 
  14   2.0000      -0.428154       -11.6507 
  15   2.0000      -0.415660       -11.3107 
  16   2.0000      -0.403113       -10.9692 
  17   2.0000      -0.381431       -10.3793 
  18   2.0000      -0.377359       -10.2685 
  19   2.0000      -0.358876        -9.7655 
  20   2.0000      -0.341809        -9.3011 
  21   2.0000      -0.336997        -9.1702 
  22   2.0000      -0.324247        -8.8232 
  23   2.0000      -0.311733        -8.4827 
  24   2.0000      -0.299149        -8.1403 
  25   2.0000      -0.296749        -8.0750 
  26   2.0000      -0.276252        -7.5172 
  27   2.0000      -0.269263        -7.3270 
  28   2.0000      -0.261108        -7.1051 
  29   0.0000       0.084127         2.2892 
  30   0.0000       0.116146         3.1605 
  31   0.0000       0.120772         3.2864 
  32   0.0000       0.128502         3.4967 
  33   0.0000       0.134460         3.6589 
  34   0.0000       0.139395         3.7931 
  35   0.0000       0.142668         3.8822 
  36   0.0000       0.149213         4.0603 
  37   0.0000       0.155529         4.2322 
  38   0.0000       0.165428         4.5015 
  39   0.0000       0.169853         4.6219 
*Only the first 10 virtual orbitals were printed.

                    ********************************
                    * MULLIKEN POPULATION ANALYSIS *
                    ********************************

-----------------------
MULLIKEN ATOMIC CHARGES
-----------------------
   0 C :   -0.515912
   1 C :   -0.270252
   2 C :   -0.303947
   3 C :    0.212025
   4 C :   -0.573368
   5 C :   -0.534839
   6 C :   -0.568333
   7 H :    0.152577
   8 H :    0.156683
   9 H :    0.152822
  10 H :    0.146169
  11 H :    0.154042
  12 H :    0.153071
  13 H :    0.159949
  14 H :    0.159689
  15 H :    0.162687
  16 H :    0.167902
  17 H :    0.164050
  18 H :    0.162275
  19 H :    0.165202
  20 H :    0.162128
  21 H :    0.166210
  22 H :    0.169169
Sum of atomic charges:   -0.0000000

--------------------------------
MULLIKEN REDUCED ORBITAL CHARGES
--------------------------------
  0 C s       :     3.341268  s :     3.341268
      pz      :     1.001234  p :     3.147503
      px      :     1.075801
      py      :     1.070468
      dz2     :     0.005346  d :     0.027141
      dxz     :     0.004305
      dyz     :     0.007872
      dx2y2   :     0.004953
      dxy     :     0.004665

  1 C s       :     3.230855  s :     3.230855
      pz      :     0.979644  p :     3.002247
      px      :     0.982456
      py      :     1.040146
      dz2     :     0.005691  d :     0.037150
      dxz     :     0.007156
      dyz     :     0.009873
      dx2y2   :     0.005173
      dxy     :     0.009257

  2 C s       :     3.227227  s :     3.227227
      pz      :     1.107217  p :     3.040132
      px      :     0.933127
      py      :     0.999789
      dz2     :     0.005016  d :     0.036588
      dxz     :     0.004950
      dyz     :     0.009958
      dx2y2   :     0.007548
      dxy     :     0.009117

  3 C s       :     2.946895  s :     2.946895
      pz      :     0.922019  p :     2.786360
      px      :     0.950152
      py      :     0.914188
      dz2     :     0.011838  d :     0.054721
      dxz     :     0.007213
      dyz     :     0.013811
      dx2y2   :     0.008133
      dxy     :     0.013725

  4 C s       :     3.367218  s :     3.367218
      pz      :     0.996950  p :     3.179024
      px      :     1.106944
      py      :     1.075131
      dz2     :     0.007043  d :     0.027126
      dxz     :     0.002946
      dyz     :     0.007445
      dx2y2   :     0.002505
      dxy     :     0.007187

  5 C s       :     3.352144  s :     3.352144
      pz      :     1.111391  p :     3.155491
      px      :     1.001905
      py      :     1.042196
      dz2     :     0.004713  d :     0.027203
      dxz     :     0.001944
      dyz     :     0.008478
      dx2y2   :     0.004982
      dxy     :     0.007087

  6 C s       :     3.362197  s :     3.362197
      pz      :     1.015876  p :     3.178990
      px      :     1.113162
      py      :     1.049953
      dz2     :     0.007931  d :     0.027146
      dxz     :     0.001568
      dyz     :     0.006942
      dx2y2   :     0.002745
      dxy     :     0.007960

  7 H s       :     0.829086  s :     0.829086
      pz      :     0.004134  p :     0.018337
      px      :     0.009971
      py      :     0.004232

  8 H s       :     0.825004  s :     0.825004
      pz      :     0.008265  p :     0.018313
      px      :     0.003708
      py      :     0.006340

  9 H s       :     0.828451  s :     0.828451
      pz      :     0.004330  p :     0.018727
      px      :     0.005584
      py      :     0.008812

 10 H s       :     0.835971  s :     0.835971
      pz      :     0.004578  p :     0.017861
      px      :     0.006256
      py      :     0.007027

 11 H s       :     0.827690  s :     0.827690
      pz      :     0.007632  p :     0.018268
      px      :     0.003787
      py      :     0.006849

 12 H s       :     0.829052  s :     0.829052
      pz      :     0.007530  p :     0.017877
      px      :     0.003705
      py      :     0.006641

 13 H s       :     0.822189  s :     0.822189
      pz      :     0.008509  p :     0.017862
      px      :     0.003512
      py      :     0.005841

 14 H s       :     0.822039  s :     0.822039
      pz      :     0.003858  p :     0.018272
      px      :     0.009590
      py      :     0.004823

 15 H s       :     0.818611  s :     0.818611
      pz      :     0.003576  p :     0.018701
      px      :     0.007187
      py      :     0.007939

 16 H s       :     0.813838  s :     0.813838
      pz      :     0.007907  p :     0.018260
      px      :     0.004192
      py      :     0.006162

 17 H s       :     0.817722  s :     0.817722
      pz      :     0.009013  p :     0.018227
      px      :     0.003624
      py      :     0.005589

 18 H s       :     0.819471  s :     0.819471
      pz      :     0.007690  p :     0.018254
      px      :     0.003685
      py      :     0.006879

 19 H s       :     0.816579  s :     0.816579
      pz      :     0.003914  p :     0.018219
      px      :     0.009040
      py      :     0.005265

 20 H s       :     0.819600  s :     0.819600
      pz      :     0.003639  p :     0.018272
      px      :     0.009553
      py      :     0.005080

 21 H s       :     0.815600  s :     0.815600
      pz      :     0.009258  p :     0.018190
      px      :     0.003678
      py      :     0.005254

 22 H s       :     0.812386  s :     0.812386
      pz      :     0.003564  p :     0.018445
      px      :     0.007364
      py      :     0.007517


------------------------
MULLIKEN OVERLAP CHARGES
------------------------
B(  0-C ,  1-C ) :   0.4280 B(  0-C ,  2-C ) :  -0.2024 B(  0-C ,  7-H ) :   0.7948 
B(  0-C ,  8-H ) :   0.8633 B(  0-C ,  9-H ) :   0.8464 B(  0-C , 10-H ) :  -0.0592 
B(  0-C , 11-H ) :  -0.0699 B(  1-C ,  2-C ) :   0.3991 B(  1-C ,  3-C ) :  -0.1174 
B(  1-C ,  7-H ) :  -0.0728 B(  1-C ,  8-H ) :  -0.1130 B(  1-C ,  9-H ) :  -0.0800 
B(  1-C , 10-H ) :   0.8381 B(  1-C , 11-H ) :   0.8797 B(  1-C , 12-H ) :  -0.0631 
B(  1-C , 13-H ) :  -0.0707 B(  2-C ,  3-C ) :   0.3133 B(  2-C ,  4-C ) :  -0.2354 
B(  2-C ,  5-C ) :  -0.3101 B(  2-C ,  6-C ) :  -0.2162 B(  2-C , 10-H ) :  -0.1044 
B(  2-C , 11-H ) :  -0.0957 B(  2-C , 12-H ) :   0.8185 B(  2-C , 13-H ) :   0.8537 
B(  3-C ,  4-C ) :   0.4865 B(  3-C ,  5-C ) :   0.6215 B(  3-C ,  6-C ) :   0.5000 
B(  3-C , 12-H ) :  -0.0812 B(  3-C , 13-H ) :  -0.0941 B(  3-C , 14-H ) :  -0.0784 
B(  3-C , 15-H ) :  -0.0656 B(  3-C , 16-H ) :  -0.0889 B(  3-C , 17-H ) :  -0.0819 
B(  3-C , 18-H ) :  -0.0788 B(  3-C , 19-H ) :  -0.0895 B(  3-C , 20-H ) :  -0.0849 
B(  3-C , 21-H ) :  -0.0876 B(  3-C , 22-H ) :  -0.0539 B(  4-C ,  5-C ) :  -0.2845 
B(  4-C ,  6-C ) :  -0.3465 B(  4-C , 14-H ) :   0.8006 B(  4-C , 15-H ) :   0.8032 
B(  4-C , 16-H ) :   0.8091 B(  5-C ,  6-C ) :  -0.2906 B(  5-C , 17-H ) :   0.8200 
B(  5-C , 18-H ) :   0.8155 B(  5-C , 19-H ) :   0.8319 B(  6-C , 20-H ) :   0.8088 
B(  6-C , 21-H ) :   0.7986 B(  6-C , 22-H ) :   0.8111 B(  8-H ,  9-H ) :  -0.0512 



                     *******************************
                     * LOEWDIN POPULATION ANALYSIS *
                     *******************************

----------------------
LOEWDIN ATOMIC CHARGES
----------------------
   0 C :   -0.434402
   1 C :   -0.314726
   2 C :   -0.302375
   3 C :   -0.206652
   4 C :   -0.415598
   5 C :   -0.419776
   6 C :   -0.417496
   7 H :    0.151163
   8 H :    0.152245
   9 H :    0.150020
  10 H :    0.154156
  11 H :    0.156031
  12 H :    0.163015
  13 H :    0.161725
  14 H :    0.157670
  15 H :    0.156769
  16 H :    0.158999
  17 H :    0.157455
  18 H :    0.158787
  19 H :    0.156579
  20 H :    0.159279
  21 H :    0.159810
  22 H :    0.157324

-------------------------------
LOEWDIN REDUCED ORBITAL CHARGES
-------------------------------
  0 C s       :     2.973998  s :     2.973998
      pz      :     1.115042  p :     3.397085
      px      :     1.136755
      py      :     1.145287
      dz2     :     0.011918  d :     0.063320
      dxz     :     0.009732
      dyz     :     0.018844
      dx2y2   :     0.011625
      dxy     :     0.011200

  1 C s       :     2.934048  s :     2.934048
      pz      :     1.102552  p :     3.300899
      px      :     1.075504
      py      :     1.122843
      dz2     :     0.011416  d :     0.079779
      dxz     :     0.015065
      dyz     :     0.022396
      dx2y2   :     0.010063
      dxy     :     0.020839

  2 C s       :     2.932680  s :     2.932680
      pz      :     1.138386  p :     3.290366
      px      :     1.054263
      py      :     1.097716
      dz2     :     0.011802  d :     0.079330
      dxz     :     0.009685
      dyz     :     0.022696
      dx2y2   :     0.015281
      dxy     :     0.019866

  3 C s       :     2.883000  s :     2.883000
      pz      :     1.074361  p :     3.215639
      px      :     1.064548
      py      :     1.076730
      dz2     :     0.023746  d :     0.108013
      dxz     :     0.011999
      dyz     :     0.028769
      dx2y2   :     0.014500
      dxy     :     0.029000

  4 C s       :     2.966015  s :     2.966015
      pz      :     1.093501  p :     3.385785
      px      :     1.155782
      py      :     1.136502
      dz2     :     0.016155  d :     0.063798
      dxz     :     0.006199
      dyz     :     0.017761
      dx2y2   :     0.006079
      dxy     :     0.017604

  5 C s       :     2.970947  s :     2.970947
      pz      :     1.157282  p :     3.385065
      px      :     1.103213
      py      :     1.124569
      dz2     :     0.011765  d :     0.063764
      dxz     :     0.003875
      dyz     :     0.020365
      dx2y2   :     0.010643
      dxy     :     0.017116

  6 C s       :     2.965625  s :     2.965625
      pz      :     1.108868  p :     3.388201
      px      :     1.155496
      py      :     1.123837
      dz2     :     0.018383  d :     0.063671
      dxz     :     0.002982
      dyz     :     0.016739
      dx2y2   :     0.006431
      dxy     :     0.019136

  7 H s       :     0.805147  s :     0.805147
      pz      :     0.009596  p :     0.043690
      px      :     0.024532
      py      :     0.009562

  8 H s       :     0.804051  s :     0.804051
      pz      :     0.020130  p :     0.043704
      px      :     0.008145
      py      :     0.015429

  9 H s       :     0.805092  s :     0.805092
      pz      :     0.009957  p :     0.044888
      px      :     0.013208
      py      :     0.021723

 10 H s       :     0.802657  s :     0.802657
      pz      :     0.010675  p :     0.043188
      px      :     0.015187
      py      :     0.017326

 11 H s       :     0.799860  s :     0.799860
      pz      :     0.018511  p :     0.044109
      px      :     0.008795
      py      :     0.016802

 12 H s       :     0.793365  s :     0.793365
      pz      :     0.018587  p :     0.043620
      px      :     0.008862
      py      :     0.016171

 13 H s       :     0.794549  s :     0.794549
      pz      :     0.021038  p :     0.043726
      px      :     0.008532
      py      :     0.014156

 14 H s       :     0.798213  s :     0.798213
      pz      :     0.009021  p :     0.044117
      px      :     0.023859
      py      :     0.011237

 15 H s       :     0.798103  s :     0.798103
      pz      :     0.008335  p :     0.045129
      px      :     0.017278
      py      :     0.019515

 16 H s       :     0.796910  s :     0.796910
      pz      :     0.019621  p :     0.044092
      px      :     0.009472
      py      :     0.014999

 17 H s       :     0.798436  s :     0.798436
      pz      :     0.022392  p :     0.044109
      px      :     0.008308
      py      :     0.013408

 18 H s       :     0.797105  s :     0.797105
      pz      :     0.018796  p :     0.044108
      px      :     0.008508
      py      :     0.016804

 19 H s       :     0.799324  s :     0.799324
      pz      :     0.008746  p :     0.044097
      px      :     0.022670
      py      :     0.012680

 20 H s       :     0.796571  s :     0.796571
      pz      :     0.008420  p :     0.044149
      px      :     0.023748
      py      :     0.011981

 21 H s       :     0.796207  s :     0.796207
      pz      :     0.023149  p :     0.043982
      px      :     0.008138
      py      :     0.012695

 22 H s       :     0.798155  s :     0.798155
      pz      :     0.008189  p :     0.044522
      px      :     0.017870
      py      :     0.018463


---------------------------------
LOEWDIN BOND ORDERS (THRESH 0.050000)
---------------------------------
B(  0-C ,  1-C ) :   1.1422 B(  0-C ,  2-C ) :   0.0638 B(  0-C ,  7-H ) :   0.9296 
B(  0-C ,  8-H ) :   0.9290 B(  0-C ,  9-H ) :   0.9266 B(  1-C ,  2-C ) :   1.1042 
B(  1-C ,  3-C ) :   0.0551 B(  1-C , 10-H ) :   0.8919 B(  1-C , 11-H ) :   0.8901 
B(  2-C ,  3-C ) :   1.0438 B(  2-C ,  4-C ) :   0.0632 B(  2-C ,  5-C ) :   0.0827 
B(  2-C ,  6-C ) :   0.0617 B(  2-C , 12-H ) :   0.8759 B(  2-C , 13-H ) :   0.8803 
B(  3-C ,  4-C ) :   1.0809 B(  3-C ,  5-C ) :   1.0768 B(  3-C ,  6-C ) :   1.0804 
B(  4-C ,  5-C ) :   0.0738 B(  4-C ,  6-C ) :   0.0717 B(  4-C , 14-H ) :   0.9156 
B(  4-C , 15-H ) :   0.9140 B(  4-C , 16-H ) :   0.9179 B(  5-C ,  6-C ) :   0.0724 
B(  5-C , 17-H ) :   0.9185 B(  5-C , 18-H ) :   0.9170 B(  5-C , 19-H ) :   0.9183 
B(  6-C , 20-H ) :   0.9161 B(  6-C , 21-H ) :   0.9170 B(  6-C , 22-H ) :   0.9168 


------------------------------------------
LOEWDIN REDUCED ORBITAL POPULATIONS PER MO
-------------------------------------------
THRESHOLD FOR PRINTING IS 0.1%%
                      0         1         2         3         4         5   
                 -10.03137 -10.01388 -10.01023 -10.00507 -10.00370 -10.00338
                   2.00000   2.00000   2.00000   2.00000   2.00000   2.00000
                  --------  --------  --------  --------  --------  --------
 0 C  s               0.0       0.0       0.0      99.7       0.0       0.0
 1 C  s               0.0      99.7       0.0       0.0       0.0       0.0
 2 C  s               0.0       0.0      99.7       0.0       0.0       0.0
 3 C  s              99.6       0.0       0.0       0.0       0.0       0.0
 5 C  s               0.0       0.0       0.0       0.0       0.0      99.7
 6 C  s               0.0       0.0       0.0       0.0      99.7       0.0

                      6         7         8         9        10        11   
                 -10.00248  -0.78366  -0.72370  -0.64434  -0.64210  -0.63319
                   2.00000   2.00000   2.00000   2.00000   2.00000   2.00000
                  --------  --------  --------  --------  --------  --------
 0 C  s               0.0       1.8      18.8       5.8       0.0      13.6
 0 C  pz              0.0       0.3       1.4       0.1       0.0       0.1
 0 C  px              0.0       0.3       0.5       0.0       0.0       0.4
 0 C  py              0.0       0.2       0.6       0.1       0.0       0.2
 1 C  s               0.0       5.6      24.2       0.1       0.0       0.0
 1 C  pz              0.0       0.3       1.1       0.6       0.1       0.9
 1 C  px              0.0       1.1       0.2       2.1       0.0       5.2
 1 C  py              0.0       0.1       0.1       1.6       0.1       2.8
 2 C  s               0.0      13.0       4.8       7.4       0.3      11.3
 2 C  pz              0.0       0.0       0.2       0.4       0.6       0.0
 2 C  px              0.0       0.9       6.7       0.1       0.0       0.1
 2 C  py              0.0       1.4       0.1       0.9       0.4       0.1
 2 C  dxy             0.0       0.0       0.1       0.0       0.0       0.0
 3 C  s               0.0      24.8       3.5       0.0       0.0       0.1
 3 C  pz              0.1       0.0       0.1       4.6      10.7       0.7
 3 C  px              0.0       0.0       3.0       0.0       0.2       9.2
 3 C  py              0.0       0.0       0.4       9.8       5.4       0.2
 3 C  dz2             0.0       0.0       0.0       0.2       0.0       0.0
 3 C  dyz             0.0       0.0       0.0       0.1       0.2       0.1
 3 C  dxy             0.0       0.0       0.0       0.0       0.1       0.2
 4 C  s              99.7       8.2       2.6      23.6       5.2       3.2
 4 C  pz              0.0       2.3       0.3       0.2       0.7       0.1
 4 C  px              0.0       0.0       0.3       0.0       0.0       0.3
 4 C  py              0.0       0.8       0.1       0.6       0.3       0.0
 5 C  s               0.0       8.5       3.7       6.8       7.8      16.0
 5 C  pz              0.0       0.0       0.0       0.3       0.7       0.0
 5 C  px              0.0       2.0       0.1       0.0       0.0       0.9
 5 C  py              0.0       1.2       0.4       0.6       0.3       0.0
 6 C  s               0.0       8.4       2.5       0.2      31.2       1.0
 6 C  pz              0.0       1.8       0.3       0.3       0.7       0.1
 6 C  px              0.0       0.1       0.1       0.0       0.0       0.6
 6 C  py              0.0       1.3       0.1       0.6       0.3       0.0
 7 H  s               0.0       0.2       3.0       1.4       0.0       3.7
 7 H  px              0.0       0.0       0.2       0.1       0.0       0.3
 8 H  s               0.0       0.2       2.9       1.3       0.0       3.1
 8 H  pz              0.0       0.0       0.2       0.1       0.0       0.2
 8 H  py              0.0       0.0       0.1       0.0       0.0       0.1
 9 H  s               0.0       0.2       2.8       1.7       0.0       3.2
 9 H  py              0.0       0.0       0.2       0.1       0.0       0.2
10 H  s               0.0       0.7       3.9       0.0       0.0       0.0
10 H  px              0.0       0.0       0.1       0.0       0.0       0.0
10 H  py              0.0       0.0       0.2       0.0       0.0       0.0
11 H  s               0.0       0.7       3.5       0.0       0.1       0.0
11 H  pz              0.0       0.0       0.2       0.0       0.0       0.0
11 H  py              0.0       0.0       0.1       0.0       0.0       0.0
12 H  s               0.0       1.6       0.7       2.4       0.1       2.5
12 H  pz              0.0       0.1       0.0       0.1       0.0       0.1
13 H  s               0.0       1.5       0.8       1.5       0.2       2.6
13 H  pz              0.0       0.1       0.1       0.1       0.0       0.2
14 H  s               0.0       1.0       0.5       5.5       1.2       0.5
14 H  px              0.0       0.1       0.0       0.4       0.1       0.0
15 H  s               0.0       1.0       0.3       6.2       0.9       0.8
15 H  px              0.0       0.0       0.0       0.2       0.0       0.0
15 H  py              0.0       0.0       0.0       0.3       0.0       0.0
16 H  s               0.0       0.9       0.4       5.1       1.6       0.9
16 H  pz              0.0       0.0       0.0       0.2       0.1       0.0
16 H  py              0.0       0.0       0.0       0.2       0.1       0.0
17 H  s               0.0       1.0       0.5       2.0       1.5       4.0
17 H  pz              0.0       0.1       0.0       0.1       0.1       0.3
18 H  s               0.0       1.0       0.5       1.6       2.3       3.5
18 H  pz              0.0       0.0       0.0       0.1       0.1       0.2
18 H  py              0.0       0.0       0.0       0.0       0.1       0.1
19 H  s               0.0       1.0       0.6       1.2       1.7       4.3
19 H  px              0.0       0.1       0.0       0.1       0.1       0.3
20 H  s               0.0       1.0       0.5       0.1       7.1       0.4
20 H  px              0.0       0.1       0.0       0.0       0.5       0.0
20 H  py              0.0       0.0       0.0       0.0       0.1       0.0
21 H  s               0.0       1.0       0.3       0.0       7.5       0.3
21 H  pz              0.0       0.1       0.0       0.0       0.5       0.0
21 H  py              0.0       0.0       0.0       0.0       0.2       0.0
22 H  s               0.0       1.0       0.3       0.1       7.6       0.1
22 H  px              0.0       0.0       0.0       0.0       0.3       0.0
22 H  py              0.0       0.0       0.0       0.0       0.3       0.0

                     12        13        14        15        16        17   
                  -0.54942  -0.48416  -0.42815  -0.41566  -0.40311  -0.38143
                   2.00000   2.00000   2.00000   2.00000   2.00000   2.00000
                  --------  --------  --------  --------  --------  --------
 0 C  s               7.3       0.2       0.0       0.2       0.0       0.1
 0 C  pz              6.1       2.3       0.1       0.1       3.6       0.8
 0 C  px              0.9       0.0       1.9       6.8       2.8       1.9
 0 C  py              1.3       0.0       7.8       0.9       0.1      15.6
 1 C  s              14.0       1.4       0.0       0.1       0.1       0.3
 1 C  pz              6.5       1.6       1.6       5.4       1.4       5.2
 1 C  px              0.3       0.9       4.2       1.6       5.9       1.1
 1 C  py              0.1       2.6      11.6       0.5       0.7       2.2
 2 C  s               3.0       3.2       0.1       0.0       0.4       0.9
 2 C  pz              1.8       0.1       1.9      14.7       2.3       1.8
 2 C  px              6.7       2.1       2.6       2.5       4.0       0.1
 2 C  py              0.5       7.8       4.9       3.5       0.3       3.5
 2 C  dz2             0.0       0.1       0.0       0.0       0.0       0.1
 2 C  dxy             0.2       0.1       0.0       0.0       0.0       0.0
 3 C  s               2.5      12.6       0.3       0.0       0.0       0.2
 3 C  pz              0.1       0.0       1.5       6.0       2.9       2.3
 3 C  px              2.8       0.1       7.3       1.9       0.3       0.4
 3 C  py              1.4       0.3       0.4       1.3       7.9       0.3
 3 C  dxz             0.0       0.0       0.0       0.0       0.0       0.1
 4 C  s               1.4       1.8       0.1       0.8       0.0       0.1
 4 C  pz              0.7       7.7       1.0       3.6       4.0       1.9
 4 C  px              0.6       0.1       6.3       2.0       0.1       6.6
 4 C  py              0.6       2.0       1.2       2.6      12.0       0.0
 4 C  dz2             0.0       0.1       0.0       0.0       0.0       0.0
 4 C  dyz             0.0       0.2       0.0       0.0       0.0       0.0
 5 C  s               2.3       1.1       0.4       0.3       0.1       0.0
 5 C  pz              0.1       0.0       0.7       6.8       4.0       9.8
 5 C  px              2.5       3.4       0.1       1.5       8.6       0.3
 5 C  py              0.1       4.2       7.0       0.5       1.5       0.6
 5 C  dxy             0.0       0.2       0.0       0.0       0.0       0.0
 6 C  s               0.3       2.6       0.1       0.2       0.6       0.0
 6 C  pz              0.2       6.6       1.2       0.3       9.4       1.7
 6 C  px              0.1       0.6       8.3       0.6       0.1       0.0
 6 C  py              0.5       3.9       0.1       7.7       0.4       8.7
 6 C  dyz             0.0       0.2       0.0       0.0       0.1       0.0
 7 H  s               2.8       0.0       0.1       3.3       1.3       3.1
 7 H  px              0.1       0.0       0.0       0.1       0.0       0.1
 8 H  s               3.9       0.8       1.4       0.0       0.6       2.9
 8 H  pz              0.1       0.0       0.1       0.0       0.0       0.1
 8 H  py              0.2       0.0       0.0       0.0       0.0       0.0
 9 H  s               3.6       0.2       3.0       0.0       1.2       2.6
 9 H  px              0.1       0.0       0.0       0.0       0.0       0.1
 9 H  py              0.2       0.0       0.0       0.0       0.0       0.0
10 H  s               6.7       0.4       3.2       1.0       0.8       0.7
10 H  px              0.2       0.0       0.0       0.0       0.0       0.0
10 H  py              0.3       0.0       0.0       0.0       0.1       0.0
11 H  s               6.7       2.2       3.8       0.1       0.7       2.2
11 H  pz              0.2       0.1       0.1       0.0       0.0       0.0
11 H  py              0.3       0.0       0.0       0.0       0.0       0.0
12 H  s               0.9       3.0       0.0       7.3       0.4       3.5
12 H  pz              0.1       0.1       0.0       0.1       0.0       0.1
12 H  py              0.0       0.0       0.0       0.1       0.0       0.0
13 H  s               1.8       4.4       2.4       1.9       0.3       0.2
13 H  pz              0.1       0.2       0.1       0.0       0.0       0.0
13 H  py              0.0       0.0       0.0       0.1       0.0       0.0
14 H  s               1.1       1.6       0.6       3.2       0.6       1.4
14 H  px              0.1       0.1       0.0       0.1       0.0       0.0
15 H  s               0.4       1.9       3.1       0.3       2.4       1.1
16 H  s               0.4       2.3       0.3       0.3       5.5       1.7
16 H  pz              0.0       0.0       0.0       0.0       0.1       0.0
17 H  s               0.8       1.6       2.5       0.7       1.0       4.0
18 H  s               0.8       1.6       0.9       2.8       2.3       1.1
19 H  s               1.7       1.0       0.1       0.8       3.8       0.9
20 H  s               0.3       2.5       2.8       0.3       0.1       1.0
20 H  px              0.0       0.1       0.1       0.0       0.0       0.0
21 H  s               0.1       2.6       0.4       0.9       3.4       2.8
21 H  py              0.0       0.1       0.0       0.0       0.1       0.0
22 H  s               0.3       2.0       1.1       3.0       0.6       1.8
22 H  px              0.0       0.1       0.0       0.1       0.0       0.0

                     18        19        20        21        22        23   
                  -0.37736  -0.35888  -0.34181  -0.33700  -0.32425  -0.31173
                   2.00000   2.00000   2.00000   2.00000   2.00000   2.00000
                  --------  --------  --------  --------  --------  --------
 0 C  s               0.0       0.1       0.1       0.1       0.0       0.0
 0 C  pz              0.0      11.0       1.8      12.8       0.4       0.5
 0 C  px             12.3       0.5       9.7       0.7       0.4       7.7
 0 C  py              3.4       3.3       1.4       1.4       1.6       3.2
 0 C  dyz             0.0       0.2       0.0       0.0       0.1       0.1
 0 C  dx2y2           0.0       0.0       0.1       0.1       0.0       0.2
 0 C  dxy             0.0       0.0       0.0       0.1       0.0       0.1
 1 C  s               0.2       0.0       0.2       0.0       0.0       0.1
 1 C  pz              0.7       0.4       0.6       7.3       0.1       0.4
 1 C  px              5.3       3.5       0.0       0.3       1.2       5.4
 1 C  py              4.8       2.1       0.2       4.5       1.3       1.5
 1 C  dx2y2           0.0       0.0       0.0       0.0       0.0       0.2
 2 C  s               0.1       0.0       0.4       0.4       0.0       0.8
 2 C  pz              0.2       7.1       0.6       5.3       0.2       1.2
 2 C  px              0.7       0.4       0.1       0.1       0.1       0.1
 2 C  py              0.6       3.0       0.2       0.1       0.5       9.4
 3 C  s               0.1       0.0       0.0       0.1       0.0       0.0
 3 C  pz              0.0       0.0       0.1       0.9       0.0       0.2
 3 C  px              2.9       0.1       1.5       0.5       0.1       4.0
 3 C  py              1.9       0.1       1.1       0.0       0.1       0.1
 3 C  dxz             0.0       0.3       0.0       0.0       0.0       0.0
 3 C  dx2y2           0.2       0.0       0.2       0.0       0.0       0.0
 3 C  dxy             0.0       0.0       0.0       0.0       0.0       0.2
 4 C  pz              4.4       0.7       0.2       0.0       4.3       0.0
 4 C  px              2.6       4.5       8.9      15.2       2.5       0.1
 4 C  py              3.4       2.8       4.6       3.6       8.8       0.4
 4 C  dxy             0.0       0.1       0.0       0.1       0.2       0.0
 5 C  s               0.1       0.0       0.0       0.0       0.0       0.1
 5 C  pz              0.0       9.1       0.5       0.4      15.2       2.8
 5 C  px              0.0       1.2      19.9       1.2       0.0       0.3
 5 C  py              8.1       0.7       8.0       0.0       0.1       5.2
 5 C  dyz             0.0       0.0       0.1       0.0       0.3       0.1
 5 C  dxy             0.0       0.0       0.1       0.0       0.0       0.0
 6 C  pz              3.7       1.9       0.3       0.9       5.7       0.3
 6 C  px              8.7      12.0       0.1       7.0       0.2      16.8
 6 C  py              3.5       1.5       1.1       1.1      11.6       0.3
 6 C  dz2             0.0       0.0       0.0       0.0       0.3       0.0
 6 C  dxy             0.1       0.0       0.0       0.0       0.0       0.5
 7 H  s               3.3       0.2       6.6       1.3       0.0       3.7
 8 H  s               0.5       7.2       1.5       1.9       1.3       0.3
 8 H  py              0.0       0.1       0.0       0.1       0.0       0.0
 9 H  s               3.7       0.4       0.5       3.5       1.2       6.0
 9 H  py              0.1       0.0       0.1       0.0       0.0       0.1
10 H  s               3.8       0.0       0.0       3.0       1.2       4.0
10 H  px              0.0       0.0       0.0       0.1       0.0       0.0
11 H  s               0.9       0.0       0.0       0.2       0.9       0.1
12 H  s               0.2       0.1       0.1       1.0       0.0       0.1
13 H  s               0.1       3.9       0.6       2.5       0.2       2.1
14 H  s               0.7       0.9       5.4      10.1       0.3       0.2
14 H  px              0.0       0.0       0.1       0.1       0.0       0.0
15 H  s               2.5       3.3       0.0       0.9       7.1       0.0
16 H  s               1.9       0.5       2.9       2.2       5.3       0.0
17 H  s               1.1       3.5       0.1       0.2       7.0       0.2
17 H  px              0.0       0.0       0.2       0.0       0.0       0.0
18 H  s               2.1       1.0       4.3       0.4       4.6       3.9
18 H  pz              0.1       0.0       0.1       0.0       0.0       0.0
18 H  py              0.0       0.1       0.0       0.0       0.1       0.0
19 H  s               0.6       1.6      13.1       0.5       0.2       0.2
19 H  pz              0.0       0.1       0.1       0.0       0.1       0.0
19 H  px              0.0       0.0       0.1       0.0       0.0       0.0
20 H  s               1.4       6.1       0.2       4.4       1.0       8.1
21 H  s               2.5       1.6       0.4       1.0       8.6       0.1
21 H  pz              0.1       0.0       0.0       0.0       0.1       0.0
21 H  px              0.1       0.1       0.0       0.0       0.0       0.1
22 H  s               4.7       0.9       0.1       0.6       4.3       7.3
22 H  py              0.1       0.1       0.0       0.1       0.0       0.1

                     24        25        26        27        28        29   
                  -0.29915  -0.29675  -0.27625  -0.26926  -0.26111   0.08413
                   2.00000   2.00000   2.00000   2.00000   2.00000   0.00000
                  --------  --------  --------  --------  --------  --------
 0 C  s               0.0       0.4       0.3       0.1       0.0       6.8
 0 C  pz              0.2      10.8       2.2       0.1       1.1       0.5
 0 C  px              0.5       3.6       0.8       2.2       2.9       0.5
 0 C  py             12.6       0.1       0.4       2.5       0.8       0.6
 0 C  dz2             0.2       0.0       0.0       0.1       0.0       0.2
 0 C  dxz             0.1       0.0       0.0       0.0       0.0       0.1
 0 C  dyz             0.1       0.2       0.0       0.0       0.1       0.0
 0 C  dx2y2           0.0       0.0       0.0       0.0       0.1       0.0
 0 C  dxy             0.0       0.0       0.0       0.0       0.1       0.0
 1 C  s               0.0       0.2       0.1       0.2       0.1       5.1
 1 C  pz              0.4      14.4       4.6       0.2       1.6       1.0
 1 C  px              1.6       1.8       0.1       2.4       9.5       0.3
 1 C  py              9.5       0.4       0.2       7.9       1.4       0.1
 1 C  dz2             0.2       0.0       0.0       0.1       0.0       0.0
 1 C  dxz             0.2       0.1       0.0       0.1       0.1       0.0
 1 C  dyz             0.0       0.4       0.2       0.0       0.1       0.0
 1 C  dxy             0.0       0.1       0.0       0.0       0.4       0.3
 2 C  s               0.0       0.0       0.1       0.6       0.2       5.4
 2 C  pz              0.1       7.5       9.3       0.6       1.0       0.0
 2 C  px              9.0       0.2       0.6       0.5      14.9       0.0
 2 C  py              1.4       0.1       0.5      13.5       2.3       3.4
 2 C  dz2             0.0       0.0       0.0       0.2       0.0       0.1
 2 C  dxz             0.0       0.1       0.0       0.1       0.0       0.1
 2 C  dyz             0.0       0.2       0.7       0.1       0.0       0.0
 2 C  dx2y2           0.0       0.0       0.0       0.5       0.0       0.2
 2 C  dxy             0.0       0.0       0.0       0.0       0.4       0.0
 3 C  s               0.0       0.0       0.0       0.1       0.1       4.1
 3 C  pz              0.2       5.8      16.5       0.5       0.6       0.0
 3 C  px              0.0       0.1       0.8       0.1      17.9       0.3
 3 C  py              6.1       0.1       0.7      15.9       0.3       0.1
 3 C  dz2             0.2       0.0       0.0       0.5       0.0       0.0
 3 C  dyz             0.0       0.1       0.9       0.0       0.0       0.0
 3 C  dx2y2           0.0       0.0       0.0       0.2       0.0       0.1
 3 C  dxy             0.0       0.0       0.0       0.1       0.7       0.1
 4 C  s               0.1       0.1       0.7       0.4       0.1       9.5
 4 C  pz              0.6       7.1      11.3       3.4       0.3       1.1
 4 C  px              2.9       0.9       0.0       0.0       3.8       0.1
 4 C  py              5.3       0.7       1.1       5.7       0.0       0.6
 4 C  dz2             0.1       0.0       0.0       0.2       0.0       0.2
 4 C  dxz             0.0       0.0       0.0       0.0       0.1       0.0
 4 C  dyz             0.0       0.2       0.2       0.0       0.0       0.2
 4 C  dxy             0.1       0.0       0.0       0.0       0.3       0.0
 5 C  s               0.1       0.0       0.0       0.9       0.6       5.1
 5 C  pz              1.3       4.0       2.2       0.0       0.0       0.0
 5 C  px              0.2       0.0       0.1       4.1       8.5       1.6
 5 C  py              9.8       0.0       0.2       6.0       1.4       2.0
 5 C  dz2             0.2       0.0       0.0       0.1       0.0       0.3
 5 C  dyz             0.0       0.1       0.3       0.0       0.0       0.0
 5 C  dx2y2           0.2       0.0       0.0       0.1       0.1       0.0
 5 C  dxy             0.0       0.0       0.0       0.0       0.1       0.3
 6 C  s               0.2       0.3       0.8       0.1       0.0       9.3
 6 C  pz              0.1       6.4      12.6       0.7       0.1       0.7
 6 C  px              0.1       0.4       0.4       0.0       1.5       0.1
 6 C  py              2.8       0.1       4.8       5.7       0.1       0.5
 6 C  dz2             0.1       0.0       0.0       0.3       0.0       0.1
 6 C  dyz             0.0       0.1       0.2       0.0       0.0       0.3
 6 C  dxy             0.0       0.0       0.0       0.0       0.2       0.0
 7 H  s               1.8       0.2       0.0       1.8       2.5       1.6
 7 H  pz              0.0       0.1       0.0       0.0       0.0       0.2
 7 H  px              0.0       0.0       0.0       0.0       0.0       0.4
 8 H  s               4.6       4.2       0.5       1.0       0.0       0.6
 8 H  py              0.0       0.1       0.0       0.0       0.0       0.3
 9 H  s               3.3       0.1       0.0       0.3       2.8       1.3
 9 H  pz              0.0       0.1       0.0       0.0       0.0       0.0
 9 H  px              0.1       0.0       0.0       0.0       0.0       0.5
 9 H  py              0.0       0.0       0.0       0.0       0.0       0.3
10 H  s               1.2       0.0       0.0       1.2       8.3       1.5
10 H  pz              0.0       0.1       0.0       0.0       0.0       0.0
10 H  px              0.1       0.0       0.0       0.1       0.0       0.3
10 H  py              0.0       0.0       0.0       0.0       0.1       0.3
11 H  s               3.8       8.4       3.0       2.2       0.5       0.6
11 H  pz              0.0       0.0       0.0       0.0       0.0       0.1
11 H  px              0.0       0.0       0.0       0.1       0.1       0.2
11 H  py              0.0       0.1       0.0       0.0       0.0       0.2
[...]
 4 C  s               0.7       0.3      10.9      15.2       5.6       4.3
 4 C  pz              1.9       0.4       0.0       0.0       0.0       0.0
 4 C  px              0.1       0.5       0.0       0.0       0.0       0.0
 4 C  py              0.3       0.2       0.0       0.0       0.0       0.0
 4 C  dz2             0.6       0.4       0.0       0.0       0.0       0.0
 4 C  dyz             1.7       0.1       0.0       0.0       0.0       0.0
 4 C  dx2y2           0.4       0.2       0.0       0.0       0.0       0.0
 4 C  dxy             0.6       0.1       0.0       0.0       0.0       0.0
 5 C  s               0.5       0.1       6.0      33.4       0.0      30.4
 5 C  pz              0.3       0.0       0.0       0.0       0.0       0.0
 5 C  px              1.0       0.1       0.0       0.0       0.0       0.0
 5 C  py              0.3       0.0       0.0       0.0       0.0       0.0
 5 C  dz2             0.7       0.0       0.0       0.0       0.0       0.0
 5 C  dxz             0.1       0.0       0.0       0.0       0.0       0.0
 5 C  dyz             1.5       0.0       0.0       0.0       0.0       0.0
 5 C  dx2y2           0.2       0.0       0.0       0.0       0.0       0.0
 5 C  dxy             0.3       0.1       0.0       0.0       0.0       0.0
 6 C  s               0.0       0.0      16.5       7.4      13.7      13.8
 6 C  pz              0.1       0.0       0.0       0.0       0.0       0.0
 6 C  px              0.8       0.0       0.0       0.0       0.0       0.0
 6 C  py              0.8       0.1       0.0       0.0       0.0       0.0
 6 C  dz2             0.8       0.0       0.0       0.0       0.0       0.0
 6 C  dyz             0.2       0.0       0.0       0.0       0.0       0.0
 6 C  dxy             2.5       0.0       0.0       0.0       0.0       0.0
 7 H  py              0.0       0.1       0.0       0.0       0.0       0.0
 8 H  s               0.2       0.3       0.0       0.0       0.0       0.0
 8 H  pz              0.2       0.7       0.0       0.0       0.0       0.0
 8 H  py              0.1       0.2       0.0       0.0       0.0       0.0
 9 H  s               0.3       0.2       0.0       0.0       0.0       0.0
 9 H  pz              0.1       0.0       0.0       0.0       0.0       0.0
 9 H  px              0.3       0.0       0.0       0.0       0.0       0.0
 9 H  py              0.4       0.6       0.0       0.0       0.0       0.0
10 H  s               0.6       4.5       0.0       0.0       0.0       0.0
10 H  pz              0.1       1.3       0.0       0.0       0.0       0.0
10 H  px              0.1       3.6       0.0       0.0       0.0       0.0
10 H  py              2.2       4.4       0.0       0.0       0.0       0.0
11 H  s               0.8       4.4       0.0       0.0       0.0       0.0
11 H  pz              1.0       7.8       0.0       0.0       0.0       0.0
11 H  px              0.7       0.0       0.0       0.0       0.0       0.0
11 H  py              1.5       2.8       0.0       0.0       0.0       0.0
12 H  s               0.3       3.5       0.0       0.0       0.0       0.0
12 H  pz              1.8       4.0       0.0       0.0       0.0       0.0
12 H  px              0.0       0.5       0.0       0.0       0.0       0.0
12 H  py              0.1       3.0       0.0       0.0       0.0       0.0
13 H  s               3.0       2.7       0.0       0.0       0.0       0.0
13 H  pz              6.5       3.0       0.0       0.0       0.0       0.0
13 H  px              0.6       0.1       0.0       0.0       0.0       0.0
13 H  py              1.7       3.3       0.0       0.0       0.0       0.0
14 H  s               0.4       0.4       0.0       0.0       0.0       0.0
14 H  px              1.0       0.7       0.0       0.0       0.0       0.0
14 H  py              0.1       0.1       0.0       0.0       0.0       0.0
16 H  s               0.2       0.0       0.0       0.0       0.0       0.0
16 H  pz              0.1       0.1       0.0       0.0       0.0       0.0
16 H  py              0.5       0.0       0.0       0.0       0.0       0.0
17 H  s               0.6       0.0       0.0       0.0       0.0       0.0
17 H  pz              1.3       0.0       0.0       0.0       0.0       0.0
17 H  py              0.3       0.0       0.0       0.0       0.0       0.0
18 H  s               0.1       0.0       0.0       0.0       0.0       0.0
18 H  py              0.1       0.0       0.0       0.0       0.0       0.0
20 H  s               0.2       0.0       0.0       0.0       0.0       0.0
20 H  px              0.2       0.0       0.0       0.0       0.0       0.0
20 H  py              0.2       0.0       0.0       0.0       0.0       0.0
21 H  s               0.4       0.0       0.0       0.0       0.0       0.0
21 H  pz              1.0       0.0       0.0       0.0       0.0       0.0
21 H  py              0.1       0.0       0.0       0.0       0.0       0.0
22 H  s               1.4       0.0       0.0       0.0       0.0       0.0
22 H  px              1.7       0.1       0.0       0.0       0.0       0.0
22 H  py              1.6       0.0       0.0       0.0       0.0       0.0

                    210       211       212   
                  22.09526  22.12178  22.20979
                   0.00000   0.00000   0.00000
                  --------  --------  --------
 0 C  s               1.1       0.0       0.5
 1 C  s               7.2      11.8       3.5
 2 C  s              41.1       4.1       4.3
 3 C  s               6.0       2.8      74.9
 4 C  s               2.3      61.1       0.4
 5 C  s              19.8       3.2       6.8
 6 C  s              22.2      16.7       9.2


                      *****************************
                      * MAYER POPULATION ANALYSIS *
                      *****************************

  NA   - Mulliken gross atomic population
  ZA   - Total nuclear charge
  QA   - Mulliken gross atomic charge
  VA   - Mayer's total valence
  BVA  - Mayer's bonded valence
  FA   - Mayer's free valence

  ATOM       NA         ZA         QA         VA         BVA        FA
  0 C      6.5159     6.0000    -0.5159     3.7699     3.7699    -0.0000
  1 C      6.2703     6.0000    -0.2703     3.6691     3.6691    -0.0000
  2 C      6.3039     6.0000    -0.3039     3.4936     3.4936    -0.0000
  3 C      5.7880     6.0000     0.2120     3.4170     3.4170    -0.0000
  4 C      6.5734     6.0000    -0.5734     3.6468     3.6468    -0.0000
  5 C      6.5348     6.0000    -0.5348     3.6471     3.6471    -0.0000
  6 C      6.5683     6.0000    -0.5683     3.6701     3.6701    -0.0000
  7 H      0.8474     1.0000     0.1526     0.9597     0.9597    -0.0000
  8 H      0.8433     1.0000     0.1567     0.9607     0.9607     0.0000
  9 H      0.8472     1.0000     0.1528     0.9617     0.9617     0.0000
 10 H      0.8538     1.0000     0.1462     0.9579     0.9579    -0.0000
 11 H      0.8460     1.0000     0.1540     0.9610     0.9610    -0.0000
 12 H      0.8469     1.0000     0.1531     0.9617     0.9617    -0.0000
 13 H      0.8401     1.0000     0.1599     0.9632     0.9632    -0.0000
 14 H      0.8403     1.0000     0.1597     0.9620     0.9620     0.0000
 15 H      0.8373     1.0000     0.1627     0.9603     0.9603    -0.0000
 16 H      0.8321     1.0000     0.1679     0.9584     0.9584    -0.0000
 17 H      0.8359     1.0000     0.1641     0.9605     0.9605    -0.0000
 18 H      0.8377     1.0000     0.1623     0.9614     0.9614    -0.0000
 19 H      0.8348     1.0000     0.1652     0.9602     0.9602     0.0000
 20 H      0.8379     1.0000     0.1621     0.9614     0.9614     0.0000
 21 H      0.8338     1.0000     0.1662     0.9585     0.9585     0.0000
 22 H      0.8308     1.0000     0.1692     0.9563     0.9563    -0.0000

  Mayer bond orders larger than 0.100000
B(  0-C ,  1-C ) :   0.8813 B(  0-C ,  7-H ) :   0.9696 B(  0-C ,  8-H ) :   0.9832 
B(  0-C ,  9-H ) :   0.9759 B(  1-C ,  2-C ) :   0.9078 B(  1-C , 10-H ) :   0.9696 
B(  1-C , 11-H ) :   0.9807 B(  2-C ,  3-C ) :   0.8764 B(  2-C , 12-H ) :   0.9723 
B(  2-C , 13-H ) :   0.9837 B(  3-C ,  4-C ) :   0.9082 B(  3-C ,  5-C ) :   0.9119 
B(  3-C ,  6-C ) :   0.9047 B(  4-C , 14-H ) :   0.9728 B(  4-C , 15-H ) :   0.9713 
B(  4-C , 16-H ) :   0.9740 B(  5-C , 17-H ) :   0.9763 B(  5-C , 18-H ) :   0.9758 
B(  5-C , 19-H ) :   0.9779 B(  6-C , 20-H ) :   0.9720 B(  6-C , 21-H ) :   0.9727 
B(  6-C , 22-H ) :   0.9729 

-------
TIMINGS
-------

Total SCF time: 0 days 0 hours 0 min 19 sec 

Total time                  ....      19.484 sec
Sum of individual times     ....      19.143 sec  ( 98.3%)

SCF preparation             ....       0.302 sec  (  1.5%)
Fock matrix formation       ....      18.171 sec  ( 93.3%)
  Startup                   ....       0.042 sec  (  0.2% of F)
  Split-RI-J                ....       2.668 sec  ( 14.7% of F)
  XC integration            ....      11.343 sec  ( 62.4% of F)
    Basis function eval.    ....       1.980 sec  ( 17.5% of XC)
    Density eval.           ....       3.609 sec  ( 31.8% of XC)
    XC-Functional eval.     ....       1.253 sec  ( 11.0% of XC)
    XC-Potential eval.      ....       3.904 sec  ( 34.4% of XC)
  CPCM terms                ....       3.757 sec  ( 20.7% of F)
Diagonalization             ....       0.000 sec  (  0.0%)
Density matrix formation    ....       0.155 sec  (  0.8%)
Total Energy calculation    ....       0.028 sec  (  0.1%)
Population analysis         ....       0.107 sec  (  0.5%)
Orbital Transformation      ....       0.052 sec  (  0.3%)
Orbital Orthonormalization  ....       0.000 sec  (  0.0%)
DIIS solution               ....       0.284 sec  (  1.5%)
  MO trafo                  ....       0.000 sec  (  0.0 % of DIIS)
  Orb grad                  ....       0.000 sec  (  0.0 % of DIIS)
  Energy W gradient         ....       0.000 sec  (  0.0 % of DIIS)
  DIIS error                ....       0.006 sec  (  2.2 % of DIIS)
  DIIS work                 ....       0.240 sec  ( 84.4 % of DIIS)
  Form Q                    ....       0.000 sec  (  0.0 % of DIIS)
  Form QpQm                 ....       0.000 sec  (  0.0 % of DIIS)
  Exp/Cayley                ....       0.000 sec  (  0.0 % of DIIS)
  Orb update                ....       0.000 sec  (  0.0 % of DIIS)
  Wake-sleep                ....       0.013 sec  (  4.6 % of DIIS)
SOSCF solution              ....       0.044 sec  (  0.2%)
  MO trafo                  ....       0.034 sec  ( 78.5 % of SOSCF)
  Orb grad                  ....       0.001 sec  (  1.2 % of SOSCF)
  Rot update                ....       0.000 sec  (  0.1 % of SOSCF)
  Step                      ....       0.009 sec  ( 20.0 % of SOSCF)
Finished LeanSCF after  19.6 sec

Maximum memory used throughout the entire LEANSCF-calculation: 34.5 MB


-------------------------------------------------------------------------------
                          DFT DISPERSION CORRECTION                            
                                                                               
                                DFTD4 V3.4.0                                   
-------------------------------------------------------------------------------
The R2SCAN3C composite method is recognized
Using three-body term ABC
Active option DFTDOPT                   ...         5   

-------------------------   ----------------
Dispersion correction           -0.006679999
-------------------------   ----------------

------------------   -----------------
gCP correction             0.011414773
------------------   -----------------

-------------------------   --------------------
FINAL SINGLE POINT ENERGY      -276.281973546640
-------------------------   --------------------


------------------------------------------------------------------------------
                              ORCA PROPERTY CALCULATIONS
------------------------------------------------------------------------------

GBWName                                 ... sp_solv.gbw
Number of atoms                         ...     23
Number of basis functions               ...    213
Max core memory                         ...   1024 MB

Electric properties:
Dipole moment                           ... YES
Quadrupole moment                       ...  NO
Static polarizability (Dipole/Dipole)   ...  NO
Static polarizability (Dipole/Quad.)    ...  NO
Static polarizability (Quad./Quad.)     ...  NO
Static polarizability (Velocity)        ...  NO

Atomic electric properties:
Dipole moment                           ...  NO
Quadrupole moment                       ...  NO
Static polarizability                   ...  NO

Choice of electric origin               ... Center of mass
Position of electric origin             ...    -0.000000    -0.000002    -0.000001

General magnetic properties:
Magnetizability                         ...  NO

EPR properties:
g-Tensor (aka g-matrix)                 ...  NO
Zero-Field splitting spin-orbit         ...  NO
Zero-field splitting spin-spin          ...  NO
Hyperfine couplings                     ...  NO (   0 nuclei)
Quadrupole couplings                    ...  NO (   0 nuclei)
Contact density                         ...  NO (   0 nuclei)

NMR properties:
Chemical shifts                         ...  NO (   0 nuclei)
Spin-rotation constants                 ...  NO (   0 nuclei)
Spin-spin couplings                     ...  NO (   0 nuclei,    0 pairs)

Choice of magnetic origin               ... GIAO
Position of magnetic origin             ...     0.000000     0.000000     0.000000

Properties with geometric perturbations:
SCF Hessian                             ...  NO
IR spectrum                             ...  NO
VCD spectrum                            ...  NO
X-ray spectroscopy properties:
SCF XES/XAS/RIXS spectra                ...  NO


-------------
DIPOLE MOMENT
-------------

Method             : SCF
Type of density    : Electron Density
Multiplicity       :   1
Irrep              :   0
Energy             :  -276.2867083205272820 Eh
Relativity type    : 
Basis              : AO
                                X                 Y                 Z
Electronic contribution:      0.141986555       0.788770527       0.607405416
Nuclear contribution   :     -0.170154857      -0.772079277      -0.567255976
                        -----------------------------------------
Total Dipole Moment    :     -0.028168302       0.016691249       0.040149440
                        -----------------------------------------
Magnitude (a.u.)       :      0.051807611
Magnitude (Debye)      :      0.131684483



--------------------
Rotational spectrum 
--------------------
 
Rotational constants in cm-1:             0.125861             0.054454             0.052252 
Rotational constants in MHz :          3773.203739          1632.475098          1566.470376 

Dipole components along the rotational axes: 
x,y,z [a.u.] :     0.024835    -0.045204     0.004884 
x,y,z [Debye]:     0.063125    -0.114900     0.012413 

 

Dipole moment calculation done in   0.0 sec 

Maximum memory used throughout the entire PROP-calculation: 13.6 MB

--------------------------------
SUGGESTED CITATIONS FOR THIS RUN
--------------------------------

Below you find a list of papers that are relevant to this ORCA run
We neither can nor want to force you to cite these papers, but we appreciate if you do
You receive ORCA, which is the product of decades of hard work by many enthusiastic individuals, for free
The only thing we kindly ask in return is that you cite our papers,
We deeply appreciate it, if you show your appreciation for ORCA by not just citing the generic ORCA reference.

Please note that relegating all ORCA citations to the supporting information does *not* help us.
SI sections are not indexed - citations you put there will not count into any citation statistics
But we need these citations in order to attract the funding resources that allow us to do what we are doing

Therefore, if you are a happy ORCA user, please consider citing a few of the papers listed below in the main body of your paper

In addition to the list printed below, the program has created the file sp_solv.bibtex that contains the list in bibtex format
You can import this file easily into all common literature databanks and citation aid programs


List of essential papers. We consider these as the minimum necessary citations

  1. Neese,F.
     Software update: the ORCA program system, version 5.0
     WIRES Comput. Molec. Sci., 2022 12(1)e1606
     doi.org/10.1002/wcms.1606
  2. Grimme,S.; Hansen,A.; Ehlert,S.; Mewes,J.
     r2SCAN-3c: A 'Swiss army knife' composite electronic-structure method
     J. Chem. Phys., 2021 154 064103
     doi.org/10.1063/5.0040021

List of papers to cite with high priority. The work reported in these papers was absolutely
necessary for this run to complete.
Our perspective: the developers of density functionals and basis sets usually get cited in chemistry papers
Good! But without the algorithms to do something with them, the functionals or basis sets would not do anything.
Hence, in our opinion, the algorithm design and method developments papers are equally worthy of getting cited

  1. Neese,F.
     An improvement of the resolution of the identity approximation for the formation of the Coulomb matrix
     J. Comp. Chem., 2003 24(14)1740-1747
     doi.org/10.1002/jcc.10318
  2. Garcia-Rates,M.; Neese,F.
     Effect of the Solute Cavity on the Solvation Energy and its Derivatives within the Framework of the Gaussian Charge Scheme
     J. Comput. Chem., 2020 41 922-939
     doi.org/10.1002/jcc.26139
  3. Neese,F.
     The SHARK Integral Generation and Digestion System
     J. Comp. Chem., 2022  1-16
     doi.org/10.1002/jcc.26942
  4. Lehtola,S.; Steigemann,C.; Oliveira,M.; Marques,M.
     Recent developments in Libxc - A comprehensive library of functionals for density functional theory
     Software X, 2018 7 
     doi.org/10.1016/j.softx.2017.11.002
  5. Caldeweyher,E.; Bannwarth,C.; Grimme,S.
     Extension of the D3 dispersion coefficient model
     J. Chem. Phys., 2017 147 034112-XXXX
     doi.org/10.1063/1.4993215
  6. Caldeweyher,E.; Ehlert,S.; Hansen,A.; Neugebauer,H.; Spicher,S.; Bannwarth,C.; Grimme,S.
     A generally applicable atomic-charge dependent London dispersion correction
     J. Chem. Phys., 2019 150 154122-XXXX
     doi.org/10.1063/1.5090222
  7. Caldeweyher,E.; Mewes,J.; Ehlert,S.; Grimme,S.
     Extension and evaluation of the D4 London-dispersion model for periodic systems
     Phys. Chem. Chem. Phys., 2020 22(16)8499-8512
     doi.org/10.1039/D0CP00502A

List of suggested additional citations. These are papers that are important in the 'surrounding' of 
of this run, or papers that preceded the highly important papers. If you like your results we are grateful for a citation.

  1. Neese,F.
     The ORCA program system
     WIRES Comput. Molec. Sci., 2012 2(1)73-78
     doi.org/10.1002/wcms.81
  2. Neese,F.
     Software update: the ORCA program system, version 4.0
     WIRES Comput. Molec. Sci., 2018 8(1)1-6
     doi.org/10.1002/wcms.1327
  3. Neese,F.; Wennmohs,F.; Becker,U.; Riplinger,C.
     The ORCA quantum chemistry program package
     J. Chem. Phys., 2020 152 Art. No. L224108
     doi.org/10.1063/5.0004608

List of optional additional citations

  1. Neese,F.
     Approximate second-order SCF convergence for spin unrestricted wavefunctions
     Chem. Phys. Lett., 2000 325(1-3)93-98
     doi.org/10.1016/s0009-2614(00)00662-x

Timings for individual modules:

Sum of individual times          ...       21.154 sec (=   0.353 min)
Startup calculation              ...        1.160 sec (=   0.019 min)   5.5 %
SCF iterations                   ...       19.893 sec (=   0.332 min)  94.0 %
Property calculations            ...        0.101 sec (=   0.002 min)   0.5 %
                             ****ORCA TERMINATED NORMALLY****
TOTAL RUN TIME: 0 days 0 hours 0 minutes 21 seconds 885 msec
