26
 energy: -315.584586859313 gnorm: 0.002056865626 xtb: 6.7.1 (edcfbbe)
C           -1.96989266587423        0.71526104989448        1.31375445862456
C           -1.41216246699567        0.31135326990185       -0.05462896145286
C           -2.53227349037612       -0.24892350374539       -0.93644240016478
C           -0.25476319141850       -0.70499143137050        0.07858461229374
C            1.17885169770667       -0.15091026554660       -0.07433168445581
C            1.40054566277584        0.35378792504117       -1.50646633193945
C            1.44926947204859        0.98540389895632        0.91866462913274
C            2.16252667917033       -1.29537070175147        0.20138908446337
H           -2.75208622291253        1.47688086534121        1.21414422917481
H           -2.41122215819124       -0.15554392377567        1.81594140555264
H           -1.18806439090612        1.11647243179442        1.96782860433639
H           -1.03014708926386        1.21784853145795       -0.54361152683590
H           -2.16441782181453       -0.47125090877159       -1.94566017175750
H           -2.93105637942816       -1.17975031726477       -0.51082825473438
H           -3.36340142651525        0.46051025646447       -1.02685572013539
H           -0.33173858574693       -1.20422973932816        1.05588799792704
H           -0.37562827309102       -1.49423497715269       -0.67693226212736
H            2.43483984702179        0.69219183560991       -1.63949079294356
H            0.74350739999726        1.19604416588048       -1.74838729152493
H            1.20873020666672       -0.44418699804663       -2.23360827456180
H            0.80365040002351        1.84984055854093        0.72955905751770
H            2.48961094912100        1.32296698630227        0.83618539053634
H            1.28228253320175        0.65429719321157        1.95077148223242
H            1.98903890798698       -2.13509156599105       -0.48206294347268
H            2.05447962074479       -1.66560471685889        1.22769177416486
H            3.19797540713915       -0.96012841481332        0.06933992825339
26
 energy: -315.584600912529 gnorm: 0.000627958915 xtb: 6.7.1 (edcfbbe)
C           -1.97036844375427        0.71538837254672        1.31233164351830
C           -1.41279418512643        0.31118261610632       -0.05524215336000
C           -2.53316902915077       -0.24925070042671       -0.93471680361241
C           -0.25494815331040       -0.70444957668817        0.07771210827349
C            1.17887626183560       -0.15106835580498       -0.07447267273253
C            1.40213108041314        0.35422296719018       -1.50585197706153
C            1.44968607368655        0.98505169575404        0.91832578285812
C            2.16231307164470       -1.29561194895048        0.20140022525307
H           -2.75124533384233        1.47807636893072        1.21323112094336
H           -2.41246645944433       -0.15447681434089        1.81414491521690
H           -1.18909019559114        1.11504593961318        1.96650943958965
H           -1.03211161829116        1.21728292763405       -0.54429663173032
H           -2.16739255370718       -0.47357636941056       -1.94316512027292
H           -2.93166679112364       -1.17874436168038       -0.50841534689532
H           -3.36327997801163        0.46084457430419       -1.02498779693380
H           -0.33186106632803       -1.20402266915722        1.05416302852694
H           -0.37548905633669       -1.49297658428083       -0.67777944976866
H            2.43569374396581        0.69490282900852       -1.63735991508077
H            0.74354758337606        1.19497426757540       -1.74867074051929
H            1.21366363403256       -0.44413282167073       -2.23325796126848
H            0.80264355641774        1.84888145372261        0.73155117298780
H            2.48898624929154        1.32406374471859        0.83382181603957
H            1.28592405564046        0.65321998011760        1.95022983157531
H            1.98959118479126       -2.13495911225753       -0.48256970455788
H            2.05337369243957       -1.66657217468393        1.22717170522260
H            3.19790679136958       -0.96065482874470        0.07062995258765
26
 energy: -315.584610526822 gnorm: 0.001150690880 xtb: 6.7.1 (edcfbbe)
C           -1.96948873528903        0.71621916522949        1.31018968895710
C           -1.41369996960191        0.31124746897140       -0.05701064405429
C           -2.53527268671605       -0.25072680312134       -0.93159997465504
C           -0.25528603467529       -0.70370340623201        0.07518196879076
C            1.17889570542334       -0.15064492918902       -0.07482266512169
C            1.40526191801857        0.35535915243044       -1.50506503061045
C            1.45022888854948        0.98438619456629        0.91866252050182
C            2.16099021235001       -1.29613030978215        0.20175582113428
H           -2.74754883167714        1.48157232881493        1.21120472566045
H           -2.41505888023051       -0.15191083868516        1.81082429806894
H           -1.18845152673869        1.11257307496663        1.96533243302528
H           -1.03507521143980        1.21655563159310       -0.54745280970359
H           -2.17398008671014       -0.47976728372996       -1.93963276392285
H           -2.93395880786360       -1.17729835970770       -0.50139215169429
H           -3.36395647295055        0.46053230400151       -1.02164792558418
H           -0.33265957906115       -1.20455435604284        1.05025863475117
H           -0.37508141411882       -1.49070161909645       -0.68123960630346
H            2.43725238876535        0.70220176413372       -1.63179317837776
H            0.74280902761784        1.19222925811588       -1.75068060050423
H            1.22546611259406       -0.44403623005466       -2.23343800533407
H            0.79919740284911        1.84625921144279        0.73678037759268
H            2.48746548433668        1.32730921431840        0.82879270192507
H            1.29376464420648        0.65049924486619        1.95064264100097
H            1.99006624126778       -2.13430632426102       -0.48403231914074
H            2.04957576149482       -1.66904878281887        1.22641259994399
H            3.19699711498178       -0.96147364149233        0.07420697499201
26
 energy: -315.584616673488 gnorm: 0.000672514326 xtb: 6.7.1 (edcfbbe)
C           -1.96815635385816        0.71766020632668        1.30941176688032
C           -1.41394142227611        0.31114034567668       -0.05818455518483
C           -2.53750475346276       -0.25180306461647       -0.92995947844303
C           -0.25539242359334       -0.70380739571986        0.07326127906085
C            1.17912096129858       -0.15075914942654       -0.07487271457088
C            1.40719419233348        0.35630723731723       -1.50449882480418
C            1.44982922699894        0.98398808435009        0.91912828805963
C            2.16078131227640       -1.29659480766795        0.20194314235699
H           -2.74438616507818        1.48508202761893        1.21073283279081
H           -2.41624322948966       -0.14962605422910        1.80972572004990
H           -1.18578978170674        1.11176362742117        1.96475647905332
H           -1.03573299950827        1.21596135976199       -0.55044626803954
H           -2.17788346038709       -0.48357396830612       -1.93831988094106
H           -2.93639125967649       -1.17713207722648       -0.49634128077240
H           -3.36615698901409        0.45969170750899       -1.02048688291598
H           -0.33373703646048       -1.20615566671970        1.04770564724102
H           -0.37441404823381       -1.48977412251845       -0.68461837330817
H            2.43816098381326        0.70753658846464       -1.62818834784284
H            0.74201399037056        1.19043250324428       -1.75222215098096
H            1.23281783487382       -0.44386184755666       -2.23338389481255
H            0.79620384206401        1.84446103608181        0.73981998493323
H            2.48609016637142        1.32961789418725        0.82673997322647
H            1.29691287141149        0.64851718151010        1.95125810256892
H            1.99076439789354       -2.13382412160138       -0.48527707626741
H            2.04713907756954       -1.67064743158513        1.22599377595097
H            3.19715260982916       -0.96195925170344        0.07676150878038
26
 energy: -315.584620823552 gnorm: 0.000538689453 xtb: 6.7.1 (edcfbbe)
C           -1.96308413600043        0.72182037447819        1.30799199286573
C           -1.41420537546761        0.31101731580119       -0.06121592737651
C           -2.54249016416126       -0.25523743376680       -0.92620733355022
C           -0.25602107654494       -0.70451470502142        0.06790674903120
C            1.17905778734798       -0.15055575667445       -0.07509869693308
C            1.41131884035445        0.35837993274156       -1.50362158797111
C            1.44778276591403        0.98273803827615        0.92128119987509
C            2.15975729048859       -1.29712405961969        0.20263424530576
H           -2.73444854176712        1.49449094165405        1.20997153714760
H           -2.41677729116751       -0.14282949368106        1.80871382255927
H           -1.17706043608236        1.11069244779174        1.96271560664631
H           -1.03753702293069        1.21421513584513       -0.55876695996160
H           -2.18742657293164       -0.49322602652408       -1.93531284640080
H           -2.94132272776154       -1.17769477521869       -0.48494638275971
H           -3.37080651950102        0.45702618957544       -1.01703103935643
H           -0.33706939030684       -1.21166772359711        1.04011881099003
H           -0.37364388068986       -1.48718444525656       -0.69415578005512
H            2.43967799992831        0.72011826311331       -1.61991436419482
H            0.73965172919489        1.18595467799232       -1.75607106469296
H            1.25006800703245       -0.44344724743175       -2.23390559530051
H            0.78892640799863        1.84012521239260        0.74659590391745
H            2.48196191198876        1.33417211620787        0.82508073709989
H            1.30111538384243        0.64407351729870        1.95352037359359
H            1.99284685830895       -2.13211641371712       -0.48809701330793
H            2.04142495040727       -1.67447232968467        1.22501700773256
H            3.19675174973175       -0.96211379736138        0.08323833903527
26
 energy: -315.584620823552 gnorm: 0.000538689453 xtb: 6.7.1 (edcfbbe)
C           -1.96308413600043        0.72182037447819        1.30799199286573
C           -1.41420537546761        0.31101731580119       -0.06121592737651
C           -2.54249016416126       -0.25523743376680       -0.92620733355022
C           -0.25602107654494       -0.70451470502142        0.06790674903120
C            1.17905778734798       -0.15055575667445       -0.07509869693308
C            1.41131884035445        0.35837993274156       -1.50362158797111
C            1.44778276591403        0.98273803827615        0.92128119987509
C            2.15975729048859       -1.29712405961969        0.20263424530576
H           -2.73444854176712        1.49449094165405        1.20997153714760
H           -2.41677729116751       -0.14282949368106        1.80871382255927
H           -1.17706043608236        1.11069244779174        1.96271560664631
H           -1.03753702293069        1.21421513584513       -0.55876695996160
H           -2.18742657293164       -0.49322602652408       -1.93531284640080
H           -2.94132272776154       -1.17769477521869       -0.48494638275971
H           -3.37080651950102        0.45702618957544       -1.01703103935643
H           -0.33706939030684       -1.21166772359711        1.04011881099003
H           -0.37364388068986       -1.48718444525656       -0.69415578005512
H            2.43967799992831        0.72011826311331       -1.61991436419482
H            0.73965172919489        1.18595467799232       -1.75607106469296
H            1.25006800703245       -0.44344724743175       -2.23390559530051
H            0.78892640799863        1.84012521239260        0.74659590391745
H            2.48196191198876        1.33417211620787        0.82508073709989
H            1.30111538384243        0.64407351729870        1.95352037359359
H            1.99284685830895       -2.13211641371712       -0.48809701330793
H            2.04142495040727       -1.67447232968467        1.22501700773256
H            3.19675174973175       -0.96211379736138        0.08323833903527
