      -----------------------------------------------------------      
     |                   =====================                   |     
     |                           x T B                           |     
     |                   =====================                   |     
     |                         S. Grimme                         |     
     |          Mulliken Center for Theoretical Chemistry        |     
     |                    University of Bonn                     |     
      -----------------------------------------------------------      

   * xtb version 6.7.1 (edcfbbe) compiled by 'albert@albert-system' on 2024-07-22

   xtb is free software: you can redistribute it and/or modify it under
   the terms of the GNU Lesser General Public License as published by
   the Free Software Foundation, either version 3 of the License, or
   (at your option) any later version.
   
   xtb is distributed in the hope that it will be useful,
   but WITHOUT ANY WARRANTY; without even the implied warranty of
   MERCHANTABILITY or FITNESS FOR A PARTICULAR PURPOSE.  See the
   GNU Lesser General Public License for more details.
   
   Cite this work as:
   * C. Bannwarth, E. Caldeweyher, S. Ehlert, A. Hansen, P. Pracht,
     J. Seibert, S. Spicher, S. Grimme, WIREs Comput. Mol. Sci., 2020, 11,
     e01493. DOI: 10.1002/wcms.1493
   
   for GFN2-xTB:
   * C. Bannwarth, S. Ehlert and S. Grimme., J. Chem. Theory Comput., 2019,
     15, 1652-1671. DOI: 10.1021/acs.jctc.8b01176
   for GFN1-xTB:
   * S. Grimme, C. Bannwarth, P. Shushkov, J. Chem. Theory Comput., 2017,
     13, 1989-2009. DOI: 10.1021/acs.jctc.7b00118
   for GFN0-xTB:
   * P. Pracht, E. Caldeweyher, S. Ehlert, S. Grimme, ChemRxiv, 2019, preprint.
     DOI: 10.26434/chemrxiv.8326202.v1
   for GFN-FF:
   * S. Spicher and S. Grimme, Angew. Chem. Int. Ed., 2020, 59, 15665-15673.
     DOI: 10.1002/anie.202004239
   
   for ALPB and GBSA implicit solvation:
   * S. Ehlert, M. Stahn, S. Spicher, S. Grimme, J. Chem. Theory Comput.,
     2021, 17, 4250-4261. DOI: 10.1021/acs.jctc.1c00471
   
   for ddCOSMO and CPCM-X implicit solvation:
   * M. Stahn, S. Ehlert, S. Grimme, J. Phys. Chem. A,
     2023, XX, XXXX-XXXX. DOI: 10.1021/acs.jpca.3c04382
   
   for DFT-D4:
   * E. Caldeweyher, C. Bannwarth and S. Grimme, J. Chem. Phys., 2017,
     147, 034112. DOI: 10.1063/1.4993215
   * E. Caldeweyher, S. Ehlert, A. Hansen, H. Neugebauer, S. Spicher,
     C. Bannwarth and S. Grimme, J. Chem. Phys., 2019, 150, 154122.
     DOI: 10.1063/1.5090222
   * E. Caldeweyher, J.-M. Mewes, S. Ehlert and S. Grimme, Phys. Chem. Chem. Phys.
     2020, 22, 8499-8512. DOI: 10.1039/D0CP00502A
   
   for sTDA-xTB:
   * S. Grimme and C. Bannwarth, J. Chem. Phys., 2016, 145, 054103.
     DOI: 10.1063/1.4959605
   
   in the mass-spec context:
   * V. Asgeirsson, C. Bauer and S. Grimme, Chem. Sci., 2017, 8, 4879.
     DOI: 10.1039/c7sc00601b
   * J. Koopman and S. Grimme, ACS Omega 2019, 4, 12, 15120-15133.
     DOI: 10.1021/acsomega.9b02011
   
   for metadynamics refer to:
   * S. Grimme, J. Chem. Theory Comput., 2019, 155, 2847-2862
     DOI: 10.1021/acs.jctc.9b00143
   
   for SPH calculations refer to:
   * S. Spicher and S. Grimme, J. Chem. Theory Comput., 2021, 17, 1701-1714
     DOI: 10.1021/acs.jctc.0c01306
   
   for ONIOM refer to:
   * C. Plett, A. Katbashev, S. Ehlert, S. Grimme, M. Bursch,
     Phys. Chem. Chem. Phys., 2023, 25, 17860-17868. DOI: 10.1039/D3CP02178E
   
   for DIPRO refer to:
   * J. Kohn, N. Gildemeister, S. Grimme, D. Fazzi, A. Hansen,
     J. Chem. Phys., 2023, just accepted.
   
   for PTB refer to:
   * S. Grimme, M. Mueller, A. Hansen, J. Chem. Phys., 2023, 158, 124111.
     DOI: 10.1063/5.0137838
   
   with help from (in alphabetical order)
   P. Atkinson, C. Bannwarth, F. Bohle, G. Brandenburg, E. Caldeweyher
   M. Checinski, S. Dohm, S. Ehlert, S. Ehrlich, I. Gerasimov, C. Hölzer
   A. Katbashev, J. Kohn, J. Koopman, C. Lavigne, S. Lehtola, F. März, M. Müller,
   F. Musil, H. Neugebauer, J. Pisarek, C. Plett, P. Pracht, F. Pultar,
   J. Seibert, P. Shushkov, S. Spicher, M. Stahn, M. Steiner, T. Strunk,
   J. Stückrath, T. Rose, and J. Unsleber
   
 * started run on 2025/04/06 at 20:24:28.154     
   ID    Z sym.   atoms
    1    6 C      1-5, 7, 8, 11-13
    2    1 H      6, 9, 14-27
    3    8 O      10

           -------------------------------------------------
          |                Calculation Setup                |
           -------------------------------------------------

          program call               : /srv/scratch/z5358697/.xtb/bin/xtb xtb_rrho.coord --gfn2 --bhess vtight --chrg 0 --enso --norestart -I rrho-xcontrol-inp --parallel 1 --alpb water
          hostname                   : k139
          coordinate file            : xtb_rrho.coord
          omp threads                :                     1


           -------------------------------------------------
          |                 G F N 2 - x T B                 |
           -------------------------------------------------

        Reference                      10.1021/acs.jctc.8b01176
      * Hamiltonian:
        H0-scaling (s, p, d)           1.850000    2.230000    2.230000
        zeta-weighting                 0.500000
      * Dispersion:
        s8                             2.700000
        a1                             0.520000
        a2                             5.000000
        s9                             5.000000
      * Repulsion:
        kExp                           1.500000    1.000000
        rExp                           1.000000
      * Coulomb:
        alpha                          2.000000
        third order                    shell-resolved
        anisotropic                    true
        a3                             3.000000
        a5                             4.000000
        cn-shift                       1.200000
        cn-exp                         4.000000
        max-rad                        5.000000

      * Solvation model:               ALPB
        Solvent                        water
        Parameter file                 internal GFN2-xTB/ALPB
        Dielectric constant                8.0200E+01
        Reference state                gsolv [1 M gas/solution]
        Free energy shift                  1.0808E-03 Eh       6.7819E-01 kcal/mol
        Temperature                        2.9815E+02 K
        Density                            1.0000E+00 kg/L
        Solvent mass                       1.8000E+01 g/mol
        Interaction kernel             P16
        Born radius scaling (c1)           1.4744E+00
        Born radii integrator          GBOBC
        Born offset                        0.0000E+00 a0       0.0000E+00 AA
        H-bond correction              true
        Ion screening                  false
        Surface tension                    1.0000E-05 Eh       1.5569E+01 dyn/cm
        Grid points                               974 per atom

          ...................................................
          :                      SETUP                      :
          :.................................................:
          :  # basis functions                  60          :
          :  # atomic orbitals                  60          :
          :  # shells                           38          :
          :  # electrons                        62          :
          :  max. iterations                   250          :
          :  Hamiltonian                  GFN2-xTB          :
          :  restarted?                      false          :
          :  GBSA solvation                   true          :
          :  PC potential                    false          :
          :  electronic temp.          300.0000000     K    :
          :  accuracy                    1.0000000          :
          :  -> integral cutoff          0.2500000E+02      :
          :  -> integral neglect         0.1000000E-07      :
          :  -> SCF convergence          0.1000000E-05 Eh   :
          :  -> wf. convergence          0.1000000E-03 e    :
          :  Broyden damping             0.4000000          :
          :  net charge                          0          :
          :  unpaired electrons                  0          :
          ...................................................

 iter      E             dE          RMSdq      gap      omega  full diag
   1    -34.0547925 -0.340548E+02  0.346E+00    4.99       0.0  T
   2    -34.0806420 -0.258495E-01  0.201E+00    4.95       1.0  T
   3    -34.0743665  0.627551E-02  0.869E-01    4.91       1.0  T
   4    -34.0831556 -0.878906E-02  0.326E-01    4.91       1.0  T
   5    -34.0843679 -0.121232E-02  0.695E-02    4.91       1.0  T
   6    -34.0843902 -0.223023E-04  0.382E-02    4.90       1.0  T
   7    -34.0843912 -0.105822E-05  0.108E-02    4.90       1.8  T
   8    -34.0843926 -0.138472E-05  0.474E-03    4.90       4.1  T
   9    -34.0843929 -0.285669E-06  0.192E-03    4.90      10.0  T
  10    -34.0843929 -0.117526E-07  0.719E-04    4.90      26.8  T
  11    -34.0843929 -0.102224E-08  0.171E-04    4.90     112.4  T

   *** convergence criteria satisfied after 11 iterations ***

         #    Occupation            Energy/Eh            Energy/eV
      -------------------------------------------------------------
         1        2.0000           -0.6803169             -18.5124
       ...           ...                  ...                  ...
        25        2.0000           -0.4396448             -11.9633
        26        2.0000           -0.4320452             -11.7565
        27        2.0000           -0.4197291             -11.4214
        28        2.0000           -0.4115915             -11.2000
        29        2.0000           -0.4005622             -10.8999
        30        2.0000           -0.3813641             -10.3774
        31        2.0000           -0.3807827             -10.3616 (HOMO)
        32                         -0.2007008              -5.4613 (LUMO)
        33                         -0.1936910              -5.2706
        34                          0.0293596               0.7989
        35                          0.0546054               1.4859
        36                          0.0769511               2.0939
       ...                                ...                  ...
        60                          0.6140716              16.7097
      -------------------------------------------------------------
                  HL-Gap            0.1800819 Eh            4.9003 eV
             Fermi-level           -0.2907418 Eh           -7.9115 eV

 SCC (total)                   0 d,  0 h,  0 min,  0.042 sec
 SCC setup                      ...        0 min,  0.001 sec (  3.403%)
 Dispersion                     ...        0 min,  0.000 sec (  0.357%)
 classical contributions        ...        0 min,  0.000 sec (  0.061%)
 integral evaluation            ...        0 min,  0.002 sec (  5.234%)
 iterations                     ...        0 min,  0.032 sec ( 75.334%)
 molecular gradient             ...        0 min,  0.006 sec ( 15.296%)
 printout                       ...        0 min,  0.000 sec (  0.286%)

         :::::::::::::::::::::::::::::::::::::::::::::::::::::
         ::                     SUMMARY                     ::
         :::::::::::::::::::::::::::::::::::::::::::::::::::::
         :: total energy             -33.606721654383 Eh    ::
         :: total w/o Gsasa/hb       -33.602949476762 Eh    ::
         :: gradient norm              0.039700481537 Eh/a0 ::
         :: HOMO-LUMO gap              4.900278845923 eV    ::
         ::.................................................::
         :: SCC energy               -34.084284868442 Eh    ::
         :: -> isotropic ES            0.038598736871 Eh    ::
         :: -> anisotropic ES          0.007177462047 Eh    ::
         :: -> anisotropic XC          0.016463104693 Eh    ::
         :: -> dispersion             -0.021925254225 Eh    ::
         :: -> Gsolv                  -0.008132248514 Eh    ::
         ::    -> Gelec               -0.004360070893 Eh    ::
         ::    -> Gsasa               -0.000334385428 Eh    ::
         ::    -> Ghb                 -0.004518551892 Eh    ::
         ::    -> Gshift               0.001080759698 Eh    ::
         :: repulsion energy           0.477563214059 Eh    ::
         :: add. restraining           0.000000000000 Eh    ::
         :: total charge               0.000000000000 e     ::
         :::::::::::::::::::::::::::::::::::::::::::::::::::::

metadynamics with 1 initial structures loaded
           -------------------------------------------------
          |           Optimal kpush determination           |
           -------------------------------------------------
      ----------------------------------------------------------- 
     |                   =====================                   |
     |                        A N C O P T                        |
     |                   =====================                   |
     |               Approximate Normal Coordinate               |
     |                Rational Function Optimizer                |
      ----------------------------------------------------------- 
target rmsd / Å         0.100000
unbiased initial rmsd   0.080150
 
iter. min.        max.        rmsd       kpush
final kpush:  0.000000
           -------------------------------------------------
          |            Biased Numerical Hessian             |
           -------------------------------------------------
kpush                :   0.00000
alpha                :   1.00000
step length          :   0.00500
SCC accuracy         :   0.30000
Hessian scale factor :   1.00000
frozen atoms in %    :   0.00000    0
RMS gradient         :   0.00009
estimated CPU  time      0.04 min
estimated wall time      0.04 min

writing file <hessian>.

 projected vibrational frequencies (cm⁻¹)
eigval :       -0.00    -0.00     0.00     0.00     0.00     0.00
eigval :       38.34    69.28   101.11   117.67   124.08   185.63
eigval :      234.52   256.88   265.38   289.72   325.86   335.77
eigval :      386.75   443.81   467.39   522.39   557.24   593.28
eigval :      668.70   695.94   797.74   825.61   874.06   890.06
eigval :      924.97   934.94   967.86   985.90   991.50  1019.65
eigval :     1027.75  1035.90  1057.75  1077.33  1086.60  1138.42
eigval :     1156.43  1170.91  1186.80  1210.63  1244.46  1264.18
eigval :     1285.23  1300.05  1310.66  1330.80  1351.64  1361.33
eigval :     1398.68  1400.67  1422.84  1456.22  1474.82  1478.00
eigval :     1479.99  1483.04  1487.00  1721.63  1743.69  2802.59
eigval :     2906.99  2929.51  2969.96  2983.86  2993.47  2999.82
eigval :     3009.03  3009.92  3029.60  3041.12  3042.64  3047.62
eigval :     3099.52  3136.53  3520.68
           -------------------------------------------------
          |                Property Printout                |
           -------------------------------------------------

    * Orbital Energies and Occupations

         #    Occupation            Energy/Eh            Energy/eV
      -------------------------------------------------------------
         1        2.0000           -0.6837100             -18.6047
       ...           ...                  ...                  ...
        19        2.0000           -0.4741695             -12.9028
        20        2.0000           -0.4718641             -12.8401
        21        2.0000           -0.4703925             -12.8000
        22        2.0000           -0.4613125             -12.5530
        23        2.0000           -0.4469982             -12.1634
        24        2.0000           -0.4424101             -12.0386
        25        2.0000           -0.4392863             -11.9536
        26        2.0000           -0.4321406             -11.7591
        27        2.0000           -0.4194204             -11.4130
        28        2.0000           -0.4093990             -11.1403
        29        2.0000           -0.3991352             -10.8610
        30        2.0000           -0.3822903             -10.4026
        31        2.0000           -0.3815358             -10.3821 (HOMO)
        32                         -0.1965124              -5.3474 (LUMO)
        33                         -0.1898150              -5.1651
        34                          0.0550430               1.4978
        35                          0.0613464               1.6693
        36                          0.0827795               2.2525
        37                          0.0885960               2.4108
        38                          0.1008050               2.7430
        39                          0.1173385               3.1929
        40                          0.1219889               3.3195
        41                          0.1388407               3.7780
        42                          0.1522889               4.1440
       ...                                ...                  ...
        60                          0.6480013              17.6330
      -------------------------------------------------------------
                  HL-Gap            0.1850234 Eh            5.0347 eV
             Fermi-level           -0.2890241 Eh           -7.8647 eV

     #   Z          covCN         q      C6AA      α(0)
     1   6 C        3.758    -0.119    22.833     6.813
     2   6 C        2.941    -0.023    28.570     8.766
     3   6 C        2.898    -0.051    29.263     8.870
     4   6 C        3.812    -0.065    21.740     6.637
     5   6 C        3.862    -0.025    20.971     6.512
     6   1 H        0.924     0.052     2.298     2.371
     7   6 C        3.811    -0.064    21.723     6.634
     8   6 C        3.733     0.116    18.765     6.183
     9   1 H        0.923     0.010     2.884     2.656
    10   8 O        1.654    -0.511    23.128     6.492
    11   6 C        2.938     0.011    27.762     8.641
    12   6 C        2.844    -0.120    31.028     9.129
    13   6 C        3.761    -0.120    22.839     6.813
    14   1 H        0.925     0.050     2.325     2.385
    15   1 H        0.925     0.047     2.354     2.400
    16   1 H        0.925     0.050     2.319     2.381
    17   1 H        0.925     0.032     2.556     2.500
    18   1 H        0.924     0.046     2.376     2.411
    19   1 H        0.924     0.051     2.312     2.378
    20   1 H        0.925     0.050     2.325     2.384
    21   1 H        0.924     0.036     2.501     2.473
    22   1 H        0.805     0.339     0.615     1.232
    23   1 H        0.926     0.030     2.584     2.514
    24   1 H        0.926     0.033     2.549     2.497
    25   1 H        0.925     0.051     2.313     2.379
    26   1 H        0.925     0.047     2.357     2.401
    27   1 H        0.925     0.047     2.359     2.402

 Mol. C6AA /au·bohr⁶  :       6112.736875
 Mol. C8AA /au·bohr⁸  :     137218.455015
 Mol. α(0) /au        :        119.252212


Wiberg/Mayer (AO) data.
largest (>0.10) Wiberg bond orders for each atom

 ---------------------------------------------------------------------------
     #   Z sym  total        # sym  WBO       # sym  WBO       # sym  WBO
 ---------------------------------------------------------------------------
     1   6 C    3.996 --     2 C    1.024    15 H    0.984    16 H    0.973
                            14 H    0.969
     2   6 C    3.986 --     3 C    1.888     1 C    1.024     8 C    0.983
     3   6 C    3.990 --     2 C    1.888     4 C    1.026    17 H    0.964
     4   6 C    3.998 --     3 C    1.026     5 C    0.996    18 H    0.966
                            19 H    0.951
     5   6 C    3.995 --    11 C    1.000     4 C    0.996     7 C    0.981
                             6 H    0.951
     6   1 H    0.997 --     5 C    0.951
     7   6 C    3.996 --     8 C    0.993     5 C    0.981    21 H    0.977
                            20 H    0.972
     8   6 C    3.951 --     7 C    0.993     2 C    0.983    10 O    0.968
                             9 H    0.956
     9   1 H    0.999 --     8 C    0.956
    10   8 O    1.916 --     8 C    0.968    22 H    0.868
    11   6 C    3.986 --    12 C    1.929    13 C    1.021     5 C    1.000
    12   6 C    3.986 --    11 C    1.929    23 H    0.975    24 H    0.973
    13   6 C    3.996 --    11 C    1.021    27 H    0.982    26 H    0.979
                            25 H    0.966
    14   1 H    0.998 --     1 C    0.969
    15   1 H    0.998 --     1 C    0.984
    16   1 H    0.997 --     1 C    0.973
    17   1 H    0.999 --     3 C    0.964
    18   1 H    0.998 --     4 C    0.966
    19   1 H    0.997 --     4 C    0.951
    20   1 H    0.997 --     7 C    0.972
    21   1 H    0.999 --     7 C    0.977
    22   1 H    0.885 --    10 O    0.868
    23   1 H    0.999 --    12 C    0.975
    24   1 H    0.999 --    12 C    0.973
    25   1 H    0.997 --    13 C    0.966
    26   1 H    0.998 --    13 C    0.979
    27   1 H    0.997 --    13 C    0.982
 ---------------------------------------------------------------------------

Topologies differ in total number of bonds
Writing topology from bond orders to xtbtopo.mol

molecular dipole:
                 x           y           z       tot (Debye)
 q only:       -0.570       0.203       0.064
   full:       -0.782       0.231       0.128       2.098
molecular quadrupole (traceless):
                xx          xy          yy          xz          yz          zz
 q only:        4.865      -0.179      -2.942       0.711      -0.201      -1.923
  q+dip:        6.261       1.336      -3.365       0.491      -1.451      -2.896
   full:        6.088       0.803      -3.812       0.672      -0.566      -2.276

           -------------------------------------------------
          |                Geometry Summary                 |
           -------------------------------------------------

      molecular mass/u    :      152.2338159
   center of mass at/Å    :       -0.0000208       0.0000184       0.0009643
  moments of inertia/u·Å² :        0.2368974E+03   0.7069298E+03   0.8768804E+03
rotational constants/cm⁻¹ :        0.7116007E-01   0.2384626E-01   0.1922455E-01

 * 22 selected distances

     #   Z          #   Z                                           value/Å
     2   6 C        3   6 C                                       1.3259563
     4   6 C        5   6 C                                       1.5271775
     5   6 C        6   1 H                                       1.0976016
     5   6 C        7   6 C                                       1.5336000 (max)
     7   6 C        8   6 C                                       1.5284103
     8   6 C        9   1 H                                       1.1041516
     8   6 C       10   8 O                                       1.4255676
    11   6 C       12   6 C                                       1.3241747
     1   6 C       14   1 H                                       1.0894833
     1   6 C       15   1 H                                       1.0863529
     1   6 C       16   1 H                                       1.0894929
     3   6 C       17   1 H                                       1.0824602
     4   6 C       18   1 H                                       1.0920343
     4   6 C       19   1 H                                       1.0947493
     7   6 C       20   1 H                                       1.0891929
     7   6 C       21   1 H                                       1.0906471
    10   8 O       22   1 H                                       0.9654857 (min)
    12   6 C       23   1 H                                       1.0775589
    12   6 C       24   1 H                                       1.0745923
    13   6 C       25   1 H                                       1.0895111
    13   6 C       26   1 H                                       1.0877387
    13   6 C       27   1 H                                       1.0868049

 * 4 distinct bonds (by element types)

   Z      Z             #   av. dist./Å        max./Å        min./Å
   1 H    6 C          15     1.0888248     1.1041516     1.0745923
   6 C    6 C           5     1.4478638     1.5336000     1.3241747
   1 H    8 O           1     0.9654857     0.9654857     0.9654857
   6 C    8 O           1     1.4255676     1.4255676     1.4255676

           -------------------------------------------------
          |               Frequency Printout                |
           -------------------------------------------------
 projected vibrational frequencies (cm⁻¹)
eigval :       -0.00    -0.00     0.00     0.00     0.00     0.00
eigval :       38.34    69.28   101.11   117.67   124.08   185.63
eigval :      234.52   256.88   265.38   289.72   325.86   335.77
eigval :      386.75   443.81   467.39   522.39   557.24   593.28
eigval :      668.70   695.94   797.74   825.61   874.06   890.06
eigval :      924.97   934.94   967.86   985.90   991.50  1019.65
eigval :     1027.75  1035.90  1057.75  1077.33  1086.60  1138.42
eigval :     1156.43  1170.91  1186.80  1210.63  1244.46  1264.18
eigval :     1285.23  1300.05  1310.66  1330.80  1351.64  1361.33
eigval :     1398.68  1400.67  1422.84  1456.22  1474.82  1478.00
eigval :     1479.99  1483.04  1487.00  1721.63  1743.69  2802.59
eigval :     2906.99  2929.51  2969.96  2983.86  2993.47  2999.82
eigval :     3009.03  3009.92  3029.60  3041.12  3042.64  3047.62
eigval :     3099.52  3136.53  3520.68
 reduced masses (amu)
   1: 10.44   2: 11.47   3: 11.21   4: 11.54   5: 10.38   6:  9.99   7:  9.49   8:  8.30
   9:  8.67  10:  3.67  11:  3.63  12:  8.32  13: 11.39  14:  3.00  15:  7.59  16:  9.50
  17:  9.77  18:  8.76  19:  8.11  20:  8.75  21:  8.49  22:  9.34  23:  9.14  24: 10.68
  25: 10.22  26:  2.20  27:  8.44  28:  4.18  29:  6.32  30:  3.70  31:  8.10  32:  7.04
  33:  8.08  34:  6.65  35:  6.12  36:  4.68  37:  4.65  38:  4.89  39:  6.12  40:  7.92
  41:  6.78  42:  3.83  43:  7.36  44:  8.05  45:  3.53  46:  3.93  47:  5.77  48:  5.04
  49:  5.35  50:  3.76  51:  3.65  52:  5.35  53:  6.99  54:  6.49  55:  2.98  56:  3.30
  57:  2.38  58:  1.96  59:  1.99  60:  1.60  61:  1.59  62:  1.64  63:  1.58  64: 11.31
  65: 11.59  66:  1.71  67:  1.73  68:  1.85  69:  1.61  70:  1.81  71:  1.93  72:  1.84
  73:  1.66  74:  1.57  75:  1.73  76:  1.57  77:  1.79  78:  1.65  79:  1.70  80:  1.90
  81:  1.87
 IR intensities (km·mol⁻¹)
   1:  0.15   2:  0.03   3:  0.02   4:  0.05   5:  0.04   6:  0.24   7:  0.31   8:  0.20
   9:  1.42  10:  0.88  11:  1.46  12:  1.42  13:  6.98  14:167.25  15: 49.07  16:  4.88
  17:  0.64  18:  0.88  19:  6.93  20:  0.41  21:  2.09  22:  5.04  23:  2.77  24:  7.00
  25:  5.72  26:  0.37  27:  2.19  28: 12.66  29: 11.39  30: 19.95  31:  5.18  32:  9.14
  33:  7.44  34: 23.04  35:  3.60  36:  7.99  37: 11.75  38: 16.26  39: 43.00  40:112.34
  41:  0.09  42:  4.07  43: 16.88  44: 35.17  45: 64.54  46: 19.64  47: 17.52  48: 36.31
  49: 16.66  50: 17.02  51: 11.45  52:  3.39  53: 18.66  54:  1.66  55:  4.50  56:  1.64
  57: 11.26  58:  0.79  59:  2.36  60:  4.85  61:  3.62  62:  3.57  63:  2.97  64: 37.61
  65:  1.04  66:182.77  67: 33.24  68: 72.39  69: 79.14  70: 76.99  71: 50.38  72: 33.68
  73: 47.89  74: 91.71  75: 56.16  76: 72.41  77: 48.85  78:106.32  79: 87.53  80: 68.80
  81: 61.18
 Raman intensities (Ä⁴*amu⁻¹)
   1:  0.00   2:  0.00   3:  0.00   4:  0.00   5:  0.00   6:  0.00   7:  0.00   8:  0.00
   9:  0.00  10:  0.00  11:  0.00  12:  0.00  13:  0.00  14:  0.00  15:  0.00  16:  0.00
  17:  0.00  18:  0.00  19:  0.00  20:  0.00  21:  0.00  22:  0.00  23:  0.00  24:  0.00
  25:  0.00  26:  0.00  27:  0.00  28:  0.00  29:  0.00  30:  0.00  31:  0.00  32:  0.00
  33:  0.00  34:  0.00  35:  0.00  36:  0.00  37:  0.00  38:  0.00  39:  0.00  40:  0.00
  41:  0.00  42:  0.00  43:  0.00  44:  0.00  45:  0.00  46:  0.00  47:  0.00  48:  0.00
  49:  0.00  50:  0.00  51:  0.00  52:  0.00  53:  0.00  54:  0.00  55:  0.00  56:  0.00
  57:  0.00  58:  0.00  59:  0.00  60:  0.00  61:  0.00  62:  0.00  63:  0.00  64:  0.00
  65:  0.00  66:  0.00  67:  0.00  68:  0.00  69:  0.00  70:  0.00  71:  0.00  72:  0.00
  73:  0.00  74:  0.00  75:  0.00  76:  0.00  77:  0.00  78:  0.00  79:  0.00  80:  0.00
  81:  0.00
 output can be read by thermo (or use thermo option).
 writing <g98.out> molden fake output.
 recommended (thermochemical) frequency scaling factor: 1.0
           -------------------------------------------------
          |             Thermodynamic Functions             |
           -------------------------------------------------

Molecule has no symmetry elements
It seems to be the C1 point group
c1  symmetry found (for desy threshold:  0.10E+00) used in thermo

          ...................................................
          :                      SETUP                      :
          :.................................................:
          :  # frequencies                          75      :
          :  # imaginary freq.                       0      :
          :  linear?                             false      :
          :  only rotor calc.                    false      :
          :  symmetry                               c1      :
          :  rotational number                       1      :
          :  scaling factor                  1.0000000      :
          :  rotor cutoff                    0.0000000 cm⁻¹ :
          :  imag. cutoff                 -100.0000000 cm⁻¹ :
          :.................................................:

    mode    ω/cm⁻¹     T·S(HO)/kcal·mol⁻¹    T·S(FR)/kcal·mol⁻¹   T·S(vib)
   ------------------------------------------------------------------------
       1     38.34    -1.59304 (100.00%)    -1.13500 (  0.00%)    -1.59304
       2     69.28    -1.24436 (100.00%)    -0.95980 (  0.00%)    -1.24436
       3    101.11    -1.02352 (100.00%)    -0.84787 (  0.00%)    -1.02352
       4    117.67    -0.93567 (100.00%)    -0.80294 (  0.00%)    -0.93567
       5    124.08    -0.90513 (100.00%)    -0.78723 (  0.00%)    -0.90513
       6    185.63    -0.67711 (100.00%)    -0.66792 (  0.00%)    -0.67711
       7    234.52    -0.54982 (100.00%)    -0.59867 (  0.00%)    -0.54982
       8    256.88    -0.50175 (100.00%)    -0.57169 (  0.00%)    -0.50175
       9    265.38    -0.48482 (100.00%)    -0.56205 (  0.00%)    -0.48482
      10    289.72    -0.43994 (100.00%)    -0.53605 (  0.00%)    -0.43994
   ------------------------------------------------------------------------

   temp. (K)  partition function   enthalpy   heat capacity  entropy
                                   cal/mol     cal/K/mol   cal/K/mol   J/K/mol
 298.15  VIB  0.684E+04             5994.947     40.650     37.655
         ROT  0.926E+06              888.752      2.981     30.283
         INT  0.633E+10             6883.699     43.630     67.937
         TR   0.182E+28             1481.254      4.968     40.952
         TOT                        8364.9530    48.5986   108.8892   455.5922

       T/K    H(0)-H(T)+PV         H(T)/Eh          T*S/Eh         G(T)/Eh
   ------------------------------------------------------------------------
    298.15    0.133304E-01    0.246976E+00    0.517368E-01    0.195239E+00
   ------------------------------------------------------------------------

         :::::::::::::::::::::::::::::::::::::::::::::::::::::
         ::                  THERMODYNAMIC                  ::
         :::::::::::::::::::::::::::::::::::::::::::::::::::::
         :: total free energy         -33.413632713028 Eh   ::
         ::.................................................::
         :: total energy              -33.608871486917 Eh   ::
         :: zero point energy           0.233645124860 Eh   ::
         :: G(RRHO) w/o ZPVE           -0.038406350971 Eh   ::
         :: G(RRHO) contrib.            0.195238773889 Eh   ::
         :::::::::::::::::::::::::::::::::::::::::::::::::::::

optimized geometry written to: xtbopt.coord


           -------------------------------------------------
          | TOTAL ENERGY              -33.608871486917 Eh   |
          | TOTAL ENTHALPY            -33.361895960879 Eh   |
          | TOTAL FREE ENERGY         -33.413632713028 Eh   |
          | GRADIENT NORM               0.000093497455 Eh/α |
          | HOMO-LUMO GAP               5.034743730904 eV   |
           -------------------------------------------------

------------------------------------------------------------------------
 * finished run on 2025/04/06 at 20:24:30.912     
------------------------------------------------------------------------
 total:
 * wall-time:     0 d,  0 h,  0 min,  2.758 sec
 *  cpu-time:     0 d,  0 h,  0 min,  2.658 sec
 * ratio c/w:     0.964 speedup
 SCF:
 * wall-time:     0 d,  0 h,  0 min,  0.043 sec
 *  cpu-time:     0 d,  0 h,  0 min,  0.020 sec
 * ratio c/w:     0.461 speedup
 analytical hessian:
 * wall-time:     0 d,  0 h,  0 min,  2.284 sec
 *  cpu-time:     0 d,  0 h,  0 min,  2.272 sec
 * ratio c/w:     0.995 speedup

