      -----------------------------------------------------------      
     |                   =====================                   |     
     |                           x T B                           |     
     |                   =====================                   |     
     |                         S. Grimme                         |     
     |          Mulliken Center for Theoretical Chemistry        |     
     |                    University of Bonn                     |     
      -----------------------------------------------------------      

   * xtb version 6.7.1 (edcfbbe) compiled by 'albert@albert-system' on 2024-07-22

   xtb is free software: you can redistribute it and/or modify it under
   the terms of the GNU Lesser General Public License as published by
   the Free Software Foundation, either version 3 of the License, or
   (at your option) any later version.
   
   xtb is distributed in the hope that it will be useful,
   but WITHOUT ANY WARRANTY; without even the implied warranty of
   MERCHANTABILITY or FITNESS FOR A PARTICULAR PURPOSE.  See the
   GNU Lesser General Public License for more details.
   
   Cite this work as:
   * C. Bannwarth, E. Caldeweyher, S. Ehlert, A. Hansen, P. Pracht,
     J. Seibert, S. Spicher, S. Grimme, WIREs Comput. Mol. Sci., 2020, 11,
     e01493. DOI: 10.1002/wcms.1493
   
   for GFN2-xTB:
   * C. Bannwarth, S. Ehlert and S. Grimme., J. Chem. Theory Comput., 2019,
     15, 1652-1671. DOI: 10.1021/acs.jctc.8b01176
   for GFN1-xTB:
   * S. Grimme, C. Bannwarth, P. Shushkov, J. Chem. Theory Comput., 2017,
     13, 1989-2009. DOI: 10.1021/acs.jctc.7b00118
   for GFN0-xTB:
   * P. Pracht, E. Caldeweyher, S. Ehlert, S. Grimme, ChemRxiv, 2019, preprint.
     DOI: 10.26434/chemrxiv.8326202.v1
   for GFN-FF:
   * S. Spicher and S. Grimme, Angew. Chem. Int. Ed., 2020, 59, 15665-15673.
     DOI: 10.1002/anie.202004239
   
   for ALPB and GBSA implicit solvation:
   * S. Ehlert, M. Stahn, S. Spicher, S. Grimme, J. Chem. Theory Comput.,
     2021, 17, 4250-4261. DOI: 10.1021/acs.jctc.1c00471
   
   for ddCOSMO and CPCM-X implicit solvation:
   * M. Stahn, S. Ehlert, S. Grimme, J. Phys. Chem. A,
     2023, XX, XXXX-XXXX. DOI: 10.1021/acs.jpca.3c04382
   
   for DFT-D4:
   * E. Caldeweyher, C. Bannwarth and S. Grimme, J. Chem. Phys., 2017,
     147, 034112. DOI: 10.1063/1.4993215
   * E. Caldeweyher, S. Ehlert, A. Hansen, H. Neugebauer, S. Spicher,
     C. Bannwarth and S. Grimme, J. Chem. Phys., 2019, 150, 154122.
     DOI: 10.1063/1.5090222
   * E. Caldeweyher, J.-M. Mewes, S. Ehlert and S. Grimme, Phys. Chem. Chem. Phys.
     2020, 22, 8499-8512. DOI: 10.1039/D0CP00502A
   
   for sTDA-xTB:
   * S. Grimme and C. Bannwarth, J. Chem. Phys., 2016, 145, 054103.
     DOI: 10.1063/1.4959605
   
   in the mass-spec context:
   * V. Asgeirsson, C. Bauer and S. Grimme, Chem. Sci., 2017, 8, 4879.
     DOI: 10.1039/c7sc00601b
   * J. Koopman and S. Grimme, ACS Omega 2019, 4, 12, 15120-15133.
     DOI: 10.1021/acsomega.9b02011
   
   for metadynamics refer to:
   * S. Grimme, J. Chem. Theory Comput., 2019, 155, 2847-2862
     DOI: 10.1021/acs.jctc.9b00143
   
   for SPH calculations refer to:
   * S. Spicher and S. Grimme, J. Chem. Theory Comput., 2021, 17, 1701-1714
     DOI: 10.1021/acs.jctc.0c01306
   
   for ONIOM refer to:
   * C. Plett, A. Katbashev, S. Ehlert, S. Grimme, M. Bursch,
     Phys. Chem. Chem. Phys., 2023, 25, 17860-17868. DOI: 10.1039/D3CP02178E
   
   for DIPRO refer to:
   * J. Kohn, N. Gildemeister, S. Grimme, D. Fazzi, A. Hansen,
     J. Chem. Phys., 2023, just accepted.
   
   for PTB refer to:
   * S. Grimme, M. Mueller, A. Hansen, J. Chem. Phys., 2023, 158, 124111.
     DOI: 10.1063/5.0137838
   
   with help from (in alphabetical order)
   P. Atkinson, C. Bannwarth, F. Bohle, G. Brandenburg, E. Caldeweyher
   M. Checinski, S. Dohm, S. Ehlert, S. Ehrlich, I. Gerasimov, C. Hölzer
   A. Katbashev, J. Kohn, J. Koopman, C. Lavigne, S. Lehtola, F. März, M. Müller,
   F. Musil, H. Neugebauer, J. Pisarek, C. Plett, P. Pracht, F. Pultar,
   J. Seibert, P. Shushkov, S. Spicher, M. Stahn, M. Steiner, T. Strunk,
   J. Stückrath, T. Rose, and J. Unsleber
   
 * started run on 2025/04/06 at 20:05:01.352     
   ID    Z sym.   atoms
    1    6 C      1-5, 7, 8, 11-13
    2    1 H      6, 9, 14-27
    3    8 O      10

           -------------------------------------------------
          |                Calculation Setup                |
           -------------------------------------------------

          program call               : /srv/scratch/z5358697/.xtb/bin/xtb solv.coord --gfn2 --sp --chrg 0 --norestart --parallel 1 --alpb water reference -I xtb_sp-xcontrol-inp
          hostname                   : k139
          coordinate file            : solv.coord
          omp threads                :                     1


           -------------------------------------------------
          |                 G F N 2 - x T B                 |
           -------------------------------------------------

        Reference                      10.1021/acs.jctc.8b01176
      * Hamiltonian:
        H0-scaling (s, p, d)           1.850000    2.230000    2.230000
        zeta-weighting                 0.500000
      * Dispersion:
        s8                             2.700000
        a1                             0.520000
        a2                             5.000000
        s9                             5.000000
      * Repulsion:
        kExp                           1.500000    1.000000
        rExp                           1.000000
      * Coulomb:
        alpha                          2.000000
        third order                    shell-resolved
        anisotropic                    true
        a3                             3.000000
        a5                             4.000000
        cn-shift                       1.200000
        cn-exp                         4.000000
        max-rad                        5.000000

      * Solvation model:               ALPB
        Solvent                        water
        Parameter file                 internal GFN2-xTB/ALPB
        Dielectric constant                8.0200E+01
        Reference state                gsolv=reference [X=1]
        Free energy shift                  2.8945E-03 Eh       1.8164E+00 kcal/mol
        Temperature                        2.9815E+02 K
        Density                            1.0000E+00 kg/L
        Solvent mass                       1.8000E+01 g/mol
        Interaction kernel             P16
        Born radius scaling (c1)           1.4744E+00
        Born radii integrator          GBOBC
        Born offset                        0.0000E+00 a0       0.0000E+00 AA
        H-bond correction              true
        Ion screening                  false
        Surface tension                    1.0000E-05 Eh       1.5569E+01 dyn/cm
        Grid points                               974 per atom

          ...................................................
          :                      SETUP                      :
          :.................................................:
          :  # basis functions                  60          :
          :  # atomic orbitals                  60          :
          :  # shells                           38          :
          :  # electrons                        62          :
          :  max. iterations                   250          :
          :  Hamiltonian                  GFN2-xTB          :
          :  restarted?                      false          :
          :  GBSA solvation                   true          :
          :  PC potential                    false          :
          :  electronic temp.          300.0000000     K    :
          :  accuracy                    1.0000000          :
          :  -> integral cutoff          0.2500000E+02      :
          :  -> integral neglect         0.1000000E-07      :
          :  -> SCF convergence          0.1000000E-05 Eh   :
          :  -> wf. convergence          0.1000000E-03 e    :
          :  Broyden damping             0.4000000          :
          :  net charge                          0          :
          :  unpaired electrons                  0          :
          ...................................................

 iter      E             dE          RMSdq      gap      omega  full diag
   1    -34.0755953 -0.340756E+02  0.328E+00    5.00       0.0  T
   2    -34.1011931 -0.255978E-01  0.190E+00    4.91       1.0  T
   3    -34.0934089  0.778421E-02  0.907E-01    4.85       1.0  T
   4    -34.1048106 -0.114017E-01  0.285E-01    4.80       1.0  T
   5    -34.1056588 -0.848136E-03  0.680E-02    4.84       1.0  T
   6    -34.1056730 -0.142245E-04  0.364E-02    4.84       1.0  T
   7    -34.1056737 -0.670544E-06  0.116E-02    4.84       1.7  T
   8    -34.1056754 -0.169891E-05  0.455E-03    4.84       4.2  T
   9    -34.1056756 -0.253833E-06  0.197E-03    4.84       9.7  T
  10    -34.1056756 -0.963654E-08  0.673E-04    4.84      28.6  T
  11    -34.1056756 -0.879659E-09  0.181E-04    4.84     106.6  T

   *** convergence criteria satisfied after 11 iterations ***

         #    Occupation            Energy/Eh            Energy/eV
      -------------------------------------------------------------
         1        2.0000           -0.6832211             -18.5914
       ...           ...                  ...                  ...
        25        2.0000           -0.4391048             -11.9487
        26        2.0000           -0.4314741             -11.7410
        27        2.0000           -0.4218443             -11.4790
        28        2.0000           -0.4076286             -11.0921
        29        2.0000           -0.4048030             -11.0153
        30        2.0000           -0.3839839             -10.4487
        31        2.0000           -0.3731813             -10.1548 (HOMO)
        32                         -0.1952523              -5.3131 (LUMO)
        33                         -0.1896511              -5.1607
        34                          0.0419336               1.1411
        35                          0.0684323               1.8621
        36                          0.0776686               2.1135
       ...                                ...                  ...
        60                          0.6510174              17.7151
      -------------------------------------------------------------
                  HL-Gap            0.1779290 Eh            4.8417 eV
             Fermi-level           -0.2842168 Eh           -7.7339 eV

 SCC (total)                   0 d,  0 h,  0 min,  0.039 sec
 SCC setup                      ...        0 min,  0.001 sec (  3.755%)
 Dispersion                     ...        0 min,  0.000 sec (  0.381%)
 classical contributions        ...        0 min,  0.000 sec (  0.069%)
 integral evaluation            ...        0 min,  0.002 sec (  5.955%)
 iterations                     ...        0 min,  0.027 sec ( 69.202%)
 molecular gradient             ...        0 min,  0.008 sec ( 20.290%)
 printout                       ...        0 min,  0.000 sec (  0.320%)

         :::::::::::::::::::::::::::::::::::::::::::::::::::::
         ::                     SUMMARY                     ::
         :::::::::::::::::::::::::::::::::::::::::::::::::::::
         :: total energy             -33.607286908085 Eh    ::
         :: total w/o Gsasa/hb       -33.604172756869 Eh    ::
         :: gradient norm              0.000038636399 Eh/a0 ::
         :: HOMO-LUMO gap              4.841694218522 eV    ::
         ::.................................................::
         :: SCC energy               -34.105400200636 Eh    ::
         :: -> isotropic ES            0.038119238431 Eh    ::
         :: -> anisotropic ES          0.006159070438 Eh    ::
         :: -> anisotropic XC          0.015632053387 Eh    ::
         :: -> dispersion             -0.023374344624 Eh    ::
         :: -> Gsolv                  -0.007327299892 Eh    ::
         ::    -> Gelec               -0.004213148677 Eh    ::
         ::    -> Gsasa               -0.000396534728 Eh    ::
         ::    -> Ghb                 -0.005612165648 Eh    ::
         ::    -> Gshift               0.002894549160 Eh    ::
         :: repulsion energy           0.498113292551 Eh    ::
         :: add. restraining           0.000000000000 Eh    ::
         :: total charge              -0.000000000000 e     ::
         :::::::::::::::::::::::::::::::::::::::::::::::::::::

           -------------------------------------------------
          |                Property Printout                |
           -------------------------------------------------

    * Orbital Energies and Occupations

         #    Occupation            Energy/Eh            Energy/eV
      -------------------------------------------------------------
         1        2.0000           -0.6832211             -18.5914
       ...           ...                  ...                  ...
        19        2.0000           -0.4736239             -12.8880
        20        2.0000           -0.4671626             -12.7121
        21        2.0000           -0.4651495             -12.6574
        22        2.0000           -0.4627916             -12.5932
        23        2.0000           -0.4587767             -12.4839
        24        2.0000           -0.4454387             -12.1210
        25        2.0000           -0.4391048             -11.9487
        26        2.0000           -0.4314741             -11.7410
        27        2.0000           -0.4218443             -11.4790
        28        2.0000           -0.4076286             -11.0921
        29        2.0000           -0.4048030             -11.0153
        30        2.0000           -0.3839839             -10.4487
        31        2.0000           -0.3731813             -10.1548 (HOMO)
        32                         -0.1952523              -5.3131 (LUMO)
        33                         -0.1896511              -5.1607
        34                          0.0419336               1.1411
        35                          0.0684323               1.8621
        36                          0.0776686               2.1135
        37                          0.0895297               2.4362
        38                          0.1071630               2.9161
        39                          0.1132106               3.0806
        40                          0.1251254               3.4048
        41                          0.1345095               3.6602
        42                          0.1530629               4.1651
       ...                                ...                  ...
        60                          0.6510174              17.7151
      -------------------------------------------------------------
                  HL-Gap            0.1779290 Eh            4.8417 eV
             Fermi-level           -0.2842168 Eh           -7.7339 eV

     #   Z          covCN         q      C6AA      α(0)
     1   6 C        3.758    -0.115    22.746     6.800
     2   6 C        2.942    -0.008    28.229     8.714
     3   6 C        2.897    -0.057    29.407     8.891
     4   6 C        3.810    -0.065    21.742     6.637
     5   6 C        3.861    -0.027    21.018     6.520
     6   1 H        0.924     0.043     2.414     2.430
     7   6 C        3.810    -0.072    21.866     6.656
     8   6 C        3.732     0.119    18.724     6.176
     9   1 H        0.922     0.011     2.871     2.650
    10   8 O        1.655    -0.514    23.191     6.501
    11   6 C        2.938     0.012    27.739     8.638
    12   6 C        2.847    -0.120    31.031     9.130
    13   6 C        3.759    -0.119    22.836     6.813
    14   1 H        0.925     0.042     2.428     2.437
    15   1 H        0.925     0.048     2.348     2.396
    16   1 H        0.925     0.060     2.198     2.318
    17   1 H        0.925     0.030     2.582     2.513
    18   1 H        0.924     0.048     2.348     2.396
    19   1 H        0.924     0.051     2.305     2.374
    20   1 H        0.924     0.046     2.372     2.408
    21   1 H        0.924     0.033     2.538     2.491
    22   1 H        0.805     0.345     0.600     1.217
    23   1 H        0.926     0.031     2.578     2.511
    24   1 H        0.926     0.026     2.650     2.546
    25   1 H        0.925     0.046     2.369     2.407
    26   1 H        0.925     0.054     2.266     2.354
    27   1 H        0.925     0.052     2.295     2.369

 Mol. C6AA /au·bohr⁶  :       6117.036478
 Mol. C8AA /au·bohr⁸  :     137274.257765
 Mol. α(0) /au        :        119.292579


Wiberg/Mayer (AO) data.
largest (>0.10) Wiberg bond orders for each atom

 ---------------------------------------------------------------------------
     #   Z sym  total        # sym  WBO       # sym  WBO       # sym  WBO
 ---------------------------------------------------------------------------
     1   6 C    3.996 --     2 C    1.026    14 H    0.985    15 H    0.971
                            16 H    0.969
     2   6 C    3.986 --     3 C    1.881     1 C    1.026     8 C    0.987
     3   6 C    3.988 --     2 C    1.881     4 C    1.025    17 H    0.965
     4   6 C    3.998 --     3 C    1.025     5 C    0.996    19 H    0.964
                            18 H    0.957
     5   6 C    3.995 --     4 C    0.996    11 C    0.994     7 C    0.980
                             6 H    0.960
     6   1 H    0.998 --     5 C    0.960
     7   6 C    3.996 --     8 C    0.988     5 C    0.980    21 H    0.975
                            20 H    0.975
     8   6 C    3.952 --     7 C    0.988     2 C    0.987    10 O    0.977
                             9 H    0.948
     9   1 H    1.000 --     8 C    0.948
    10   8 O    1.914 --     8 C    0.977    22 H    0.865
    11   6 C    3.986 --    12 C    1.927    13 C    1.029     5 C    0.994
    12   6 C    3.987 --    11 C    1.927    24 H    0.976    23 H    0.976
    13   6 C    3.996 --    11 C    1.029    25 H    0.983    27 H    0.970
                            26 H    0.964
    14   1 H    0.998 --     1 C    0.985
    15   1 H    0.998 --     1 C    0.971
    16   1 H    0.996 --     1 C    0.969
    17   1 H    0.999 --     3 C    0.965
    18   1 H    0.997 --     4 C    0.957
    19   1 H    0.997 --     4 C    0.964
    20   1 H    0.998 --     7 C    0.975
    21   1 H    0.999 --     7 C    0.975
    22   1 H    0.881 --    10 O    0.865
    23   1 H    0.999 --    12 C    0.976
    24   1 H    0.999 --    12 C    0.976
    25   1 H    0.998 --    13 C    0.983
    26   1 H    0.997 --    13 C    0.964
    27   1 H    0.997 --    13 C    0.970
 ---------------------------------------------------------------------------

Topologies differ in total number of bonds
Writing topology from bond orders to xtbtopo.mol

molecular dipole:
                 x           y           z       tot (Debye)
 q only:        0.391       0.111      -0.056
   full:        0.538      -0.043      -0.079       1.387
molecular quadrupole (traceless):
                xx          xy          yy          xz          yz          zz
 q only:       -5.964      -0.030       4.641      -0.618       1.254       1.323
  q+dip:       -8.524      -1.959       6.615      -0.380       1.109       1.909
   full:       -8.118      -1.124       6.337      -0.381       1.302       1.781


           -------------------------------------------------
          | TOTAL ENERGY              -33.607286908085 Eh   |
          | GRADIENT NORM               0.000038636399 Eh/α |
          | HOMO-LUMO GAP               4.841694218522 eV   |
           -------------------------------------------------

------------------------------------------------------------------------
 * finished run on 2025/04/06 at 20:05:01.427     
------------------------------------------------------------------------
 total:
 * wall-time:     0 d,  0 h,  0 min,  0.075 sec
 *  cpu-time:     0 d,  0 h,  0 min,  0.030 sec
 * ratio c/w:     0.399 speedup
 SCF:
 * wall-time:     0 d,  0 h,  0 min,  0.039 sec
 *  cpu-time:     0 d,  0 h,  0 min,  0.021 sec
 * ratio c/w:     0.533 speedup

