      -----------------------------------------------------------      
     |                   =====================                   |     
     |                           x T B                           |     
     |                   =====================                   |     
     |                         S. Grimme                         |     
     |          Mulliken Center for Theoretical Chemistry        |     
     |                    University of Bonn                     |     
      -----------------------------------------------------------      

   * xtb version 6.7.1 (edcfbbe) compiled by 'albert@albert-system' on 2024-07-22

   xtb is free software: you can redistribute it and/or modify it under
   the terms of the GNU Lesser General Public License as published by
   the Free Software Foundation, either version 3 of the License, or
   (at your option) any later version.
   
   xtb is distributed in the hope that it will be useful,
   but WITHOUT ANY WARRANTY; without even the implied warranty of
   MERCHANTABILITY or FITNESS FOR A PARTICULAR PURPOSE.  See the
   GNU Lesser General Public License for more details.
   
   Cite this work as:
   * C. Bannwarth, E. Caldeweyher, S. Ehlert, A. Hansen, P. Pracht,
     J. Seibert, S. Spicher, S. Grimme, WIREs Comput. Mol. Sci., 2020, 11,
     e01493. DOI: 10.1002/wcms.1493
   
   for GFN2-xTB:
   * C. Bannwarth, S. Ehlert and S. Grimme., J. Chem. Theory Comput., 2019,
     15, 1652-1671. DOI: 10.1021/acs.jctc.8b01176
   for GFN1-xTB:
   * S. Grimme, C. Bannwarth, P. Shushkov, J. Chem. Theory Comput., 2017,
     13, 1989-2009. DOI: 10.1021/acs.jctc.7b00118
   for GFN0-xTB:
   * P. Pracht, E. Caldeweyher, S. Ehlert, S. Grimme, ChemRxiv, 2019, preprint.
     DOI: 10.26434/chemrxiv.8326202.v1
   for GFN-FF:
   * S. Spicher and S. Grimme, Angew. Chem. Int. Ed., 2020, 59, 15665-15673.
     DOI: 10.1002/anie.202004239
   
   for ALPB and GBSA implicit solvation:
   * S. Ehlert, M. Stahn, S. Spicher, S. Grimme, J. Chem. Theory Comput.,
     2021, 17, 4250-4261. DOI: 10.1021/acs.jctc.1c00471
   
   for ddCOSMO and CPCM-X implicit solvation:
   * M. Stahn, S. Ehlert, S. Grimme, J. Phys. Chem. A,
     2023, XX, XXXX-XXXX. DOI: 10.1021/acs.jpca.3c04382
   
   for DFT-D4:
   * E. Caldeweyher, C. Bannwarth and S. Grimme, J. Chem. Phys., 2017,
     147, 034112. DOI: 10.1063/1.4993215
   * E. Caldeweyher, S. Ehlert, A. Hansen, H. Neugebauer, S. Spicher,
     C. Bannwarth and S. Grimme, J. Chem. Phys., 2019, 150, 154122.
     DOI: 10.1063/1.5090222
   * E. Caldeweyher, J.-M. Mewes, S. Ehlert and S. Grimme, Phys. Chem. Chem. Phys.
     2020, 22, 8499-8512. DOI: 10.1039/D0CP00502A
   
   for sTDA-xTB:
   * S. Grimme and C. Bannwarth, J. Chem. Phys., 2016, 145, 054103.
     DOI: 10.1063/1.4959605
   
   in the mass-spec context:
   * V. Asgeirsson, C. Bauer and S. Grimme, Chem. Sci., 2017, 8, 4879.
     DOI: 10.1039/c7sc00601b
   * J. Koopman and S. Grimme, ACS Omega 2019, 4, 12, 15120-15133.
     DOI: 10.1021/acsomega.9b02011
   
   for metadynamics refer to:
   * S. Grimme, J. Chem. Theory Comput., 2019, 155, 2847-2862
     DOI: 10.1021/acs.jctc.9b00143
   
   for SPH calculations refer to:
   * S. Spicher and S. Grimme, J. Chem. Theory Comput., 2021, 17, 1701-1714
     DOI: 10.1021/acs.jctc.0c01306
   
   for ONIOM refer to:
   * C. Plett, A. Katbashev, S. Ehlert, S. Grimme, M. Bursch,
     Phys. Chem. Chem. Phys., 2023, 25, 17860-17868. DOI: 10.1039/D3CP02178E
   
   for DIPRO refer to:
   * J. Kohn, N. Gildemeister, S. Grimme, D. Fazzi, A. Hansen,
     J. Chem. Phys., 2023, just accepted.
   
   for PTB refer to:
   * S. Grimme, M. Mueller, A. Hansen, J. Chem. Phys., 2023, 158, 124111.
     DOI: 10.1063/5.0137838
   
   with help from (in alphabetical order)
   P. Atkinson, C. Bannwarth, F. Bohle, G. Brandenburg, E. Caldeweyher
   M. Checinski, S. Dohm, S. Ehlert, S. Ehrlich, I. Gerasimov, C. Hölzer
   A. Katbashev, J. Kohn, J. Koopman, C. Lavigne, S. Lehtola, F. März, M. Müller,
   F. Musil, H. Neugebauer, J. Pisarek, C. Plett, P. Pracht, F. Pultar,
   J. Seibert, P. Shushkov, S. Spicher, M. Stahn, M. Steiner, T. Strunk,
   J. Stückrath, T. Rose, and J. Unsleber
   
 * started run on 2025/04/04 at 23:58:43.866     
   ID    Z sym.   atoms
    1    6 C      1-7
    2    7 N      8
    3    8 O      9, 10
    4    1 H      11-17

           -------------------------------------------------
          |                Calculation Setup                |
           -------------------------------------------------

          program call               : /srv/scratch/z5358697/.xtb/bin/xtb solv.coord --gfn2 --sp --chrg 0 --norestart --parallel 1 --alpb water reference -I xtb_sp-xcontrol-inp
          hostname                   : k147
          coordinate file            : solv.coord
          omp threads                :                     1


           -------------------------------------------------
          |                 G F N 2 - x T B                 |
           -------------------------------------------------

        Reference                      10.1021/acs.jctc.8b01176
      * Hamiltonian:
        H0-scaling (s, p, d)           1.850000    2.230000    2.230000
        zeta-weighting                 0.500000
      * Dispersion:
        s8                             2.700000
        a1                             0.520000
        a2                             5.000000
        s9                             5.000000
      * Repulsion:
        kExp                           1.500000    1.000000
        rExp                           1.000000
      * Coulomb:
        alpha                          2.000000
        third order                    shell-resolved
        anisotropic                    true
        a3                             3.000000
        a5                             4.000000
        cn-shift                       1.200000
        cn-exp                         4.000000
        max-rad                        5.000000

      * Solvation model:               ALPB
        Solvent                        water
        Parameter file                 internal GFN2-xTB/ALPB
        Dielectric constant                8.0200E+01
        Reference state                gsolv=reference [X=1]
        Free energy shift                  2.8945E-03 Eh       1.8164E+00 kcal/mol
        Temperature                        2.9815E+02 K
        Density                            1.0000E+00 kg/L
        Solvent mass                       1.8000E+01 g/mol
        Interaction kernel             P16
        Born radius scaling (c1)           1.4744E+00
        Born radii integrator          GBOBC
        Born offset                        0.0000E+00 a0       0.0000E+00 AA
        H-bond correction              true
        Ion screening                  false
        Surface tension                    1.0000E-05 Eh       1.5569E+01 dyn/cm
        Grid points                               974 per atom

          ...................................................
          :                      SETUP                      :
          :.................................................:
          :  # basis functions                  47          :
          :  # atomic orbitals                  47          :
          :  # shells                           27          :
          :  # electrons                        52          :
          :  max. iterations                   250          :
          :  Hamiltonian                  GFN2-xTB          :
          :  restarted?                      false          :
          :  GBSA solvation                   true          :
          :  PC potential                    false          :
          :  electronic temp.          300.0000000     K    :
          :  accuracy                    1.0000000          :
          :  -> integral cutoff          0.2500000E+02      :
          :  -> integral neglect         0.1000000E-07      :
          :  -> SCF convergence          0.1000000E-05 Eh   :
          :  -> wf. convergence          0.1000000E-03 e    :
          :  Broyden damping             0.4000000          :
          :  net charge                          0          :
          :  unpaired electrons                  0          :
          ...................................................

 iter      E             dE          RMSdq      gap      omega  full diag
   1    -29.8034504 -0.298035E+02  0.580E+00    3.06       0.0  T
   2    -29.9064155 -0.102965E+00  0.286E+00    2.60       1.0  T
   3    -29.9086410 -0.222553E-02  0.136E+00    2.48       1.0  T
   4    -29.9077511  0.889912E-03  0.612E-01    2.43       1.0  T
   5    -29.9110283 -0.327719E-02  0.828E-02    2.38       1.0  T
   6    -29.9110319 -0.359271E-05  0.439E-02    2.38       1.0  T
   7    -29.9110386 -0.672089E-05  0.161E-02    2.39       1.5  T
   8    -29.9110399 -0.127217E-05  0.493E-03    2.39       4.9  T
   9    -29.9110399 -0.224105E-07  0.207E-03    2.39      11.7  T
  10    -29.9110400 -0.177851E-07  0.783E-04    2.39      31.0  T
  11    -29.9110400 -0.331585E-08  0.367E-04    2.39      66.1  T

   *** convergence criteria satisfied after 11 iterations ***

         #    Occupation            Energy/Eh            Energy/eV
      -------------------------------------------------------------
         1        2.0000           -0.7778741             -21.1670
       ...           ...                  ...                  ...
        20        2.0000           -0.4655270             -12.6676
        21        2.0000           -0.4597189             -12.5096
        22        2.0000           -0.4585348             -12.4774
        23        2.0000           -0.4438263             -12.0771
        24        2.0000           -0.4395210             -11.9600
        25        2.0000           -0.4339318             -11.8079
        26        2.0000           -0.4165742             -11.3356 (HOMO)
        27                         -0.3287873              -8.9468 (LUMO)
        28                         -0.2429534              -6.6111
        29                         -0.2304288              -6.2703
        30                         -0.1121650              -3.0522
        31                          0.0002291               0.0062
       ...                                ...                  ...
        47                          0.6323301              17.2066
      -------------------------------------------------------------
                  HL-Gap            0.0877869 Eh            2.3888 eV
             Fermi-level           -0.3726807 Eh          -10.1412 eV

 SCC (total)                   0 d,  0 h,  0 min,  0.014 sec
 SCC setup                      ...        0 min,  0.001 sec (  6.933%)
 Dispersion                     ...        0 min,  0.000 sec (  0.741%)
 classical contributions        ...        0 min,  0.000 sec (  0.145%)
 integral evaluation            ...        0 min,  0.002 sec ( 11.879%)
 iterations                     ...        0 min,  0.006 sec ( 47.200%)
 molecular gradient             ...        0 min,  0.004 sec ( 31.827%)
 printout                       ...        0 min,  0.000 sec (  1.124%)

         :::::::::::::::::::::::::::::::::::::::::::::::::::::
         ::                     SUMMARY                     ::
         :::::::::::::::::::::::::::::::::::::::::::::::::::::
         :: total energy             -29.519988811877 Eh    ::
         :: total w/o Gsasa/hb       -29.522612488503 Eh    ::
         :: gradient norm              0.000068717794 Eh/a0 ::
         :: HOMO-LUMO gap              2.388803205374 eV    ::
         ::.................................................::
         :: SCC energy               -29.911007056562 Eh    ::
         :: -> isotropic ES            0.069451138918 Eh    ::
         :: -> anisotropic ES          0.002758127032 Eh    ::
         :: -> anisotropic XC          0.008280975945 Eh    ::
         :: -> dispersion             -0.013637833848 Eh    ::
         :: -> Gsolv                  -0.012283261977 Eh    ::
         ::    -> Gelec               -0.014906938603 Eh    ::
         ::    -> Gsasa                0.002585567017 Eh    ::
         ::    -> Ghb                 -0.002856439552 Eh    ::
         ::    -> Gshift               0.002894549160 Eh    ::
         :: repulsion energy           0.391018244685 Eh    ::
         :: add. restraining           0.000000000000 Eh    ::
         :: total charge               0.000000000000 e     ::
         :::::::::::::::::::::::::::::::::::::::::::::::::::::

           -------------------------------------------------
          |                Property Printout                |
           -------------------------------------------------

    * Orbital Energies and Occupations

         #    Occupation            Energy/Eh            Energy/eV
      -------------------------------------------------------------
         1        2.0000           -0.7778741             -21.1670
       ...           ...                  ...                  ...
        14        2.0000           -0.5237491             -14.2519
        15        2.0000           -0.5109991             -13.9050
        16        2.0000           -0.5043033             -13.7228
        17        2.0000           -0.4922249             -13.3941
        18        2.0000           -0.4814801             -13.1017
        19        2.0000           -0.4787917             -13.0286
        20        2.0000           -0.4655270             -12.6676
        21        2.0000           -0.4597189             -12.5096
        22        2.0000           -0.4585348             -12.4774
        23        2.0000           -0.4438263             -12.0771
        24        2.0000           -0.4395210             -11.9600
        25        2.0000           -0.4339318             -11.8079
        26        2.0000           -0.4165742             -11.3356 (HOMO)
        27                         -0.3287873              -8.9468 (LUMO)
        28                         -0.2429534              -6.6111
        29                         -0.2304288              -6.2703
        30                         -0.1121650              -3.0522
        31                          0.0002291               0.0062
        32                          0.1065199               2.8986
        33                          0.1183602               3.2207
        34                          0.1448141               3.9406
        35                          0.1695662               4.6141
        36                          0.1754021               4.7729
        37                          0.1959129               5.3311
       ...                                ...                  ...
        47                          0.6323301              17.2066
      -------------------------------------------------------------
                  HL-Gap            0.0877869 Eh            2.3888 eV
             Fermi-level           -0.3726807 Eh          -10.1412 eV

     #   Z          covCN         q      C6AA      α(0)
     1   6 C        3.759    -0.138    23.204     6.868
     2   6 C        2.965     0.038    27.150     8.547
     3   6 C        2.926    -0.027    28.666     8.780
     4   6 C        2.918    -0.027    28.678     8.782
     5   6 C        2.918    -0.024    28.611     8.771
     6   6 C        2.915     0.009    27.821     8.649
     7   6 C        2.924    -0.031    28.762     8.795
     8   7 N        2.762     0.560    13.376     5.432
     9   8 O        0.930    -0.451    22.683     6.387
    10   8 O        0.929    -0.449    22.650     6.383
    11   1 H        0.925     0.079     1.987     2.205
    12   1 H        0.925     0.063     2.168     2.302
    13   1 H        0.925     0.079     1.988     2.205
    14   1 H        0.926     0.083     1.953     2.185
    15   1 H        0.926     0.078     2.002     2.213
    16   1 H        0.926     0.079     1.985     2.203
    17   1 H        0.926     0.079     1.988     2.205

 Mol. C6AA /au·bohr⁶  :       3561.144106
 Mol. C8AA /au·bohr⁸  :      84833.309758
 Mol. α(0) /au        :         92.912112


Wiberg/Mayer (AO) data.
largest (>0.10) Wiberg bond orders for each atom

 ---------------------------------------------------------------------------
     #   Z sym  total        # sym  WBO       # sym  WBO       # sym  WBO
 ---------------------------------------------------------------------------
     1   6 C    3.989 --     2 C    1.034    12 H    0.984    13 H    0.964
                            11 H    0.964
     2   6 C    3.986 --     7 C    1.432     3 C    1.381     1 C    1.034
     3   6 C    3.985 --     4 C    1.437     2 C    1.381    14 H    0.965
     4   6 C    3.987 --     5 C    1.453     3 C    1.437    15 H    0.965
     5   6 C    3.985 --     4 C    1.453     6 C    1.356    16 H    0.962
     6   6 C    3.947 --     5 C    1.356     7 C    1.354     8 N    1.000
     7   6 C    3.985 --     2 C    1.432     6 C    1.354    17 H    0.959
     8   7 N    3.901 --    10 O    1.422     9 O    1.421     6 C    1.000
     9   8 O    1.884 --     8 N    1.421    10 O    0.321
    10   8 O    1.885 --     8 N    1.422     9 O    0.321
    11   1 H    0.993 --     1 C    0.964
    12   1 H    0.996 --     1 C    0.984
    13   1 H    0.993 --     1 C    0.964
    14   1 H    0.993 --     3 C    0.965
    15   1 H    0.993 --     4 C    0.965
    16   1 H    0.993 --     5 C    0.962
    17   1 H    0.994 --     7 C    0.959
 ---------------------------------------------------------------------------

Topologies differ in total number of bonds
Writing topology from bond orders to xtbtopo.mol

molecular dipole:
                 x           y           z       tot (Debye)
 q only:       -3.271      -0.640       0.000
   full:       -3.141      -0.642       0.000       8.150
molecular quadrupole (traceless):
                xx          xy          yy          xz          yz          zz
 q only:       -5.771      -3.595       4.015      -0.001      -0.003       1.756
  q+dip:       -5.463      -2.915       4.630      -0.002      -0.005       0.834
   full:       -7.014      -3.210       3.217      -0.002      -0.005       3.798


           -------------------------------------------------
          | TOTAL ENERGY              -29.519988811877 Eh   |
          | GRADIENT NORM               0.000068717794 Eh/α |
          | HOMO-LUMO GAP               2.388803205374 eV   |
           -------------------------------------------------

------------------------------------------------------------------------
 * finished run on 2025/04/04 at 23:58:43.912     
------------------------------------------------------------------------
 total:
 * wall-time:     0 d,  0 h,  0 min,  0.045 sec
 *  cpu-time:     0 d,  0 h,  0 min,  0.022 sec
 * ratio c/w:     0.502 speedup
 SCF:
 * wall-time:     0 d,  0 h,  0 min,  0.014 sec
 *  cpu-time:     0 d,  0 h,  0 min,  0.014 sec
 * ratio c/w:     0.990 speedup

