19
 energy: -26.300355988732 gnorm: 0.023898354467 xtb: 6.7.1 (edcfbbe)
C           -3.09515923538875        0.40745423500193        0.00038552384939
C           -1.63327046081689        0.05422406560432       -0.00016148002752
C           -1.20354204692531       -1.27241558880061       -0.00023938217606
C            0.15507650362014       -1.58514567133359       -0.00008902973907
C            1.09924393619705       -0.56471290408540        0.00006419754685
C            0.70819589698744        0.78212147308748        0.00014751856714
C           -0.65779487747097        1.05895923647283        0.00002325050938
C            1.73871798472711        1.87168996679570       -0.00007714415538
O            2.45698306109318       -0.82410930242764       -0.00007817035691
H           -3.36172963906706        0.99585416058753        0.88538607702357
H           -3.35900843671784        1.00981654251161       -0.87592023472588
H           -3.71652914793091       -0.49179613708984       -0.00746816964638
H           -1.93355833084904       -2.07706582090116       -0.00045809911169
H            0.48428874935634       -2.62118994801846       -0.00023837969636
H           -0.97178534928815        2.10073303822531        0.00005084523240
H            2.39085628563255        1.80425393708264        0.87777737015549
H            2.38705258721225        1.80734685667775       -0.88101028877036
H            1.25905392275147        2.85310257943897        0.00262073005893
H            2.58981227975410       -1.78226007953502       -0.00004943606956
19
 energy: -26.301386376918 gnorm: 0.010916114336 xtb: 6.7.1 (edcfbbe)
C           -3.08268049465511        0.40557223390890        0.00033026144013
C           -1.62521127240365        0.05620234425717       -0.00008963007626
C           -1.19824794760360       -1.26356236216188       -0.00018562983363
C            0.15289366223385       -1.57273901656004       -0.00014590988933
C            1.09709735543873       -0.55816203609328       -0.00004577600149
C            0.69845344709703        0.78354437893868        0.00005772197742
C           -0.65959280369597        1.05971528540549        0.00004360345753
C            1.72627870337263        1.86992471737657       -0.00006648734044
O            2.44637259367520       -0.82125414161841       -0.00006933850170
H           -3.33686484909658        0.99113461488511        0.88489594916415
H           -3.33427621597550        1.00508802750622       -0.87551193928674
H           -3.69756842939850       -0.49258095971784       -0.00749009531087
H           -1.92419700818224       -2.06543408471386       -0.00035129459556
H            0.47450534764717       -2.60587793651871       -0.00023622912603
H           -0.97659225919995        2.09493613941648        0.00009199582219
H            2.37093712662992        1.78311614672825        0.87584198519077
H            2.36723306293626        1.78630894700899       -0.87902153229508
H            1.25315677930800        2.85001874097494        0.00263578427917
H            2.58520688474902       -1.77909039972844       -0.00001774060624
19
 energy: -26.301496117541 gnorm: 0.003949026881 xtb: 6.7.1 (edcfbbe)
C           -3.08072155469031        0.40574639746515        0.00032103459870
C           -1.62374529545483        0.05572136855668       -0.00014096174902
C           -1.19679200589040       -1.26194776366729       -0.00019714789615
C            0.15312888050886       -1.56839933346078       -0.00013610723463
C            1.09843599711529       -0.55554560189061       -0.00004891746320
C            0.69334765600387        0.78390367429195        0.00003708471496
C           -0.66196383957117        1.06011457530475        0.00001013527036
C            1.72376247935114        1.86839511307971       -0.00005619179409
O            2.44235618524401       -0.81786863165005       -0.00008900518284
H           -3.32956113316696        0.99060546451278        0.88441437319060
H           -3.32704925064873        1.00454042285340       -0.87502589753360
H           -3.69387872901343       -0.49117985005661       -0.00746606941784
H           -1.92080834271642       -2.06333872189196       -0.00030156403749
H            0.47148454643060       -2.60104538474174       -0.00022562961191
H           -0.98103428042496        2.09271845454085        0.00008848720423
H            2.36513507056270        1.77408135346656        0.87517145252543
H            2.36155163144287        1.77728836496024       -0.87825758236364
H            1.25475128521417        2.84797453872009        0.00260734861861
H            2.58850438258041       -1.77490380109881       -0.00003914337047
19
 energy: -26.301509244279 gnorm: 0.001389005829 xtb: 6.7.1 (edcfbbe)
C           -3.08188053856619        0.40606674641480        0.00032678112452
C           -1.62438261035411        0.05513147307910       -0.00014792555992
C           -1.19696289083175       -1.26238740755296       -0.00019574100367
C            0.15349099859711       -1.56785173017324       -0.00014843482507
C            1.09958703909043       -0.55520259986026       -0.00006952833753
C            0.69190173835765        0.78387843302220        0.00002170397343
C           -0.66302480467833        1.06036791811370       -0.00000533030268
C            1.72443612030423        1.86775495242071       -0.00004940841418
O            2.44166222589175       -0.81587805351147       -0.00009000744473
H           -3.32952148926721        0.99104118919828        0.88445532770751
H           -3.32703430532572        1.00496296109499       -0.87505437848078
H           -3.69537883563420       -0.49042463080939       -0.00744161487295
H           -1.92043512597140       -2.06417396980983       -0.00029850472798
H            0.47110035986688       -2.60088728276735       -0.00021898105828
H           -0.98283816969904        2.09263400011507        0.00006026959320
H            2.36504513192288        1.77151302294928        0.87525302219949
H            2.36153846996118        1.77470755422469       -0.87827248182463
H            1.25724190518696        2.84788265822551        0.00258522454199
H            2.59235846402558       -1.77227459507950       -0.00004429381974
19
 energy: -26.301511950399 gnorm: 0.000829239891 xtb: 6.7.1 (edcfbbe)
C           -3.08343859700456        0.40638483252280        0.00034222543743
C           -1.62539731341097        0.05463039964526       -0.00016416221955
C           -1.19749896685502       -1.26289158300304       -0.00020662063684
C            0.15361979776913       -1.56792398613961       -0.00015480188218
C            1.10044969143554       -0.55547633609090       -0.00007271231333
C            0.69102616056619        0.78369524318556        0.00000882162155
C           -0.66372741894147        1.06057502331982       -0.00003168023722
C            1.72560135231702        1.86696604238201       -0.00004119269523
O            2.44139432264307       -0.81382611533085       -0.00009527421330
H           -3.33093351944599        0.99156110626924        0.88461035294685
H           -3.32847463231636        1.00545101197519       -0.87519106551523
H           -3.69769219752045       -0.48986652393959       -0.00739809994717
H           -1.92058752175704       -2.06532106769225       -0.00029896803483
H            0.47085354518802       -2.60153394824877       -0.00022576442252
H           -0.98396198986209        2.09293206126635        0.00002941906288
H            2.36590989844056        1.76987645426460        0.87551250645273
H            2.36253776032733        1.77300469433378       -0.87841345932150
H            1.25997704643770        2.84801118311639        0.00252310550688
H            2.59724626486609       -1.76938785254165       -0.00006693112141
19
 energy: -26.301512500076 gnorm: 0.000116534030 xtb: 6.7.1 (edcfbbe)
C           -3.08303520410415        0.40630128525941        0.00034311706053
C           -1.62522481033720        0.05485038910452       -0.00015422386175
C           -1.19748498646654       -1.26263333727043       -0.00020320058044
C            0.15344538268066       -1.56802864769444       -0.00016111792605
C            1.10005128499638       -0.55563546870863       -0.00007953761377
C            0.69132935587234        0.78368433766206        0.00000999912968
C           -0.66342847328789        1.06053059310884       -0.00002245063307
C            1.72532714791391        1.86700085126448       -0.00004115705730
O            2.44148221842153       -0.81420349004476       -0.00009621610450
H           -3.33087277267233        0.99142781946688        0.88458358678887
H           -3.32841483378193        1.00530644505626       -0.87517173777707
H           -3.69713379581300       -0.49009075468077       -0.00739166372442
H           -1.92066373186917       -2.06497411486299       -0.00030298936520
H            0.47078775778400       -2.60152428775173       -0.00023326792754
H           -0.98345956602269        2.09294887320206        0.00003349092313
H            2.36579455779651        1.77035795943579        0.87549523491291
H            2.36244683493562        1.77345394739282       -0.87837302752717
H            1.25928501052815        2.84791474734753        0.00249959871301
H            2.59667230630252       -1.76982650799254       -0.00006873896187
19
 energy: -26.301512521545 gnorm: 0.000035566389 xtb: 6.7.1 (edcfbbe)
C           -3.08299436098415        0.40630054278066        0.00034774895650
C           -1.62523531511654        0.05488162281107       -0.00015661796753
C           -1.19750476073979       -1.26256328035850       -0.00020824353342
C            0.15341618448740       -1.56802846845327       -0.00016433638264
C            1.09998595186820       -0.55567460614860       -0.00007946296141
C            0.69129705888940        0.78368716039385        0.00000867684930
C           -0.66341950716642        1.06054234447872       -0.00002423893981
C            1.72528199253435        1.86692980609073       -0.00003934055108
O            2.44142882134597       -0.81411197073022       -0.00010188331370
H           -3.33083909048636        0.99143391596330        0.88456712450225
H           -3.32839169829870        1.00528987231052       -0.87515782668095
H           -3.69705692793307       -0.49009926986457       -0.00737261279740
H           -1.92065759188426       -2.06491374930924       -0.00030453265437
H            0.47069806277394       -2.60151232216738       -0.00024297945392
H           -0.98345467979942        2.09294380395564        0.00003940604648
H            2.36571598926001        1.77027778211762        0.87550451228391
H            2.36243622084093        1.77331675353335       -0.87832278014539
H            1.25926935317095        2.84783860112164        0.00245309366231
H            2.59692798011428       -1.76967789923098       -0.00008000845115
