 Entering Gaussian System
 *********************************************
 Gaussian 98:
 frequency output generated by the xtb code
 *********************************************
                         Standard orientation:
 --------------------------------------------------------------------
  Center     Atomic     Atomic              Coordinates (Angstroms)
  Number     Number      Type              X           Y           Z
 --------------------------------------------------------------------
    1          6             0        1.579470    1.632862    0.842210
    2          6             0        0.279664    0.882055    1.197157
    3          1             0       -0.078374    1.267266    2.153738
    4          6             0        0.313346   -0.675373    1.279258
    5          1             0       -0.068988   -0.990815    2.252577
    6          6             0        1.650208   -1.401226    1.091217
    7          8             0        2.435505   -0.873853    0.050610
    8         16             0        3.655965    0.146399    0.572903
    9          8             0        4.450575   -0.568792    1.539608
   10          8             0        2.696702    1.110229    1.524432
   11          6             0       -0.736491   -1.089377    0.210886
   12          6             0       -0.204106   -0.690025   -1.149948
   13          6             0       -0.261763    0.647577   -1.214174
   14          6             0       -0.808784    1.136530    0.115072
   15          6             0       -1.813863    0.001110    0.406209
   16         17             0       -3.127800   -0.091287   -0.781992
   17         17             0       -2.531182    0.047631    2.010183
   18         17             0       -1.461369    2.762622    0.103669
   19         17             0        0.208124    1.673045   -2.476409
   20         17             0        0.376936   -1.791303   -2.288505
   21         17             0       -1.290775   -2.748498    0.339729
   22          1             0        1.470040    2.678468    1.138181
   23          1             0        1.765012    1.584944   -0.233383
   24          1             0        2.224388   -1.355593    2.023632
   25          1             0        1.449756   -2.451945    0.862459
 --------------------------------------------------------------------
     1 basis functions        1 primitive gaussians
     1 alpha electrons        1 beta electrons
 
 Harmonic frequencies (cm**-1), IR intensities (km*mol⁻¹),
 Raman scattering activities (A**4/amu), Raman depolarization ratios,
 reduced masses (AMU), force constants (mDyne/A) and normal coordinates:
                      1                      2                      3
                        a                      a                      a 
 Frequencies --    41.4602                60.4361                85.6214
 Red. masses --    24.4671                25.7910                30.8789
 Frc consts  --     0.0000                 0.0000                 0.0000
 IR Inten    --     4.3276                 0.3577                 0.9832
 Raman Activ --     0.0000                 0.0000                 0.0000
 Depolar     --     0.0000                 0.0000                 0.0000
 Atom AN      X      Y      Z        X      Y      Z        X      Y      Z
   1   6     0.07  -0.05  -0.23    -0.04   0.05   0.15    -0.03  -0.00  -0.06
   2   6     0.07   0.02  -0.12    -0.01  -0.06   0.01    -0.02  -0.01  -0.08
   3   1     0.05   0.02  -0.03    -0.02  -0.04   0.01    -0.00  -0.01  -0.02
   4   6     0.04   0.02  -0.07     0.05  -0.07  -0.10    -0.01  -0.02  -0.09
   5   1     0.01   0.02  -0.02     0.04  -0.04  -0.02     0.02  -0.01  -0.02
   6   6     0.03  -0.02  -0.00     0.08   0.01  -0.28    -0.02  -0.02  -0.21
   7   8     0.17  -0.05   0.09     0.09   0.31  -0.16    -0.03   0.11  -0.18
   8  16     0.21  -0.14   0.36     0.06   0.32   0.20    -0.03  -0.00   0.01
   9   8    -0.14  -0.07   0.51    -0.06   0.06   0.10    -0.18  -0.12   0.05
  10   8     0.02   0.09  -0.06    -0.06   0.06   0.20    -0.06   0.00  -0.04
  11   6     0.03   0.01  -0.05    -0.03  -0.05  -0.03    -0.07  -0.00  -0.05
  12   6    -0.04   0.03  -0.07    -0.07  -0.07  -0.05    -0.03  -0.01  -0.03
  13   6    -0.08   0.02  -0.08     0.03  -0.06  -0.01    -0.05  -0.01  -0.04
  14   6    -0.00   0.01  -0.05     0.04  -0.04  -0.02    -0.06  -0.00  -0.05
  15   6     0.02   0.00   0.01     0.01  -0.02   0.00    -0.04   0.01   0.02
  16  17    -0.07  -0.02   0.14    -0.06   0.06   0.08    -0.29   0.03   0.31
  17  17     0.19   0.01   0.08     0.11  -0.04   0.05     0.24   0.03   0.18
  18  17    -0.04   0.01   0.00     0.16  -0.04  -0.09    -0.12  -0.02  -0.11
  19  17    -0.37   0.06  -0.21     0.29  -0.15   0.04     0.20  -0.03   0.02
  20  17    -0.13   0.07  -0.18    -0.44  -0.17  -0.20     0.58   0.03   0.23
  21  17     0.09   0.01  -0.09    -0.13  -0.05   0.04    -0.22   0.02  -0.14
  22   1     0.01   0.00  -0.13    -0.03   0.00   0.07    -0.01  -0.00  -0.02
  23   1     0.03  -0.08  -0.06     0.01   0.05   0.05    -0.00  -0.00  -0.02
  24   1    -0.01  -0.02   0.01     0.02  -0.06  -0.08    -0.00  -0.04  -0.06
  25   1     0.00  -0.00  -0.01     0.03   0.02  -0.15    -0.01   0.00  -0.10
                      4                      5                      6
                        a                      a                      a 
 Frequencies --    94.9535               109.6603               113.4775
 Red. masses --    31.8573                24.3240                31.9619
 Frc consts  --     0.0000                 0.0000                 0.0000
 IR Inten    --     0.4853                 6.8810                 1.6678
 Raman Activ --     0.0000                 0.0000                 0.0000
 Depolar     --     0.0000                 0.0000                 0.0000
 Atom AN      X      Y      Z        X      Y      Z        X      Y      Z
   1   6    -0.00  -0.00   0.15    -0.04  -0.05  -0.04     0.02   0.02  -0.17
   2   6     0.01  -0.07   0.05    -0.02  -0.05  -0.00     0.04   0.04  -0.04
   3   1    -0.01  -0.03   0.01    -0.00  -0.01  -0.00     0.03   0.02  -0.01
   4   6     0.03  -0.07  -0.01    -0.06  -0.05   0.02     0.03   0.04  -0.03
   5   1     0.03  -0.03   0.00    -0.05  -0.01  -0.00     0.02   0.02  -0.00
   6   6     0.04  -0.03  -0.15    -0.02  -0.03   0.25     0.01   0.03  -0.07
   7   8     0.02   0.16  -0.10     0.09  -0.20   0.28     0.01   0.05  -0.08
   8  16     0.02   0.14   0.06    -0.02   0.12  -0.02     0.09  -0.06  -0.05
   9   8     0.01  -0.03  -0.05     0.31   0.42  -0.04    -0.13  -0.06   0.11
  10   8    -0.01  -0.03   0.15    -0.03   0.05  -0.00     0.07   0.13  -0.20
  11   6    -0.00  -0.02   0.02    -0.03  -0.04  -0.05    -0.01   0.00   0.01
  12   6     0.03  -0.03   0.03    -0.01  -0.03  -0.02    -0.02  -0.02   0.01
  13   6     0.00  -0.04   0.00    -0.00  -0.04  -0.02    -0.02  -0.01   0.01
  14   6     0.05  -0.02   0.03     0.00  -0.03  -0.01    -0.01   0.00   0.03
  15   6     0.01   0.01  -0.01    -0.01  -0.01  -0.00    -0.01  -0.00   0.00
  16  17     0.12   0.20  -0.14    -0.17   0.35   0.15     0.06   0.57  -0.16
  17  17    -0.10  -0.07  -0.07     0.13  -0.24   0.09    -0.12  -0.52  -0.05
  18  17     0.35   0.07   0.14     0.13  -0.00  -0.08    -0.20  -0.06   0.04
  19  17    -0.59  -0.12  -0.25     0.03  -0.11  -0.06     0.11  -0.02   0.09
  20  17     0.27  -0.11   0.21     0.01  -0.06  -0.04     0.01  -0.07   0.08
  21  17    -0.17   0.02   0.00    -0.24  -0.03  -0.31     0.05   0.01   0.34
  22   1    -0.01  -0.01   0.07    -0.02  -0.01  -0.04     0.00   0.01  -0.08
  23   1     0.00   0.03   0.04    -0.01  -0.04  -0.01    -0.01  -0.02  -0.05
  24   1     0.02  -0.05  -0.04    -0.04   0.05   0.09     0.01   0.00  -0.02
  25   1     0.01   0.00  -0.09     0.02  -0.02   0.12     0.00   0.01  -0.02
                      7                      8                      9
                        a                      a                      a 
 Frequencies --   120.1641               132.0370               134.7644
 Red. masses --    28.7840                34.8084                35.0307
 Frc consts  --     0.0000                 0.0000                 0.0000
 IR Inten    --     3.1180                 0.1617                 0.3034
 Raman Activ --     0.0000                 0.0000                 0.0000
 Depolar     --     0.0000                 0.0000                 0.0000
 Atom AN      X      Y      Z        X      Y      Z        X      Y      Z
   1   6    -0.00  -0.05  -0.24     0.02  -0.02   0.05     0.01  -0.01  -0.05
   2   6     0.05  -0.06  -0.07     0.01  -0.03   0.01     0.02  -0.01  -0.02
   3   1     0.05  -0.01  -0.01     0.00  -0.01   0.00     0.01  -0.00  -0.00
   4   6     0.03  -0.06  -0.06     0.01  -0.03  -0.01     0.01  -0.01  -0.02
   5   1     0.02  -0.01  -0.01     0.01  -0.01  -0.00     0.01  -0.00  -0.00
   6   6     0.06  -0.04  -0.07     0.02  -0.02  -0.03     0.02  -0.00  -0.04
   7   8     0.13  -0.00  -0.01     0.04   0.02  -0.00     0.03   0.02  -0.03
   8  16     0.17   0.07  -0.06     0.04   0.04   0.03     0.05   0.01  -0.02
   9   8     0.06   0.20   0.12     0.08   0.01  -0.04    -0.01   0.01   0.03
  10   8     0.07   0.18  -0.23     0.01  -0.05   0.08     0.03   0.04  -0.06
  11   6    -0.04  -0.02  -0.00    -0.00  -0.03  -0.00     0.00   0.01  -0.01
  12   6    -0.05  -0.01  -0.00    -0.00  -0.01   0.01     0.01  -0.01  -0.01
  13   6    -0.05  -0.01  -0.00     0.01  -0.01  -0.01     0.02  -0.00  -0.02
  14   6    -0.02  -0.02   0.02     0.02  -0.02   0.00     0.01  -0.02  -0.01
  15   6    -0.02  -0.01  -0.01     0.02  -0.00  -0.00    -0.00  -0.00  -0.00
  16  17     0.07  -0.28  -0.15     0.03   0.36  -0.04     0.02   0.05  -0.03
  17  17    -0.17   0.14  -0.10     0.01   0.45  -0.03    -0.01   0.07  -0.01
  18  17     0.05  -0.01   0.50    -0.47  -0.24   0.35     0.02  -0.04  -0.18
  19  17     0.16  -0.00   0.10     0.05  -0.25  -0.19    -0.12   0.48   0.32
  20  17     0.02  -0.06   0.09    -0.03  -0.10   0.08    -0.16  -0.53   0.40
  21  17    -0.45   0.08   0.00     0.22  -0.14  -0.23     0.12  -0.05  -0.32
  22   1    -0.02  -0.00  -0.12     0.00  -0.01   0.02    -0.00   0.00  -0.03
  23   1    -0.01  -0.06  -0.07     0.01  -0.00   0.01     0.00  -0.01  -0.02
  24   1     0.01  -0.02  -0.01     0.00  -0.01  -0.01     0.00  -0.00  -0.01
  25   1     0.02  -0.01  -0.03     0.01  -0.00  -0.02     0.01   0.00  -0.02
                     10                     11                     12
                        a                      a                      a 
 Frequencies --   136.6524               152.9137               169.3914
 Red. masses --    30.3889                30.1103                25.5700
 Frc consts  --     0.0000                 0.0000                 0.0000
 IR Inten    --     0.8428                 3.4598                 5.6710
 Raman Activ --     0.0000                 0.0000                 0.0000
 Depolar     --     0.0000                 0.0000                 0.0000
 Atom AN      X      Y      Z        X      Y      Z        X      Y      Z
   1   6     0.09  -0.05   0.11    -0.05  -0.11  -0.08    -0.06   0.07  -0.01
   2   6     0.03   0.00   0.01    -0.03  -0.11  -0.05     0.04  -0.07   0.11
   3   1     0.00  -0.01   0.00     0.00  -0.03  -0.01     0.01  -0.02   0.03
   4   6     0.06  -0.01  -0.03    -0.02  -0.10  -0.09     0.00  -0.09   0.12
   5   1     0.02  -0.01  -0.01     0.00  -0.03  -0.02    -0.00  -0.03   0.03
   6   6     0.06  -0.03  -0.05    -0.00  -0.10  -0.09     0.03  -0.00   0.10
   7   8     0.17  -0.05   0.01     0.11  -0.09  -0.01    -0.17   0.11   0.02
   8  16     0.18   0.00   0.07     0.03   0.05   0.02    -0.09  -0.00  -0.11
   9   8     0.28  -0.00  -0.08     0.13   0.16   0.02    -0.28  -0.02   0.09
  10   8     0.03  -0.20   0.17    -0.08  -0.07  -0.00     0.12   0.31  -0.19
  11   6     0.02   0.00  -0.00    -0.08  -0.10  -0.04     0.04  -0.11   0.07
  12   6     0.03  -0.01  -0.02    -0.10  -0.09  -0.07     0.08  -0.09   0.08
  13   6     0.04  -0.00   0.00    -0.07  -0.08  -0.01     0.09  -0.10   0.12
  14   6     0.03  -0.00  -0.01    -0.04  -0.10  -0.02     0.07  -0.10   0.09
  15   6     0.06   0.01  -0.01    -0.08  -0.05  -0.02     0.07  -0.06   0.07
  16  17     0.15  -0.01  -0.07    -0.24   0.19   0.02     0.29   0.13  -0.05
  17  17     0.10   0.04  -0.02    -0.20   0.33  -0.08     0.10   0.22   0.11
  18  17    -0.45  -0.20  -0.28     0.22  -0.07  -0.08     0.04  -0.24  -0.21
  19  17    -0.16   0.20   0.09    -0.08   0.17   0.27    -0.15  -0.06   0.23
  20  17     0.04   0.03  -0.09     0.21   0.10  -0.20     0.05   0.16  -0.23
  21  17    -0.44   0.18   0.23     0.22  -0.27   0.36    -0.21  -0.14  -0.14
  22   1     0.04  -0.02   0.04    -0.02  -0.03  -0.05    -0.06   0.01   0.00
  23   1     0.04  -0.01   0.03    -0.00  -0.06  -0.02    -0.05   0.03  -0.01
  24   1     0.01  -0.03  -0.01    -0.02  -0.04  -0.01     0.03   0.03   0.01
  25   1     0.01  -0.00  -0.03     0.00  -0.02  -0.04     0.04  -0.01   0.04
                     13                     14                     15
                        a                      a                      a 
 Frequencies --   179.2245               221.0859               233.9544
 Red. masses --    30.2296                23.5305                14.5809
 Frc consts  --     0.0000                 0.0000                 0.0000
 IR Inten    --     4.6406                 4.1824                 2.3847
 Raman Activ --     0.0000                 0.0000                 0.0000
 Depolar     --     0.0000                 0.0000                 0.0000
 Atom AN      X      Y      Z        X      Y      Z        X      Y      Z
   1   6     0.08  -0.05  -0.02     0.10   0.04   0.10    -0.11   0.29   0.36
   2   6     0.04   0.02   0.06     0.04   0.00   0.01    -0.03  -0.00   0.10
   3   1     0.03   0.00   0.02    -0.01   0.01  -0.01    -0.07  -0.05   0.03
   4   6     0.04   0.01   0.03    -0.05   0.02   0.04     0.08  -0.02  -0.04
   5   1     0.04  -0.00   0.02    -0.05   0.01   0.00     0.03  -0.03  -0.01
   6   6     0.07   0.04  -0.10     0.04   0.20   0.22     0.04  -0.12  -0.08
   7   8     0.13   0.10  -0.06    -0.12   0.28   0.14     0.15  -0.28  -0.09
   8  16     0.33  -0.03   0.00     0.19  -0.02   0.01     0.06  -0.18  -0.18
   9   8     0.17  -0.08   0.01     0.04  -0.28  -0.11    -0.12   0.24   0.28
  10   8     0.15  -0.01  -0.05     0.26   0.20   0.03     0.08  -0.01  -0.23
  11   6    -0.04   0.02   0.11     0.04  -0.02  -0.06     0.05   0.02  -0.02
  12   6    -0.07   0.03   0.12     0.08  -0.05  -0.08     0.06   0.02  -0.02
  13   6    -0.06   0.01   0.12     0.08  -0.04  -0.07     0.10   0.02   0.01
  14   6    -0.03   0.03   0.11     0.07  -0.05  -0.06     0.05   0.00   0.01
  15   6    -0.06   0.02   0.13     0.02  -0.03  -0.10     0.03   0.01  -0.02
  16  17    -0.03  -0.04   0.14    -0.38  -0.01   0.24    -0.12   0.00   0.16
  17  17    -0.55  -0.03   0.06    -0.16  -0.01  -0.27    -0.13   0.02  -0.11
  18  17    -0.03   0.08  -0.32     0.02  -0.16   0.12    -0.02  -0.05   0.00
  19  17     0.00  -0.25   0.05    -0.01   0.12  -0.05    -0.01   0.04  -0.10
  20  17    -0.05   0.24   0.11     0.07  -0.16  -0.18     0.01  -0.06  -0.01
  21  17     0.04  -0.05  -0.30    -0.09   0.03   0.05     0.01   0.10   0.03
  22   1     0.03  -0.01  -0.02     0.01   0.00   0.05    -0.03   0.03   0.31
  23   1     0.01  -0.03  -0.01     0.02   0.04   0.03    -0.09   0.30   0.08
  24   1     0.02  -0.02  -0.03     0.00   0.14   0.06     0.01  -0.05  -0.02
  25   1     0.02   0.02  -0.05     0.07   0.04   0.11    -0.02  -0.03  -0.02
                     16                     17                     18
                        a                      a                      a 
 Frequencies --   264.9459               294.3468               306.0911
 Red. masses --    26.6615                18.3084                23.9430
 Frc consts  --     0.0000                 0.0000                 0.0000
 IR Inten    --     1.0618                18.1784                 3.6403
 Raman Activ --     0.0000                 0.0000                 0.0000
 Depolar     --     0.0000                 0.0000                 0.0000
 Atom AN      X      Y      Z        X      Y      Z        X      Y      Z
   1   6    -0.07   0.05   0.19    -0.04   0.06   0.00    -0.06  -0.16  -0.12
   2   6    -0.13  -0.01   0.06    -0.08   0.14  -0.09    -0.04   0.01   0.15
   3   1    -0.06  -0.02   0.01    -0.04   0.04  -0.03     0.02   0.02   0.04
   4   6    -0.13   0.00  -0.03     0.08   0.15  -0.05     0.06   0.02   0.14
   5   1    -0.03  -0.02  -0.01     0.03   0.04  -0.01     0.05  -0.02   0.05
   6   6    -0.05   0.14   0.03     0.21   0.35   0.14     0.09   0.06  -0.04
   7   8     0.02   0.11   0.05     0.15  -0.07  -0.16     0.04  -0.01  -0.14
   8  16     0.33  -0.12  -0.05     0.06   0.03  -0.04     0.02   0.04  -0.04
   9   8     0.14  -0.06   0.06    -0.13  -0.07   0.05    -0.07   0.07   0.07
  10   8     0.15   0.04  -0.12    -0.22  -0.33  -0.01    -0.14  -0.19  -0.05
  11   6    -0.15  -0.03  -0.03     0.06  -0.02  -0.00     0.10   0.03   0.10
  12   6    -0.16  -0.00   0.01    -0.03  -0.12  -0.06     0.27   0.01   0.20
  13   6    -0.12  -0.00   0.04    -0.13  -0.12  -0.03     0.21  -0.01   0.20
  14   6    -0.12   0.02   0.00    -0.09   0.01  -0.05     0.02  -0.00   0.08
  15   6    -0.14  -0.01  -0.07     0.00  -0.02   0.05     0.02  -0.01  -0.12
  16  17    -0.18  -0.04  -0.43     0.13   0.06   0.03    -0.36   0.01  -0.05
  17  17     0.40   0.02   0.06    -0.09   0.04   0.11     0.23   0.01  -0.40
  18  17    -0.01   0.20  -0.01     0.01   0.16   0.10     0.01  -0.06  -0.01
  19  17    -0.05  -0.11   0.12    -0.05  -0.14   0.24    -0.11  -0.19   0.20
  20  17    -0.04   0.10   0.13     0.12  -0.21  -0.25    -0.11   0.11   0.08
  21  17     0.00  -0.23   0.02    -0.06   0.03  -0.10     0.03   0.20  -0.04
  22   1    -0.02  -0.01   0.14     0.04   0.01   0.05     0.02  -0.02  -0.11
  23   1    -0.06   0.11   0.05    -0.00   0.06   0.00    -0.03  -0.14  -0.03
  24   1    -0.04   0.08   0.02     0.06   0.26   0.03     0.05   0.02  -0.03
  25   1     0.02   0.03   0.03     0.11   0.06   0.20     0.02   0.02   0.00
                     19                     20                     21
                        a                      a                      a 
 Frequencies --   318.3394               338.2933               351.0649
 Red. masses --    24.6376                32.2480                21.7579
 Frc consts  --     0.0000                 0.0000                 0.0000
 IR Inten    --     6.0812                 0.8985                 9.7030
 Raman Activ --     0.0000                 0.0000                 0.0000
 Depolar     --     0.0000                 0.0000                 0.0000
 Atom AN      X      Y      Z        X      Y      Z        X      Y      Z
   1   6     0.12   0.16  -0.01     0.08   0.09  -0.01    -0.13  -0.28   0.02
   2   6     0.09   0.12  -0.06     0.09   0.04  -0.08    -0.16  -0.09   0.19
   3   1     0.03   0.04  -0.01     0.03  -0.00  -0.01    -0.04  -0.02   0.05
   4   6    -0.01   0.10  -0.01     0.08  -0.02  -0.04    -0.18  -0.08   0.07
   5   1    -0.01   0.06   0.00     0.03   0.02  -0.00    -0.06  -0.07   0.00
   6   6    -0.19  -0.21  -0.13     0.07  -0.06   0.02    -0.15   0.05  -0.07
   7   8    -0.05  -0.04   0.10     0.07  -0.10   0.01    -0.22   0.25  -0.04
   8  16    -0.08  -0.05   0.07    -0.11   0.05   0.02     0.15  -0.12  -0.08
   9   8     0.13   0.01  -0.07    -0.07  -0.05  -0.05     0.10   0.20   0.16
  10   8     0.12   0.19   0.06     0.02   0.07   0.06     0.00  -0.14  -0.12
  11   6    -0.00   0.07   0.00     0.03  -0.11   0.02    -0.01  -0.01  -0.05
  12   6     0.03  -0.12  -0.02    -0.02  -0.00   0.04     0.17  -0.01  -0.03
  13   6    -0.04  -0.13   0.07    -0.01   0.01   0.02     0.18   0.02   0.06
  14   6    -0.01   0.06   0.01     0.03   0.10  -0.02    -0.00   0.07   0.04
  15   6    -0.01   0.07  -0.01     0.13  -0.00  -0.03     0.02   0.04  -0.02
  16  17    -0.06  -0.04  -0.04     0.12   0.02   0.26     0.20  -0.00   0.19
  17  17     0.03  -0.01  -0.04     0.09  -0.02  -0.45    -0.04   0.01   0.03
  18  17    -0.11   0.22   0.06    -0.17   0.44  -0.01    -0.16   0.35   0.01
  19  17    -0.15  -0.29   0.39    -0.03  -0.01   0.06     0.01   0.06  -0.11
  20  17     0.13  -0.23  -0.28    -0.05   0.07   0.11     0.09  -0.24  -0.22
  21  17     0.11   0.24  -0.10    -0.17  -0.53   0.03     0.02  -0.06   0.06
  22   1     0.03   0.04   0.01     0.01   0.02   0.01    -0.02  -0.06  -0.05
  23   1     0.05   0.06   0.00     0.05   0.04  -0.00    -0.09  -0.14   0.00
  24   1    -0.06  -0.21  -0.03     0.02  -0.01   0.01    -0.03  -0.02  -0.03
  25   1    -0.14  -0.02  -0.16     0.02  -0.02   0.02    -0.03   0.02  -0.06
                     22                     23                     24
                        a                      a                      a 
 Frequencies --   371.2123               391.8997               405.3618
 Red. masses --    17.2940                21.9042                20.5160
 Frc consts  --     0.0000                 0.0000                 0.0000
 IR Inten    --     7.2107                 5.0471                 8.6052
 Raman Activ --     0.0000                 0.0000                 0.0000
 Depolar     --     0.0000                 0.0000                 0.0000
 Atom AN      X      Y      Z        X      Y      Z        X      Y      Z
   1   6    -0.25  -0.11   0.02    -0.04   0.17  -0.08     0.33  -0.13   0.05
   2   6    -0.10  -0.22   0.16    -0.05   0.19  -0.02     0.25  -0.09   0.01
   3   1    -0.02  -0.10   0.06    -0.01   0.07  -0.01     0.11  -0.04   0.02
   4   6     0.07  -0.23  -0.06     0.04   0.16   0.12     0.08  -0.11  -0.05
   5   1     0.01  -0.12  -0.04     0.05   0.08   0.06     0.01  -0.03  -0.02
   6   6     0.21  -0.12   0.08    -0.04  -0.00  -0.08     0.15  -0.02   0.07
   7   8     0.29  -0.20   0.09     0.14  -0.10  -0.01    -0.06  -0.01  -0.08
   8  16     0.01   0.15   0.05     0.04   0.03   0.08    -0.18   0.05  -0.14
   9   8    -0.10  -0.33  -0.20     0.07  -0.14  -0.09    -0.24   0.23   0.13
  10   8    -0.05   0.30  -0.04    -0.12   0.05  -0.05     0.31  -0.08   0.20
  11   6     0.05   0.00  -0.08     0.04  -0.03   0.14    -0.01  -0.01  -0.03
  12   6     0.03   0.05  -0.06     0.40  -0.02   0.20    -0.02   0.01  -0.04
  13   6     0.03   0.06   0.06     0.29  -0.02   0.06     0.12   0.04   0.07
  14   6    -0.06   0.01   0.09    -0.03   0.01  -0.04     0.10   0.05   0.09
  15   6    -0.02   0.00   0.00    -0.06  -0.04  -0.01    -0.02   0.05   0.03
  16  17    -0.04   0.01  -0.05    -0.21   0.01  -0.19    -0.29  -0.05  -0.27
  17  17    -0.02   0.04   0.08    -0.10   0.00   0.33    -0.08  -0.00   0.24
  18  17    -0.12   0.27  -0.06     0.01   0.06   0.06    -0.13   0.19  -0.04
  19  17     0.02  -0.02  -0.04     0.03   0.17  -0.17    -0.01   0.01  -0.05
  20  17     0.03  -0.12  -0.05     0.00  -0.07  -0.14     0.05  -0.08  -0.06
  21  17     0.08   0.21   0.05    -0.14  -0.34  -0.00    -0.01  -0.07   0.02
  22   1    -0.13  -0.02  -0.05     0.01   0.05  -0.02     0.08  -0.03  -0.02
  23   1    -0.10  -0.08   0.00    -0.01   0.04  -0.02     0.12  -0.07   0.02
  24   1     0.03   0.02   0.04     0.00  -0.10  -0.03     0.05   0.10   0.01
  25   1     0.10  -0.05   0.06    -0.09   0.03  -0.08     0.10  -0.03   0.09
                     25                     26                     27
                        a                      a                      a 
 Frequencies --   455.7537               496.5696               507.8469
 Red. masses --    13.8177                16.1944                18.1480
 Frc consts  --     0.0000                 0.0000                 0.0000
 IR Inten    --     4.8270                21.8012                50.9938
 Raman Activ --     0.0000                 0.0000                 0.0000
 Depolar     --     0.0000                 0.0000                 0.0000
 Atom AN      X      Y      Z        X      Y      Z        X      Y      Z
   1   6    -0.02  -0.01   0.03    -0.06   0.20  -0.14     0.06   0.03  -0.07
   2   6     0.01  -0.13  -0.14     0.10  -0.14  -0.24     0.07  -0.08  -0.22
   3   1    -0.03  -0.02  -0.06     0.07  -0.09  -0.03     0.04  -0.03  -0.05
   4   6     0.18  -0.14   0.22     0.06  -0.18  -0.25    -0.11  -0.10  -0.09
   5   1     0.06   0.00   0.08    -0.01  -0.03  -0.07    -0.07   0.02  -0.03
   6   6     0.18  -0.21   0.09     0.14  -0.01   0.03    -0.11  -0.17   0.12
   7   8    -0.15   0.21   0.08    -0.20   0.20  -0.08     0.07   0.14   0.41
   8  16     0.02  -0.08  -0.04    -0.14  -0.28   0.19     0.25   0.34  -0.20
   9   8     0.03   0.05   0.04     0.31   0.03  -0.00    -0.30  -0.10  -0.02
  10   8    -0.02  -0.08  -0.02    -0.23   0.03  -0.08    -0.10  -0.34  -0.13
  11   6     0.21  -0.07   0.18     0.03  -0.05  -0.17    -0.07  -0.01  -0.09
  12   6     0.27  -0.04   0.18     0.12   0.06  -0.03     0.08   0.00   0.01
  13   6    -0.48  -0.09  -0.26     0.28   0.06   0.12     0.21  -0.01   0.04
  14   6    -0.13  -0.08  -0.12     0.01  -0.01  -0.01     0.04   0.01  -0.09
  15   6     0.03  -0.12   0.04     0.03  -0.04  -0.05    -0.01   0.04  -0.06
  16  17    -0.09   0.07  -0.08    -0.02   0.00  -0.01     0.04  -0.01   0.03
  17  17    -0.00   0.02   0.01    -0.07   0.02   0.11    -0.04  -0.01   0.07
  18  17    -0.05   0.18  -0.02    -0.03   0.07  -0.01    -0.02   0.02   0.01
  19  17     0.08   0.08  -0.04    -0.06  -0.10   0.09    -0.05  -0.06   0.08
  20  17    -0.04   0.03  -0.02    -0.07   0.08   0.12    -0.05   0.07   0.07
  21  17    -0.00   0.11  -0.02     0.02   0.06   0.04     0.04   0.04   0.02
  22   1    -0.02  -0.03   0.08    -0.06   0.02   0.08     0.02  -0.03   0.11
  23   1     0.00   0.07   0.01     0.03   0.18  -0.04     0.04   0.14  -0.02
  24   1     0.09  -0.12   0.00     0.02   0.14   0.01    -0.08  -0.12   0.07
  25   1     0.05  -0.04  -0.05     0.15  -0.04   0.10    -0.02  -0.03  -0.08
                     28                     29                     30
                        a                      a                      a 
 Frequencies --   525.4111               560.2073               565.4246
 Red. masses --    14.6004                18.0710                16.6993
 Frc consts  --     0.0000                 0.0000                 0.0000
 IR Inten    --     3.4023               246.4570               130.9293
 Raman Activ --     0.0000                 0.0000                 0.0000
 Depolar     --     0.0000                 0.0000                 0.0000
 Atom AN      X      Y      Z        X      Y      Z        X      Y      Z
   1   6     0.06  -0.16   0.10     0.01   0.00   0.02     0.06   0.12  -0.08
   2   6    -0.10  -0.09  -0.19    -0.04   0.11   0.08     0.13   0.03   0.14
   3   1    -0.07  -0.02  -0.07     0.02   0.01   0.04     0.12  -0.02   0.08
   4   6    -0.21  -0.02  -0.19     0.06   0.11  -0.17    -0.05  -0.02  -0.04
   5   1    -0.05  -0.01  -0.05    -0.01  -0.00  -0.07    -0.07  -0.02  -0.04
   6   6    -0.15   0.14  -0.11     0.02   0.07  -0.02    -0.10  -0.05   0.03
   7   8     0.06  -0.22  -0.16     0.33   0.29   0.30    -0.27  -0.17  -0.12
   8  16     0.00   0.06  -0.01    -0.15  -0.32  -0.28     0.12   0.29   0.21
   9   8    -0.06   0.03   0.01    -0.08   0.06   0.01     0.04  -0.06  -0.02
  10   8     0.25   0.17   0.15    -0.08   0.04   0.17     0.02  -0.15  -0.19
  11   6    -0.06  -0.02  -0.14     0.13   0.02  -0.21     0.10   0.03  -0.19
  12   6     0.52   0.03   0.17     0.19   0.23  -0.10     0.21   0.27  -0.08
  13   6    -0.10  -0.03  -0.12    -0.17   0.21   0.07    -0.33   0.27   0.09
  14   6    -0.09  -0.02  -0.20    -0.12   0.03   0.16    -0.07   0.04   0.32
  15   6    -0.06  -0.02  -0.14     0.01  -0.12  -0.01     0.02  -0.09   0.06
  16  17     0.12   0.01   0.10    -0.00   0.01  -0.00    -0.03  -0.01  -0.03
  17  17    -0.04   0.01   0.08    -0.01   0.04   0.01     0.02   0.04  -0.04
  18  17     0.02  -0.02   0.02     0.07  -0.10  -0.03     0.05  -0.09  -0.06
  19  17    -0.05  -0.09   0.13    -0.01  -0.11   0.05     0.03  -0.08  -0.01
  20  17    -0.10   0.11   0.10    -0.01  -0.08   0.01     0.03  -0.15  -0.06
  21  17     0.02   0.04   0.04    -0.07  -0.10   0.04    -0.05  -0.10   0.05
  22   1    -0.03  -0.05   0.02     0.02   0.03  -0.08     0.05   0.02   0.05
  23   1     0.05  -0.04   0.03     0.01  -0.08   0.01    -0.01   0.08  -0.03
  24   1    -0.08   0.14  -0.01    -0.04  -0.08   0.02    -0.02   0.02  -0.00
  25   1    -0.00   0.01   0.08    -0.01   0.05  -0.14    -0.03  -0.03   0.07
                     31                     32                     33
                        a                      a                      a 
 Frequencies --   629.4367               645.8872               665.1693
 Red. masses --    14.2873                16.2251                20.2509
 Frc consts  --     0.0000                 0.0000                 0.0000
 IR Inten    --    24.3624                 9.9711               426.4568
 Raman Activ --     0.0000                 0.0000                 0.0000
 Depolar     --     0.0000                 0.0000                 0.0000
 Atom AN      X      Y      Z        X      Y      Z        X      Y      Z
   1   6     0.01  -0.04   0.05     0.14   0.08  -0.07     0.04  -0.15   0.02
   2   6    -0.15   0.14  -0.01     0.06  -0.06  -0.11    -0.02  -0.01   0.09
   3   1    -0.09   0.06  -0.03     0.12  -0.02   0.01    -0.03   0.01   0.01
   4   6     0.11   0.15   0.03    -0.12  -0.04  -0.04     0.00   0.07  -0.00
   5   1    -0.02   0.04  -0.01     0.01   0.01   0.02     0.01  -0.02  -0.01
   6   6    -0.02  -0.07   0.04    -0.10   0.11  -0.06     0.00   0.17  -0.07
   7   8    -0.20  -0.10  -0.06     0.13   0.01   0.03     0.23   0.13   0.13
   8  16     0.14   0.08  -0.02    -0.06  -0.02  -0.02    -0.47   0.09   0.31
   9   8    -0.03   0.01   0.02    -0.02   0.01  -0.00     0.09  -0.05  -0.06
  10   8     0.10   0.03   0.08     0.06  -0.02   0.05     0.33  -0.22  -0.48
  11   6     0.35  -0.18  -0.16    -0.17  -0.18   0.13     0.07  -0.04  -0.05
  12   6    -0.16  -0.00  -0.26    -0.03  -0.09   0.17     0.00  -0.06  -0.04
  13   6     0.21   0.01   0.03     0.05  -0.06   0.26    -0.00  -0.06  -0.07
  14   6    -0.15  -0.19  -0.10    -0.31  -0.22   0.25     0.05  -0.04  -0.05
  15   6     0.10  -0.52  -0.11    -0.24  -0.38   0.18     0.06  -0.08  -0.06
  16  17    -0.02   0.06  -0.01     0.08   0.03   0.05    -0.01   0.01  -0.01
  17  17    -0.06   0.06   0.10     0.10   0.03  -0.18    -0.02   0.01   0.04
  18  17     0.00   0.14   0.01     0.01   0.10  -0.02    -0.02   0.04   0.01
  19  17    -0.02  -0.04   0.04     0.07   0.16  -0.22    -0.01  -0.01   0.02
  20  17    -0.06   0.10   0.15     0.03  -0.05  -0.07    -0.03   0.06   0.06
  21  17    -0.04   0.08   0.01     0.05   0.21  -0.03    -0.01   0.02  -0.00
  22   1     0.04   0.01  -0.06     0.01  -0.00   0.06     0.08  -0.07   0.12
  23   1     0.00  -0.09   0.02     0.08   0.11  -0.02    -0.08   0.05  -0.01
  24   1     0.04  -0.10  -0.01    -0.06   0.07   0.00    -0.02  -0.04  -0.00
  25   1    -0.10   0.00  -0.02     0.02   0.02   0.00    -0.02   0.07  -0.09
                     34                     35                     36
                        a                      a                      a 
 Frequencies --   708.3866               757.3607               769.7852
 Red. masses --    14.0882                11.3004                12.7157
 Frc consts  --     0.0000                 0.0000                 0.0000
 IR Inten    --     9.2699                 4.5760                 5.3897
 Raman Activ --     0.0000                 0.0000                 0.0000
 Depolar     --     0.0000                 0.0000                 0.0000
 Atom AN      X      Y      Z        X      Y      Z        X      Y      Z
   1   6    -0.00  -0.14   0.04    -0.04  -0.14  -0.05    -0.15  -0.20   0.10
   2   6    -0.22   0.03  -0.25     0.10  -0.30  -0.27    -0.10   0.03  -0.16
   3   1    -0.09   0.03  -0.09     0.04  -0.01  -0.10    -0.07  -0.06  -0.03
   4   6     0.15   0.04   0.06    -0.14  -0.03   0.37     0.14   0.14  -0.38
   5   1     0.08   0.06   0.05    -0.02   0.01   0.12     0.04   0.08  -0.09
   6   6     0.24  -0.17   0.08    -0.19   0.28  -0.05    -0.08   0.00  -0.01
   7   8    -0.08   0.03  -0.01     0.16  -0.06  -0.07    -0.14  -0.02   0.10
   8  16    -0.07   0.04   0.07    -0.00  -0.03  -0.03     0.02   0.04   0.01
   9   8     0.01   0.00   0.01    -0.01   0.00  -0.00    -0.01  -0.00  -0.00
  10   8     0.23  -0.02  -0.05    -0.07   0.09   0.06     0.06   0.01  -0.04
  11   6    -0.08   0.18   0.12     0.19   0.01   0.12     0.09  -0.02   0.04
  12   6    -0.08   0.24   0.02    -0.13   0.25  -0.09     0.04  -0.04   0.09
  13   6     0.16   0.26   0.15     0.05   0.26   0.00     0.05  -0.05   0.07
  14   6    -0.39   0.11  -0.14     0.09   0.03  -0.06    -0.01   0.09  -0.02
  15   6    -0.29   0.11  -0.05     0.21  -0.07   0.13     0.26   0.06   0.67
  16  17     0.10   0.02   0.07    -0.07   0.01  -0.05    -0.11  -0.01  -0.12
  17  17     0.04  -0.01  -0.06    -0.02  -0.00   0.01     0.02  -0.00  -0.12
  18  17     0.07  -0.14   0.00    -0.01   0.01  -0.02     0.02  -0.03   0.01
  19  17    -0.03  -0.07   0.05    -0.02  -0.08   0.08     0.01   0.03  -0.03
  20  17     0.05  -0.13  -0.12     0.03  -0.08  -0.05     0.00  -0.00  -0.01
  21  17    -0.02  -0.09   0.01    -0.02  -0.02   0.01    -0.01  -0.01  -0.01
  22   1     0.02  -0.05   0.06    -0.16  -0.10   0.16    -0.04  -0.05   0.02
  23   1     0.02   0.01   0.01     0.08   0.18  -0.01    -0.05  -0.06   0.03
  24   1     0.11  -0.08  -0.00    -0.01  -0.02  -0.03    -0.06   0.02   0.02
  25   1     0.04  -0.04   0.00    -0.12   0.10  -0.07    -0.05  -0.00   0.03
                     37                     38                     39
                        a                      a                      a 
 Frequencies --   837.4813               872.8916               897.3384
 Red. masses --    10.7098                12.7041                12.0883
 Frc consts  --     0.0000                 0.0000                 0.0000
 IR Inten    --    10.6352                 3.7462                10.5229
 Raman Activ --     0.0000                 0.0000                 0.0000
 Depolar     --     0.0000                 0.0000                 0.0000
 Atom AN      X      Y      Z        X      Y      Z        X      Y      Z
   1   6    -0.15  -0.24   0.04     0.00   0.02   0.02     0.06  -0.00  -0.12
   2   6     0.21  -0.23  -0.05    -0.15   0.13  -0.11    -0.14   0.01  -0.05
   3   1     0.15  -0.14   0.05    -0.06  -0.01  -0.02     0.09   0.02   0.03
   4   6     0.32   0.34  -0.21    -0.10  -0.13  -0.14    -0.14  -0.10   0.12
   5   1     0.11   0.14  -0.04     0.03   0.02   0.01    -0.15  -0.08  -0.03
   6   6    -0.06   0.15   0.03    -0.06  -0.09  -0.09     0.03   0.03   0.06
   7   8    -0.15  -0.06   0.08     0.01   0.02   0.04     0.06  -0.01  -0.09
   8  16     0.05   0.01  -0.01    -0.01   0.01   0.00    -0.01  -0.01  -0.01
   9   8    -0.01   0.00  -0.00    -0.00  -0.00  -0.00     0.00   0.01   0.01
  10   8    -0.05   0.05   0.02     0.04  -0.01  -0.02     0.06   0.01   0.08
  11   6     0.10   0.05   0.08     0.07  -0.34   0.22     0.36  -0.04  -0.20
  12   6    -0.05  -0.11   0.08    -0.19   0.04   0.29     0.01  -0.28  -0.13
  13   6    -0.08  -0.08   0.12    -0.13   0.12   0.22    -0.03  -0.26   0.23
  14   6     0.01   0.01   0.19     0.06   0.38   0.01    -0.39   0.19   0.14
  15   6    -0.13   0.06  -0.42     0.35  -0.10  -0.35     0.11   0.40  -0.01
  16  17     0.03   0.00   0.05    -0.04   0.00  -0.01    -0.01  -0.01  -0.01
  17  17    -0.01   0.00   0.06    -0.04   0.00   0.09    -0.01  -0.00   0.01
  18  17    -0.01   0.00  -0.01     0.04  -0.09  -0.00     0.04  -0.08   0.01
  19  17     0.02   0.05  -0.06     0.02   0.04  -0.04     0.04   0.08  -0.10
  20  17     0.00  -0.00  -0.00     0.05  -0.09  -0.08    -0.04   0.07   0.08
  21  17    -0.02  -0.03  -0.02     0.03   0.09  -0.01    -0.00  -0.03   0.00
  22   1    -0.15  -0.11   0.12     0.04   0.02  -0.03    -0.01  -0.04   0.09
  23   1    -0.02   0.07   0.01    -0.01  -0.04   0.01     0.07   0.13  -0.03
  24   1    -0.01  -0.07   0.01    -0.07   0.12   0.00     0.05  -0.09  -0.01
  25   1    -0.17   0.07  -0.01     0.10  -0.06   0.06    -0.03   0.03  -0.07
                     40                     41                     42
                        a                      a                      a 
 Frequencies --   933.7530               976.6048              1008.9801
 Red. masses --    10.0441                 8.6459                10.0881
 Frc consts  --     0.0000                 0.0000                 0.0000
 IR Inten    --    19.2599                17.4789                10.0930
 Raman Activ --     0.0000                 0.0000                 0.0000
 Depolar     --     0.0000                 0.0000                 0.0000
 Atom AN      X      Y      Z        X      Y      Z        X      Y      Z
   1   6     0.04   0.15  -0.02     0.08   0.33   0.02    -0.02   0.09   0.13
   2   6     0.03  -0.09   0.13    -0.02  -0.25   0.05    -0.14   0.01  -0.34
   3   1     0.03  -0.10   0.07    -0.10  -0.16   0.01    -0.28   0.03  -0.19
   4   6     0.07  -0.15  -0.09     0.18  -0.15  -0.03     0.00  -0.06   0.04
   5   1     0.10  -0.13  -0.02     0.10  -0.18  -0.03     0.06   0.09   0.07
   6   6    -0.26   0.01  -0.27     0.05   0.41   0.03    -0.08  -0.01  -0.06
   7   8    -0.02  -0.00   0.18    -0.17  -0.16   0.13     0.03   0.01   0.02
   8  16     0.01   0.01  -0.01     0.02   0.00   0.01    -0.01   0.01   0.01
   9   8    -0.02  -0.00  -0.01    -0.01   0.01  -0.01     0.00  -0.01  -0.00
  10   8     0.03  -0.06   0.01     0.05  -0.10  -0.00     0.05  -0.04  -0.06
  11   6     0.43   0.33   0.31    -0.07  -0.24  -0.06     0.21  -0.09   0.03
  12   6    -0.08   0.01  -0.03    -0.04   0.07   0.13     0.03   0.02  -0.15
  13   6     0.10  -0.02  -0.15     0.02   0.09   0.01    -0.12   0.02   0.26
  14   6    -0.24  -0.07  -0.10    -0.13  -0.00  -0.16     0.33  -0.38   0.28
  15   6    -0.08   0.03  -0.04     0.02   0.16   0.01    -0.21   0.28  -0.04
  16  17     0.00   0.02   0.00     0.00  -0.00  -0.00     0.00  -0.01   0.01
  17  17     0.00  -0.00  -0.00    -0.00  -0.01   0.00     0.01  -0.01  -0.01
  18  17     0.00  -0.00   0.00     0.00  -0.01  -0.00    -0.04   0.06  -0.01
  19  17    -0.01  -0.02   0.03    -0.01  -0.01   0.01     0.02   0.02  -0.05
  20  17     0.00   0.01  -0.01     0.01  -0.03  -0.02    -0.01   0.00   0.02
  21  17    -0.04  -0.08  -0.00     0.02   0.04   0.00    -0.00  -0.00   0.00
  22   1     0.05   0.06  -0.08     0.08   0.15  -0.21     0.06   0.08  -0.14
  23   1    -0.01  -0.05  -0.01    -0.01  -0.17   0.01    -0.02  -0.16   0.04
  24   1    -0.19   0.28  -0.00     0.05  -0.22   0.00    -0.03   0.07  -0.01
  25   1     0.12  -0.08   0.14    -0.21   0.18  -0.19     0.03  -0.02   0.04
                     43                     44                     45
                        a                      a                      a 
 Frequencies --  1019.2555              1032.4341              1050.1758
 Red. masses --    10.4097                10.1629                12.5988
 Frc consts  --     0.0000                 0.0000                 0.0000
 IR Inten    --    87.2318                 8.7419               204.2907
 Raman Activ --     0.0000                 0.0000                 0.0000
 Depolar     --     0.0000                 0.0000                 0.0000
 Atom AN      X      Y      Z        X      Y      Z        X      Y      Z
   1   6     0.04   0.08   0.31    -0.11   0.08   0.14    -0.27   0.16  -0.26
   2   6     0.27  -0.14  -0.07     0.22  -0.12  -0.03    -0.14  -0.01   0.04
   3   1     0.02  -0.13  -0.00     0.03  -0.05  -0.01     0.05  -0.06   0.07
   4   6    -0.11   0.04  -0.05     0.14   0.15   0.21    -0.07   0.03  -0.20
   5   1    -0.25   0.11  -0.06     0.14   0.19   0.14    -0.13   0.06  -0.08
   6   6    -0.16  -0.11   0.32    -0.18  -0.14  -0.04    -0.08  -0.09   0.29
   7   8     0.21   0.14  -0.32     0.10   0.09  -0.03     0.12   0.10  -0.24
   8  16    -0.04   0.01   0.01    -0.03   0.02  -0.01    -0.06   0.04  -0.06
   9   8     0.04  -0.03   0.02     0.02  -0.02   0.02     0.06  -0.05   0.09
  10   8    -0.11   0.00  -0.17     0.04  -0.06  -0.04     0.31  -0.15   0.20
  11   6     0.22   0.06  -0.02    -0.34  -0.10  -0.08     0.03   0.01   0.16
  12   6    -0.07  -0.04   0.15     0.10  -0.01  -0.20    -0.08   0.11   0.17
  13   6     0.00  -0.01   0.07     0.01   0.01   0.07     0.08   0.08  -0.23
  14   6    -0.04   0.18  -0.16    -0.38  -0.14  -0.02    -0.01  -0.33   0.15
  15   6    -0.20  -0.10   0.05     0.41   0.15  -0.07     0.18   0.13  -0.08
  16  17     0.01   0.01   0.01    -0.02  -0.01  -0.01    -0.02  -0.00  -0.01
  17  17     0.01   0.00  -0.01    -0.02  -0.00   0.02    -0.00  -0.01   0.01
  18  17     0.01  -0.03   0.00     0.01   0.01  -0.00    -0.01   0.04  -0.00
  19  17     0.00   0.01  -0.01     0.00  -0.00  -0.01    -0.01  -0.03   0.03
  20  17     0.01  -0.02  -0.02    -0.02   0.02   0.03     0.02  -0.03  -0.04
  21  17    -0.01  -0.01  -0.00     0.02   0.01  -0.00    -0.00  -0.01  -0.00
  22   1     0.03   0.10  -0.19    -0.01   0.06  -0.12    -0.06   0.02  -0.01
  23   1    -0.07  -0.25   0.07    -0.06  -0.15   0.04    -0.00   0.07  -0.05
  24   1     0.01  -0.08   0.04    -0.03   0.16  -0.03     0.01  -0.10   0.05
  25   1    -0.06   0.00  -0.02     0.04  -0.09   0.16    -0.08   0.02  -0.03
                     46                     47                     48
                        a                      a                      a 
 Frequencies --  1057.9500              1066.0958              1083.5455
 Red. masses --    11.5817                12.2383                10.3083
 Frc consts  --     0.0000                 0.0000                 0.0000
 IR Inten    --    17.6616               170.5271                11.8251
 Raman Activ --     0.0000                 0.0000                 0.0000
 Depolar     --     0.0000                 0.0000                 0.0000
 Atom AN      X      Y      Z        X      Y      Z        X      Y      Z
   1   6     0.16  -0.17  -0.01     0.42  -0.17   0.21     0.06   0.03  -0.20
   2   6     0.07   0.08   0.23    -0.08   0.04  -0.03    -0.01  -0.16   0.18
   3   1     0.07   0.09   0.05    -0.06   0.03  -0.03    -0.27   0.11  -0.11
   4   6     0.07   0.10  -0.02    -0.07  -0.05  -0.15     0.16   0.14   0.06
   5   1     0.03   0.04   0.00    -0.08  -0.07  -0.08    -0.10  -0.17  -0.10
   6   6    -0.12  -0.10  -0.02     0.08   0.04   0.10    -0.09  -0.10  -0.02
   7   8     0.04   0.05  -0.03    -0.02  -0.02  -0.05     0.04   0.06  -0.02
   8  16     0.02  -0.00   0.01     0.04  -0.03   0.07    -0.01   0.01  -0.02
   9   8    -0.01   0.01  -0.02    -0.04   0.05  -0.08     0.01  -0.01   0.02
  10   8    -0.16   0.10  -0.05    -0.32   0.19  -0.20     0.02  -0.01   0.08
  11   6     0.18  -0.59  -0.07    -0.07   0.23   0.13     0.00   0.23  -0.29
  12   6    -0.07   0.14   0.14    -0.05   0.04   0.11    -0.10  -0.03   0.30
  13   6     0.07   0.15  -0.16     0.03   0.02  -0.06    -0.16   0.03   0.42
  14   6    -0.08  -0.17  -0.17    -0.18  -0.36   0.14     0.09  -0.19  -0.34
  15   6    -0.23   0.34   0.07     0.35   0.08  -0.13     0.10  -0.02   0.01
  16  17     0.02  -0.01   0.01    -0.02  -0.00  -0.01     0.00   0.00  -0.00
  17  17     0.01  -0.01  -0.01    -0.01  -0.00   0.02    -0.01   0.00   0.02
  18  17    -0.00   0.01   0.00    -0.00   0.04  -0.00    -0.01   0.03   0.00
  19  17    -0.01  -0.03   0.04     0.00  -0.00  -0.00     0.02   0.05  -0.06
  20  17     0.01  -0.03  -0.02     0.01  -0.02  -0.03     0.02  -0.04  -0.04
  21  17     0.01   0.06  -0.00    -0.00  -0.03  -0.00    -0.01  -0.03   0.00
  22   1     0.04  -0.08   0.13     0.14  -0.04   0.05    -0.01  -0.03   0.07
  23   1     0.01   0.10  -0.01     0.05  -0.01   0.03     0.01   0.11  -0.06
  24   1    -0.03   0.08  -0.01     0.01  -0.09   0.04    -0.03   0.08  -0.01
  25   1     0.00  -0.05   0.10    -0.04   0.04  -0.08    -0.03  -0.05   0.11
                     49                     50                     51
                        a                      a                      a 
 Frequencies --  1104.7095              1137.4801              1157.5739
 Red. masses --    10.1749                11.4058                11.5975
 Frc consts  --     0.0000                 0.0000                 0.0000
 IR Inten    --    40.8373                28.9510                93.0004
 Raman Activ --     0.0000                 0.0000                 0.0000
 Depolar     --     0.0000                 0.0000                 0.0000
 Atom AN      X      Y      Z        X      Y      Z        X      Y      Z
   1   6    -0.27   0.00   0.13     0.06   0.03   0.05    -0.22  -0.18   0.09
   2   6     0.31   0.11  -0.08    -0.20  -0.07  -0.19     0.26   0.45  -0.14
   3   1     0.14   0.11  -0.03    -0.02  -0.06  -0.02     0.09   0.17  -0.05
   4   6    -0.28   0.10   0.07     0.20   0.06   0.22     0.26  -0.42   0.03
   5   1    -0.27   0.08  -0.05     0.01  -0.08   0.01     0.10  -0.25  -0.02
   6   6     0.33   0.06  -0.28    -0.11  -0.05  -0.09    -0.23   0.14   0.11
   7   8    -0.13  -0.13   0.20     0.04   0.04   0.04     0.00  -0.02  -0.05
   8  16     0.02  -0.03   0.03     0.00   0.00   0.01    -0.08   0.11  -0.14
   9   8    -0.03   0.03  -0.04    -0.01   0.00  -0.01     0.15  -0.14   0.19
  10   8     0.07  -0.06   0.00    -0.01  -0.00  -0.04    -0.01   0.05   0.02
  11   6     0.13   0.03  -0.16     0.01   0.06  -0.43    -0.04   0.07  -0.10
  12   6    -0.13   0.03   0.28    -0.16  -0.03   0.39    -0.03   0.00   0.09
  13   6     0.03   0.04  -0.02     0.15  -0.05  -0.38    -0.00  -0.00   0.04
  14   6    -0.10  -0.21  -0.04     0.01   0.14   0.40    -0.05  -0.07  -0.02
  15   6     0.06   0.08  -0.01    -0.01  -0.06   0.01    -0.01   0.00  -0.04
  16  17    -0.00  -0.00  -0.00     0.00  -0.01   0.00     0.00  -0.00   0.00
  17  17    -0.00  -0.00   0.01     0.00   0.01  -0.00    -0.01   0.00   0.00
  18  17    -0.00   0.02   0.00     0.00  -0.01  -0.01     0.00   0.00   0.00
  19  17    -0.00   0.00  -0.00    -0.01  -0.01   0.03     0.00   0.01  -0.01
  20  17     0.02  -0.03  -0.04     0.02  -0.02  -0.03     0.00  -0.01  -0.01
  21  17    -0.01  -0.01   0.00    -0.00  -0.01   0.01     0.00  -0.00   0.01
  22   1    -0.11   0.03  -0.08     0.02   0.02  -0.04     0.08  -0.04   0.06
  23   1    -0.04  -0.09   0.04     0.06  -0.04   0.02    -0.09  -0.00   0.02
  24   1     0.03   0.01  -0.03     0.03   0.09  -0.06    -0.04  -0.03   0.02
  25   1     0.21  -0.00  -0.13    -0.07  -0.05   0.16    -0.04   0.05  -0.05
                     52                     53                     54
                        a                      a                      a 
 Frequencies --  1172.4379              1213.6991              1225.4251
 Red. masses --    19.5967                 2.9132                 2.5938
 Frc consts  --     0.0000                 0.0000                 0.0000
 IR Inten    --   355.9292                 6.4901                10.6476
 Raman Activ --     0.0000                 0.0000                 0.0000
 Depolar     --     0.0000                 0.0000                 0.0000
 Atom AN      X      Y      Z        X      Y      Z        X      Y      Z
   1   6     0.17   0.01   0.03    -0.01  -0.03  -0.16    -0.08  -0.03  -0.04
   2   6    -0.07  -0.15   0.03     0.11  -0.11   0.08    -0.07   0.04  -0.15
   3   1    -0.04  -0.04   0.00    -0.31  -0.07  -0.09     0.26  -0.33   0.20
   4   6    -0.13   0.15  -0.02     0.02  -0.07   0.01    -0.08   0.00   0.06
   5   1    -0.02   0.05   0.00     0.04   0.39   0.14    -0.11  -0.00  -0.02
   6   6     0.12  -0.02  -0.11    -0.04   0.07   0.06     0.06  -0.01  -0.11
   7   8    -0.09  -0.07   0.09    -0.04  -0.08  -0.05     0.03   0.04   0.08
   8  16    -0.24   0.27  -0.38     0.01  -0.01  -0.01     0.01  -0.02  -0.00
   9   8     0.40  -0.37   0.50    -0.01   0.01   0.00    -0.02   0.01  -0.02
  10   8    -0.11   0.05  -0.00    -0.02   0.08   0.12    -0.01   0.08   0.08
  11   6     0.03  -0.02   0.03     0.03   0.04  -0.12    -0.00   0.03   0.01
  12   6     0.00  -0.00  -0.02    -0.03  -0.02   0.07    -0.00   0.01  -0.00
  13   6     0.01  -0.00  -0.02     0.05  -0.02  -0.09    -0.04   0.02   0.09
  14   6    -0.00   0.01   0.02    -0.07   0.08   0.09     0.08  -0.10  -0.12
  15   6     0.01   0.00   0.01    -0.01  -0.02   0.01     0.01   0.01   0.01
  16  17    -0.00   0.00  -0.00     0.00  -0.00   0.00    -0.00   0.00  -0.00
  17  17     0.00  -0.00  -0.00     0.00   0.00  -0.00    -0.00  -0.00   0.00
  18  17    -0.00  -0.00  -0.00     0.00  -0.01  -0.00    -0.00   0.01   0.00
  19  17    -0.00  -0.00   0.00    -0.00  -0.00   0.01     0.00   0.00  -0.01
  20  17    -0.00   0.00   0.00     0.00   0.00  -0.00     0.00  -0.00  -0.00
  21  17    -0.00   0.00  -0.00    -0.00  -0.00   0.00     0.00  -0.00   0.00
  22   1    -0.00   0.01  -0.02     0.42  -0.03   0.17     0.55   0.01   0.14
  23   1     0.01  -0.00  -0.00    -0.32   0.03  -0.09    -0.31  -0.03  -0.05
  24   1     0.08   0.02  -0.06    -0.18  -0.01   0.12     0.23   0.00  -0.16
  25   1     0.03  -0.01   0.01     0.33   0.02  -0.29    -0.26  -0.01   0.25
                     55                     56                     57
                        a                      a                      a 
 Frequencies --  1233.6589              1257.5223              1288.7756
 Red. masses --     4.8978                 4.4903                 4.4768
 Frc consts  --     0.0000                 0.0000                 0.0000
 IR Inten    --    25.5736                 4.6825                 7.6414
 Raman Activ --     0.0000                 0.0000                 0.0000
 Depolar     --     0.0000                 0.0000                 0.0000
 Atom AN      X      Y      Z        X      Y      Z        X      Y      Z
   1   6     0.07   0.00   0.08     0.02   0.01  -0.00    -0.06   0.03   0.03
   2   6    -0.34   0.07  -0.03     0.06   0.01   0.15     0.07  -0.10  -0.11
   3   1     0.44  -0.23   0.29    -0.04   0.15  -0.04     0.11   0.07  -0.03
   4   6     0.09  -0.05   0.08    -0.26  -0.28  -0.20    -0.34   0.31  -0.02
   5   1     0.16   0.24   0.15     0.43   0.41   0.29     0.58  -0.47   0.08
   6   6    -0.09   0.03   0.07     0.05   0.03   0.01     0.11  -0.13   0.14
   7   8    -0.02  -0.05  -0.05     0.02   0.04   0.04    -0.01   0.02  -0.08
   8  16    -0.01   0.02  -0.00     0.00  -0.01   0.01     0.00  -0.00   0.00
   9   8     0.02  -0.02   0.02    -0.01   0.01  -0.01    -0.00   0.00  -0.00
  10   8    -0.00   0.00  -0.06    -0.00  -0.02  -0.01     0.01   0.01   0.02
  11   6     0.02   0.10  -0.20     0.12   0.15  -0.18     0.08  -0.00  -0.07
  12   6    -0.04  -0.00   0.09    -0.07  -0.02   0.13    -0.03  -0.00   0.04
  13   6    -0.08   0.02   0.14    -0.00  -0.02   0.01     0.00  -0.00   0.00
  14   6     0.14  -0.15  -0.21    -0.04  -0.03  -0.04     0.01  -0.01   0.01
  15   6     0.02   0.01   0.03     0.02  -0.02   0.01     0.02   0.01   0.01
  16  17     0.00  -0.00  -0.00    -0.00   0.00  -0.00    -0.00  -0.00  -0.00
  17  17    -0.01  -0.00   0.01    -0.01   0.00   0.00    -0.01   0.00   0.00
  18  17    -0.01   0.01   0.01     0.00   0.00   0.00    -0.00   0.00  -0.00
  19  17     0.01   0.01  -0.02     0.00   0.01  -0.01     0.00   0.00  -0.00
  20  17     0.01  -0.01  -0.01     0.01  -0.01  -0.01     0.00  -0.00  -0.00
  21  17    -0.00  -0.01   0.00    -0.00  -0.01   0.01    -0.00  -0.00   0.00
  22   1    -0.08   0.02  -0.06    -0.11  -0.00  -0.01     0.15   0.02   0.02
  23   1     0.18  -0.00   0.05     0.04   0.01   0.01    -0.13  -0.04  -0.01
  24   1    -0.16   0.00   0.10     0.24  -0.07  -0.13    -0.18  -0.01   0.16
  25   1     0.29   0.01  -0.23    -0.30   0.02   0.20     0.03  -0.00  -0.09
                     58                     59                     60
                        a                      a                      a 
 Frequencies --  1298.6337              1335.7204              1342.8277
 Red. masses --     3.4510                 2.9031                 3.0066
 Frc consts  --     0.0000                 0.0000                 0.0000
 IR Inten    --     2.6446                 5.5853                 0.4367
 Raman Activ --     0.0000                 0.0000                 0.0000
 Depolar     --     0.0000                 0.0000                 0.0000
 Atom AN      X      Y      Z        X      Y      Z        X      Y      Z
   1   6    -0.17   0.06   0.09    -0.23  -0.04  -0.02    -0.20  -0.07  -0.02
   2   6    -0.16  -0.34   0.04     0.09  -0.01   0.06     0.11   0.10   0.06
   3   1     0.34   0.64  -0.14    -0.14  -0.11  -0.00    -0.20  -0.27   0.05
   4   6     0.12  -0.05  -0.08    -0.07   0.11  -0.06    -0.04  -0.05   0.08
   5   1    -0.11   0.11  -0.04     0.10  -0.11  -0.01    -0.03   0.06   0.04
   6   6     0.02   0.01  -0.03    -0.23   0.02   0.10     0.26  -0.04  -0.09
   7   8    -0.01   0.00  -0.01     0.01  -0.04   0.06    -0.01   0.04  -0.05
   8  16    -0.00   0.01  -0.01     0.02  -0.01   0.01    -0.02   0.02  -0.03
   9   8     0.01  -0.01   0.01    -0.01   0.01  -0.01     0.02  -0.03   0.03
  10   8    -0.00   0.04  -0.03    -0.02   0.04  -0.07    -0.02   0.04  -0.07
  11   6    -0.01  -0.00   0.04     0.01   0.00   0.02     0.00  -0.01  -0.02
  12   6     0.01  -0.01  -0.01     0.00  -0.01   0.00    -0.00  -0.01  -0.00
  13   6    -0.01  -0.00   0.00    -0.00  -0.00  -0.00    -0.00  -0.00  -0.00
  14   6     0.04   0.05   0.00    -0.01   0.00   0.01    -0.02  -0.00  -0.00
  15   6     0.00  -0.01   0.00     0.00  -0.00  -0.00    -0.01   0.00   0.00
  16  17    -0.00   0.00  -0.00    -0.00   0.00  -0.00     0.00  -0.00   0.00
  17  17    -0.00  -0.00   0.00     0.00   0.00  -0.00     0.00   0.00  -0.00
  18  17    -0.00   0.00  -0.00    -0.00   0.00  -0.00     0.00   0.00   0.00
  19  17    -0.00   0.00  -0.00    -0.00   0.00  -0.00    -0.00   0.00  -0.00
  20  17    -0.00   0.00   0.00    -0.00   0.00   0.00    -0.00   0.00   0.00
  21  17     0.00   0.00  -0.00    -0.00  -0.00  -0.00     0.00   0.00   0.00
  22   1     0.39   0.07  -0.00     0.28   0.01   0.03     0.22   0.01   0.01
  23   1     0.17  -0.03   0.06     0.53   0.01   0.09     0.53   0.04   0.09
  24   1    -0.09   0.03   0.05     0.45  -0.04  -0.28    -0.42   0.05   0.27
  25   1    -0.06   0.01   0.00     0.33  -0.04  -0.10    -0.33   0.04   0.09
                     61                     62                     63
                        a                      a                      a 
 Frequencies --  1445.8487              1457.3686              1600.1764
 Red. masses --     1.7542                 1.7046                12.0754
 Frc consts  --     0.0000                 0.0000                 0.0000
 IR Inten    --     1.1418                 7.6068                43.1341
 Raman Activ --     0.0000                 0.0000                 0.0000
 Depolar     --     0.0000                 0.0000                 0.0000
 Atom AN      X      Y      Z        X      Y      Z        X      Y      Z
   1   6     0.02   0.20  -0.14     0.00  -0.03   0.02     0.00  -0.00  -0.00
   2   6    -0.01   0.03  -0.01    -0.00   0.01  -0.00    -0.01   0.01  -0.01
   3   1     0.03   0.02   0.00    -0.00  -0.01   0.00     0.00   0.00  -0.00
   4   6     0.01  -0.02   0.00     0.01  -0.03   0.01    -0.00  -0.01  -0.01
   5   1    -0.01   0.00  -0.00    -0.01   0.01   0.00     0.00  -0.00  -0.00
   6   6     0.01  -0.03   0.02     0.05  -0.19   0.12     0.00  -0.00   0.00
   7   8    -0.00  -0.00   0.01    -0.02  -0.03   0.05    -0.00   0.00  -0.00
   8  16    -0.00  -0.00  -0.01     0.01   0.00   0.02     0.00  -0.00   0.00
   9   8     0.01  -0.01   0.01    -0.00   0.00  -0.01    -0.00   0.00  -0.00
  10   8    -0.02   0.02  -0.03     0.01  -0.01   0.00     0.00  -0.00   0.00
  11   6    -0.00   0.00  -0.00    -0.00  -0.00  -0.01    -0.00   0.03   0.01
  12   6     0.00  -0.01  -0.00    -0.00   0.00   0.00     0.05  -0.70  -0.00
  13   6    -0.00   0.00   0.00     0.00  -0.01   0.00    -0.01   0.70  -0.07
  14   6     0.00  -0.00  -0.00    -0.00   0.00  -0.00    -0.00  -0.03   0.01
  15   6    -0.00   0.00   0.00    -0.00   0.00  -0.00    -0.01   0.00   0.02
  16  17     0.00   0.00  -0.00     0.00  -0.00   0.00    -0.00   0.00  -0.00
  17  17    -0.00  -0.00   0.00     0.00  -0.00  -0.00     0.00  -0.00  -0.00
  18  17     0.00   0.00   0.00     0.00  -0.00   0.00     0.00  -0.01  -0.01
  19  17    -0.00  -0.00  -0.00     0.00   0.00  -0.00    -0.01  -0.02   0.02
  20  17    -0.00   0.00   0.00    -0.00   0.00   0.00    -0.01   0.03   0.02
  21  17     0.00   0.00   0.00     0.00   0.00   0.00     0.00   0.01  -0.01
  22   1    -0.14  -0.18   0.62     0.01   0.03  -0.10    -0.00   0.00  -0.00
  23   1     0.10  -0.67   0.04    -0.03   0.11  -0.01    -0.01   0.01  -0.00
  24   1     0.01   0.11  -0.01     0.16   0.68  -0.13     0.00   0.00  -0.00
  25   1    -0.06   0.03  -0.09    -0.32   0.17  -0.53    -0.00   0.00  -0.00
                     64                     65                     66
                        a                      a                      a 
 Frequencies --  2931.8652              2961.5130              2963.3010
 Red. masses --     1.8383                 1.6409                 1.8456
 Frc consts  --     0.0000                 0.0000                 0.0000
 IR Inten    --    11.6406                14.3513                10.6763
 Raman Activ --     0.0000                 0.0000                 0.0000
 Depolar     --     0.0000                 0.0000                 0.0000
 Atom AN      X      Y      Z        X      Y      Z        X      Y      Z
   1   6    -0.00   0.00   0.00    -0.01   0.02   0.06    -0.05   0.09   0.23
   2   6    -0.00   0.00  -0.00     0.01  -0.01  -0.03     0.02  -0.03  -0.07
   3   1    -0.00   0.00   0.00    -0.04   0.04   0.11    -0.10   0.10   0.27
   4   6     0.01   0.01  -0.01    -0.02  -0.01   0.05    -0.01  -0.01   0.02
   5   1    -0.02  -0.02   0.06     0.07   0.06  -0.19     0.02   0.02  -0.06
   6   6     0.15   0.07   0.22     0.01   0.22   0.02    -0.00  -0.07  -0.00
   7   8    -0.00  -0.00   0.01     0.01   0.01  -0.01    -0.00  -0.00   0.00
   8  16     0.00   0.00   0.00    -0.00   0.00  -0.00     0.00  -0.00   0.00
   9   8    -0.00   0.00  -0.00    -0.00  -0.00   0.00    -0.00   0.00   0.00
  10   8     0.00  -0.00  -0.00     0.00  -0.00   0.00     0.00  -0.00   0.01
  11   6    -0.00  -0.00  -0.00     0.00   0.00   0.00    -0.00  -0.00   0.00
  12   6    -0.00   0.00   0.00     0.00   0.00  -0.00     0.00  -0.00   0.00
  13   6     0.00   0.00  -0.00     0.00   0.00  -0.00     0.00   0.00  -0.00
  14   6     0.00   0.00   0.00     0.00  -0.00  -0.00     0.00  -0.00  -0.00
  15   6     0.00   0.00   0.00     0.00   0.00   0.00     0.00  -0.00   0.00
  16  17    -0.00  -0.00  -0.00    -0.00  -0.00   0.00    -0.00   0.00  -0.00
  17  17    -0.00  -0.00   0.00    -0.00   0.00  -0.00    -0.00   0.00   0.00
  18  17    -0.00   0.00  -0.00    -0.00   0.00   0.00    -0.00   0.00   0.00
  19  17     0.00   0.00  -0.00     0.00  -0.00   0.00     0.00  -0.00   0.00
  20  17     0.00  -0.00  -0.00     0.00  -0.00  -0.00    -0.00   0.00   0.00
  21  17    -0.00  -0.00   0.00    -0.00  -0.00   0.00     0.00   0.00  -0.00
  22   1     0.00  -0.01  -0.00     0.00  -0.05  -0.01     0.02  -0.28  -0.06
  23   1     0.00   0.00  -0.00     0.04  -0.01  -0.21     0.13  -0.04  -0.81
  24   1    -0.49  -0.04  -0.80     0.10   0.04   0.17    -0.03  -0.01  -0.05
  25   1    -0.02  -0.20  -0.02    -0.17  -0.85  -0.20     0.05   0.25   0.06
                     67                     68                     69
                        a                      a                      a 
 Frequencies --  2971.1848              2976.4188              2984.4085
 Red. masses --     1.7568                 1.5817                 1.8321
 Frc consts  --     0.0000                 0.0000                 0.0000
 IR Inten    --     2.2237                10.5581                 7.4959
 Raman Activ --     0.0000                 0.0000                 0.0000
 Depolar     --     0.0000                 0.0000                 0.0000
 Atom AN      X      Y      Z        X      Y      Z        X      Y      Z
   1   6    -0.01  -0.01   0.07    -0.00   0.22  -0.01     0.02  -0.06  -0.07
   2   6    -0.03   0.04   0.08     0.01  -0.00  -0.02     0.08  -0.08  -0.20
   3   1     0.11  -0.12  -0.31    -0.03   0.03   0.08    -0.27   0.29   0.73
   4   6     0.08   0.07  -0.20     0.02   0.02  -0.05     0.04   0.03  -0.10
   5   1    -0.29  -0.23   0.74    -0.07  -0.06   0.19    -0.13  -0.10   0.34
   6   6    -0.00   0.04  -0.01    -0.00   0.01  -0.00    -0.00   0.01  -0.01
   7   8     0.00   0.00  -0.00     0.00   0.00  -0.00     0.00   0.00  -0.00
   8  16     0.00   0.00  -0.00     0.00  -0.00  -0.00     0.00   0.00  -0.00
   9   8     0.00  -0.00   0.00    -0.00  -0.00   0.00     0.00  -0.00   0.00
  10   8     0.00  -0.00   0.00    -0.01   0.01  -0.00     0.00  -0.00  -0.00
  11   6     0.00   0.00  -0.01     0.00   0.00  -0.00     0.00   0.00  -0.00
  12   6    -0.00  -0.00   0.00    -0.00   0.00   0.00     0.00  -0.00   0.00
  13   6     0.00  -0.00  -0.00    -0.00   0.00   0.00    -0.00   0.00   0.00
  14   6     0.00   0.00   0.00     0.00   0.00  -0.00     0.00  -0.00  -0.01
  15   6     0.00   0.00  -0.00     0.00   0.00  -0.00     0.00  -0.00  -0.00
  16  17    -0.00   0.00  -0.00     0.00  -0.00  -0.00    -0.00   0.00  -0.00
  17  17     0.00  -0.00   0.00     0.00  -0.00   0.00    -0.00   0.00   0.00
  18  17     0.00  -0.00   0.00     0.00  -0.00   0.00    -0.00   0.00   0.00
  19  17     0.00  -0.00   0.00    -0.00  -0.00  -0.00    -0.00  -0.00  -0.00
  20  17     0.00  -0.00  -0.00     0.00  -0.00  -0.00    -0.00   0.00   0.00
  21  17    -0.00  -0.00   0.00    -0.00  -0.00   0.00    -0.00  -0.00   0.00
  22   1    -0.01   0.08   0.03     0.09  -0.84  -0.26    -0.02   0.23   0.06
  23   1     0.05  -0.02  -0.28    -0.05   0.05   0.32    -0.03   0.00   0.17
  24   1     0.05   0.01   0.08     0.02   0.00   0.03     0.02   0.00   0.03
  25   1    -0.03  -0.16  -0.04    -0.01  -0.05  -0.01    -0.01  -0.03  -0.01
