24
 energy: -43.382983200860 gnorm: 0.059274018223 xtb: 6.7.1 (edcfbbe)
C           -2.57481425799709       -0.86935430795114        0.32802300375951
C           -1.14561262585744       -0.42563848938344        0.57847418869238
H           -0.99012281625683       -0.36913322090818        1.66877265021462
C           -0.80622535583394        0.92531074759907       -0.04971626411543
H           -0.99972143098553        0.87898744677566       -1.13146352347882
C            0.66459108629757        1.23756033463281        0.17609406659548
H            0.83312164988255        1.37155521892145        1.25820670400397
C            1.55220826253497        0.09634141768565       -0.31597583967151
H            1.46814997547464        0.00209873536080       -1.40521655905021
C            1.09692944009710       -1.21546829700022        0.31726041335264
H            1.22376210106940       -1.18693606691613        1.41337385211959
O           -0.28755155086367       -1.43160523108151        0.01239089906370
O            1.82726751293264       -2.26906555984534       -0.25030862800109
O            2.92915255255043        0.36886197078426       -0.04271706427047
O            0.95649304491660        2.45631256554709       -0.51709972202402
O           -1.64593033216050        1.90761027774375        0.56632170701475
O           -2.91686863592673       -0.90972436935884       -1.06173975656741
H           -3.25888065700559       -0.16068581896309        0.80094089314134
H           -2.72196824624772       -1.85368940961048        0.79251431167680
H            1.74649307736981       -3.03796560523249        0.33027832994747
H            3.02756614101215        0.46363996807314        0.91606864555741
H            1.87919116703472        2.67803254926171       -0.33274510460430
H           -1.41283759816434        2.76405495696032        0.18361012720456
H           -2.35198869813641       -1.57318095516260       -1.47948000803410
24
 energy: -43.386113037371 gnorm: 0.030822656782 xtb: 6.7.1 (edcfbbe)
C           -2.57687852969555       -0.87029790024775        0.32314309814741
C           -1.13806158887735       -0.43554584772610        0.58024833624186
H           -0.98234606264969       -0.37090611990400        1.66781042877769
C           -0.81261317175011        0.92419952629406       -0.04216579612189
H           -1.01463035759644        0.88340603314502       -1.12097356581508
C            0.66287354881680        1.24865723098730        0.17953631097899
H            0.82919268068819        1.39231107353437        1.25991000549270
C            1.55360947585932        0.10389805418583       -0.31214585140240
H            1.48044569645011        0.00976816102101       -1.39979992522413
C            1.09516882464969       -1.21666795296746        0.31401114077295
H            1.22426666202719       -1.17658955107708        1.40973282726147
O           -0.28296511945938       -1.44167552751813        0.03539264039354
O            1.82225939020229       -2.26212668950350       -0.24228688703482
O            2.91723931523310        0.37561391211092       -0.04254493737988
O            0.94615528038903        2.45823242466891       -0.50756521347433
O           -1.63663960887199        1.89912610225705        0.57337849044242
O           -2.90174132095483       -0.91622893210344       -1.05397486353604
H           -3.25621312093140       -0.14521871972899        0.77529329391381
H           -2.73210194895783       -1.85431275465143        0.78102853063382
H            1.72246433034943       -3.05304631005700        0.30924579793282
H            3.03692939899121        0.44352917445408        0.91721743791426
H            1.88025922849332        2.67361176405896       -0.36684505817290
H           -1.41092385999389        2.75802638376306        0.18720535056695
H           -2.33334533667445       -1.57984467706347       -1.46898426878238
24
 energy: -43.387708091565 gnorm: 0.012683516021 xtb: 6.7.1 (edcfbbe)
C           -2.57645570894392       -0.87240788800043        0.31101674936029
C           -1.13005321970996       -0.44187754470112        0.58867778184629
H           -0.98359948963545       -0.36828901228594        1.67686786464376
C           -0.82175505674506        0.92680985212027       -0.03087654862783
H           -1.02704282029399        0.88647673312648       -1.10904473869538
C            0.66105175884487        1.26015598276960        0.18106906994183
H            0.82354980559764        1.40653025256054        1.26209492600243
C            1.55984569372967        0.11386857738822       -0.30640727964946
H            1.49240144887823        0.02239895198314       -1.39383173403813
C            1.09313137928680       -1.21275994251675        0.31944316674236
H            1.23102337336804       -1.15468662462991        1.41823526258246
O           -0.27753517301868       -1.44162560799525        0.06240255783765
O            1.81767119866054       -2.24266572347476       -0.23150772819279
O            2.90826601668522        0.38255291464719       -0.03768208276803
O            0.93101741636976        2.45830545826361       -0.50149574823565
O           -1.63605229675874        1.88431020023836        0.58910110232940
O           -2.87520574345253       -0.92984658239620       -1.05562390163308
H           -3.24707199798711       -0.12756962209501        0.74179514341189
H           -2.74224509732687       -1.84818981299842        0.78039631827882
H            1.67372522889105       -3.07268862764525        0.26277952414160
H            3.05795906377641        0.40434177150023        0.92326326735588
H            1.88321692583937        2.65706601159450       -0.43296135596440
H           -1.42388958213219        2.74931632899458        0.20439836201455
H           -2.29954931818631       -1.59160718851538       -1.46624265615763
24
 energy: -43.388070843859 gnorm: 0.013633920949 xtb: 6.7.1 (edcfbbe)
C           -2.57621430884410       -0.87223510032738        0.30445829989906
C           -1.13014997860777       -0.44116169075772        0.59392328967618
H           -0.99308779346408       -0.36456384647630        1.68390231958336
C           -0.82355750725367        0.92920537626882       -0.02402808210555
H           -1.02991600552179        0.88772079610605       -1.10272601327076
C            0.66111614069890        1.26462836520905        0.18165806711530
H            0.82516168178768        1.41031779862928        1.26379547778924
C            1.56098773941060        0.11753795546841       -0.30450720186490
H            1.49030025155736        0.02548453291463       -1.39221736408137
C            1.09387913551256       -1.20954412256113        0.32360783652770
H            1.23758898299999       -1.14450297954379        1.42390402919715
O           -0.27637286782162       -1.43903559501957        0.07227293099012
O            1.81746419553019       -2.23717713057049       -0.22800382996995
O            2.90800890256031        0.38684290769930       -0.03661762259940
O            0.92762484953360        2.45954750730085       -0.50502513365928
O           -1.63815002555629        1.88067070582492        0.60241701402410
O           -2.85617903264158       -0.94260623160073       -1.06496374666598
H           -3.24747633700476       -0.12049847044471        0.72276894595495
H           -2.74974701465101       -1.84130223406012        0.78671794586568
H            1.64610835157736       -3.07850795660046        0.23932087641446
H            3.06792776586756        0.38572441717080        0.92294336928273
H            1.88311046795328        2.64719700568263       -0.46404072700055
H           -1.43258236060345        2.74896856798878        0.22179191964306
H           -2.27344142728252       -1.60479172036880       -1.46548527821855
24
 energy: -43.388633149247 gnorm: 0.012840550181 xtb: 6.7.1 (edcfbbe)
C           -2.57396728293542       -0.87100067469925        0.28974721953672
C           -1.13241127300407       -0.43730881776710        0.60521881975767
H           -1.01599098198168       -0.35826421317412        1.69886156010009
C           -0.82568518503596        0.93517640946777       -0.00840433401020
H           -1.03753971808311        0.89599503847567       -1.08758555304708
C            0.66087391071705        1.27223886224119        0.18439184520213
H            0.83279052453695        1.41935021056646        1.26734416166520
C            1.55987563946714        0.12405177059072       -0.30215396995785
H            1.47961809521885        0.02924476455462       -1.39021924524182
C            1.09652438186045       -1.20106857278663        0.33399765304571
H            1.25161038425308       -1.12754945806577        1.43627689829621
O           -0.27418076537860       -1.43345006590787        0.09151358172608
O            1.81857907055722       -2.22858549610777       -0.21919894832886
O            2.90819864028518        0.39832149296458       -0.03983462062886
O            0.92361128333178        2.46292731999664       -0.51216289653209
O           -1.64124862180715        1.87769938359031        0.63401836106833
O           -2.81361749546208       -0.97639902679791       -1.08796425661561
H           -3.25198846260871       -0.10651039011923        0.67533466781265
H           -2.76683124861850       -1.82483085096945        0.79914325311730
H            1.58501397277547       -3.08391873877544        0.19376922835489
H            3.08684624843923        0.34820131812447        0.91458555996781
H            1.88272357769491        2.62175875131651       -0.52393540105440
H           -1.44855802528950        2.75197925177645        0.26217620354803
H           -2.21184286319574       -1.64013941056254       -1.45905246525531
24
 energy: -43.388948007176 gnorm: 0.009290346010 xtb: 6.7.1 (edcfbbe)
C           -2.57091695119586       -0.87108844663746        0.27842041360879
C           -1.13532321347651       -0.43393733276144        0.61206092049706
H           -1.03186226889509       -0.35657405638856        1.70715110142911
C           -0.82687271964385        0.94041513942365        0.00414732293067
H           -1.04583854562485        0.90817998150983       -1.07417552086129
C            0.65989020284603        1.27677707583520        0.18828610877251
H            0.83990174332824        1.42749886063227        1.26986669885697
C            1.55577151901178        0.12778858430067       -0.30089090777084
H            1.46747543928829        0.02966635740668       -1.38842005869639
C            1.09814689444767       -1.19409494700320        0.34245986377363
H            1.25933935586220       -1.11821744576628        1.44461562640412
O           -0.27245466918118       -1.43002009481154        0.10433758585519
O            1.81888811100837       -2.22502526031815       -0.20973819320617
O            2.90681070060581        0.40751465611848       -0.04800086474307
O            0.92258581450252        2.46598687910208       -0.51371145509395
O           -1.64117544408370        1.87880584602633        0.65848258883095
O           -2.78292339308460       -1.00302290244741       -1.10340247101211
H           -3.25624168147198       -0.09914774128112        0.63606163501473
H           -2.77802328739851       -1.81460913302738        0.80176158672658
H            1.54284298711563       -3.08050247964676        0.16859531120532
H            3.09920969321942        0.32396737895769        0.90030283127852
H            1.88415571216100        2.59794321170842       -0.56420683245915
H           -1.45579792563633        2.75610763203583        0.29160429647775
H           -2.16518426796774       -1.66649290503549       -1.44974026529221
24
 energy: -43.389195412918 gnorm: 0.005378873545 xtb: 6.7.1 (edcfbbe)
C           -2.56645409895925       -0.87269753817207        0.26769107069684
C           -1.13821364943752       -0.43095455309409        0.61675892817403
H           -1.04374083773206       -0.35701796441100        1.71184603732170
C           -0.82821507957765        0.94562687043179        0.01552027166276
H           -1.05601047087512        0.92384945386671       -1.06083098395750
C            0.65804659472475        1.28034779921827        0.19338203421005
H            0.84510331780511        1.43717264451779        1.27202779114782
C            1.55001505054359        0.13074119084685       -0.29880086956576
H            1.45252660344066        0.02755061436088       -1.38491476551441
C            1.09998087631097       -1.18655414376315        0.35285870090054
H            1.26248198881965       -1.11096673827982        1.45356197084578
O           -0.26905471703663       -1.42703807668732        0.11513806692346
O            1.82110638646013       -2.22251205585381       -0.19511531510936
O            2.90416792187224        0.41773968384851       -0.06138495376210
O            0.92391069813651        2.46850315965707       -0.51215671779568
O           -1.63901012431822        1.88160655613881        0.68050136485274
O           -2.75481486317198       -1.02822503536520       -1.11470749163575
H           -3.25897810940179       -0.09576298268762        0.59705545103206
H           -2.78522273678453       -1.80771326914228        0.79820825008238
H            1.49754526206356       -3.07524557409580        0.14670997501735
H            3.11239129512446        0.30527273993543        0.87840757357505
H            1.88439356606582        2.57271744153328       -0.59532250018711
H           -1.45800144122664        2.76039622595100        0.31615297992900
H           -2.12154962710928       -1.68891759082187       -1.43671954631720
24
 energy: -43.389272998259 gnorm: 0.003496322443 xtb: 6.7.1 (edcfbbe)
C           -2.56453917833064       -0.87386003526039        0.26007064693802
C           -1.14053756064123       -0.42981694173166        0.61950089313088
H           -1.04974922415828       -0.35801218858486        1.71416338380877
C           -0.82983767272458        0.94875310487831        0.02312579184497
H           -1.06205536083540        0.93429122081518       -1.05178340452729
C            0.65640822111039        1.28216300216719        0.19912239819402
H            0.84718075771242        1.44066261464607        1.27571824769231
C            1.54500486790563        0.13261685871794       -0.29792508416879
H            1.43857090368485        0.02652624740623       -1.38263714704115
C            1.10031073245352       -1.18174514721289        0.35966271628083
H            1.26256093695559       -1.10432208761971        1.45893051947173
O           -0.26709529978058       -1.42583898698268        0.12175410106989
O            1.82225364043892       -2.22190336953012       -0.18269878057081
O            2.90085265834984        0.42431978702368       -0.07513567066523
O            0.92404262791011        2.47103649961568       -0.50555141594769
O           -1.63762348561704        1.88336987697997        0.69339406613065
O           -2.73621283446063       -1.04240568172596       -1.12222629807447
H           -3.26081626040845       -0.09385185399329        0.57163947298030
H           -2.78954592411057       -1.80444340131927        0.79393608017811
H            1.47409363659218       -3.06857172031170        0.13820781182087
H            3.12404133440921        0.29285893279593        0.85895355307928
H            1.88607698574797        2.55451150014676       -0.61493942748840
H           -1.45677292778574        2.76244749746738        0.32935093068223
H           -2.09420776868073       -1.70086687045539       -1.42876606229233
24
 energy: -43.389289298056 gnorm: 0.006047889321 xtb: 6.7.1 (edcfbbe)
C           -2.56294741036245       -0.87475106447692        0.25470457533330
C           -1.14155177357977       -0.42891860127496        0.62130078756688
H           -1.05315702998587       -0.35787346867790        1.71574996601131
C           -0.83074464735963        0.95078540540619        0.02731776322789
H           -1.06526502494473        0.94031029441020       -1.04661270817819
C            0.65589417488370        1.28330749236396        0.20262570263047
H            0.84704054257675        1.44250616682380        1.27824877746522
C            1.54239220768139        0.13364583943924       -0.29720981126198
H            1.42691300407366        0.02414325862365       -1.38062321780313
C            1.10114849056371       -1.17796363918416        0.36644595878111
H            1.26114978917930       -1.09786069772673        1.46494904130586
O           -0.26459430110236       -1.42443468238555        0.12638240680337
O            1.82525979415571       -2.22080182622420       -0.16997573088798
O            2.89921326177891        0.42865514700924       -0.08797503243935
O            0.92608609976127        2.47227043844078       -0.50121037954731
O           -1.63655818658624        1.88418297083783        0.70086677653860
O           -2.72122418541000       -1.05436207184577       -1.12731808377299
H           -3.26141715355925       -0.09191139550431        0.55270871056209
H           -2.79266910487767       -1.80164509942427        0.79270706132053
H            1.44609916517013       -3.06892782939044        0.12562890318506
H            3.13532733187249        0.28853521798778        0.84027890402506
H            1.88340730988768        2.54715150785420       -0.61920814265265
H           -1.45432726024437        2.76353471644925        0.33744832896499
H           -2.07307128783562       -1.71165922159849       -1.42136323465146
24
 energy: -43.389307744698 gnorm: 0.004005485123 xtb: 6.7.1 (edcfbbe)
C           -2.56396170924172       -0.87445709711024        0.25475529580132
C           -1.14196402039120       -0.42912472191624        0.62089868273145
H           -1.05296613336229       -0.35799325413336        1.71548289351758
C           -0.83061167788418        0.95033281271782        0.02642969016469
H           -1.06296583011577        0.93847217555473       -1.04794071041391
C            0.65631177158185        1.28231951035625        0.20338321467383
H            0.84657930965662        1.43816454924948        1.27974401702299
C            1.54192363883075        0.13276297165275       -0.29867731749391
H            1.42379652892867        0.02363141085467       -1.38188471867642
C            1.10024928350337       -1.17868967248739        0.36594676662381
H            1.26006843632821       -1.09624620376674        1.46453140987549
O           -0.26563752977881       -1.42494342105119        0.12551637922037
O            1.82451297035957       -2.22218529016506       -0.16882978925333
O            2.89886026013294        0.42630383197503       -0.09147805631319
O            0.92664351979790        2.47284579538871       -0.49763457089145
O           -1.63706093074275        1.88423462122619        0.69825087051840
O           -2.72313496930430       -1.05169805944825       -1.12721169353999
H           -3.26169335140459       -0.09251573067002        0.55525498668634
H           -2.79306131491824       -1.80222861373108        0.79191177066103
H            1.45531223546908       -3.06653100184501        0.13189639139114
H            3.13604446435959        0.29165393853498        0.83641525019419
H            1.88382402321984        2.54967104540883       -0.61340080061176
H           -1.45213289660548        2.76333550892446        0.33525310710780
H           -2.07653227268231       -1.70919624758693       -1.42274574646975
24
 energy: -43.389309835793 gnorm: 0.005145464022 xtb: 6.7.1 (edcfbbe)
C           -2.56451910535948       -0.87468947759167        0.25233599485712
C           -1.14234492502860       -0.42921030967674        0.62181819261840
H           -1.05572469579065       -0.35785712017922        1.71699931652507
C           -0.83101684678342        0.95088953752270        0.02829339758781
H           -1.06069736734519        0.93762982582648       -1.04689749512653
C            0.65642448502707        1.28317177105720        0.20668944214825
H            0.84753840908964        1.43391572774832        1.28407936557004
C            1.54103247436692        0.13409363407513       -0.29940116946962
H            1.41761001780701        0.02535901014050       -1.38222637118136
C            1.09991063670840       -1.17737862894667        0.36772739456746
H            1.25928982680289       -1.09091928499886        1.46687183676947
O           -0.26563783330185       -1.42441537900884        0.12732250953231
O            1.82566282836822       -2.22071937688032       -0.16360404649852
O            2.89788553860923        0.42701053574008       -0.09747416156759
O            0.92488882399526        2.47594449184991       -0.49021389501333
O           -1.63880681247446        1.88398921067035        0.69865295061299
O           -2.71940628282841       -1.05422110036222       -1.12996114484180
H           -3.26258281645913       -0.09193977810773        0.55084338047462
H           -2.79517348620685       -1.80152675719148        0.79163840834881
H            1.45228035381202       -3.06654271522693        0.13006654609365
H            3.14167511869595        0.28786636948249        0.83012407105620
H            1.88748253691933        2.54599400418240       -0.62207098651359
H           -1.45170544640359        2.76357828846677        0.33747238857718
H           -2.07166162648357       -1.71210362065925       -1.42321860260034
24
 energy: -43.389331599316 gnorm: 0.001050510485 xtb: 6.7.1 (edcfbbe)
C           -2.56427102405608       -0.87483136435466        0.25262513780010
C           -1.14228873298128       -0.42919850452936        0.62130818682600
H           -1.05536946586206       -0.35775745803572        1.71632929655325
C           -0.83065483196444        0.95054452812803        0.02726378506362
H           -1.05987940632892        0.93703190911736       -1.04801160493456
C            0.65657634492637        1.28263795670421        0.20660659987215
H            0.84679465090623        1.43296909229765        1.28415362137101
C            1.54091042144006        0.13369778302402       -0.29987175384265
H            1.41585070157732        0.02431481659158       -1.38241245568226
C            1.10010973184279       -1.17720842006846        0.36834847378790
H            1.25825081360640       -1.09013711694525        1.46740614084775
O           -0.26531307648139       -1.42453847983648        0.12694906163443
O            1.82671553412936       -2.22107736234639       -0.16121207755379
O            2.89810172743461        0.42710443559847       -0.10044233720486
O            0.92627619078058        2.47572325711990       -0.48947065433396
O           -1.63872104301962        1.88426532528497        0.69664615577098
O           -2.71996546207387       -1.05450871933852       -1.12929067722305
H           -3.26222653873293       -0.09216189438630        0.55114898131024
H           -2.79462731308868       -1.80160033597215        0.79175026101341
H            1.45004636670280       -3.06691080875633        0.13001991853986
H            3.14304656058407        0.28892240984980        0.82666962032954
H            1.88542397309624        2.54930881871577       -0.61436634651303
H           -1.44992539548280        2.76372268442400        0.33612856594291
H           -2.07245692121801       -1.71239369435376       -1.42240857684828
24
 energy: -43.389339457653 gnorm: 0.002092831150 xtb: 6.7.1 (edcfbbe)
C           -2.56412493627438       -0.87522963711678        0.25168995270073
C           -1.14248026835965       -0.42933427798343        0.62086522228652
H           -1.05631018535467       -0.35791554191714        1.71589171379564
C           -0.83007508284423        0.95018705213762        0.02671781128233
H           -1.05699631823130        0.93578403144367       -1.04921613276423
C            0.65693159084873        1.28187161466047        0.20867525905100
H            0.84637545604964        1.42782837762675        1.28707524985659
C            1.53994687929181        0.13347413575562       -0.30142680932597
H            1.40916244231827        0.02283092197023       -1.38319772816789
C            1.10024017532594       -1.17612686999043        0.37039355075538
H            1.25584628952445       -1.08546823533991        1.46955631367555
O           -0.26474480498776       -1.42453731974759        0.12713274935041
O            1.82919801388996       -2.22106266874570       -0.15379525676825
O            2.89788875394917        0.42671257773247       -0.10877450293365
O            0.92765573290749        2.47763917120777       -0.48222892479606
O           -1.63966138725890        1.88457739935710        0.69346245928439
O           -2.71908065812205       -1.05617833296214       -1.12998879925491
H           -3.26216238743188       -0.09227496023778        0.54930867304075
H           -2.79476986100571       -1.80141671211682        0.79158236580597
H            1.44503170337224       -3.06691236072424        0.12941668203046
H            3.14649454764425        0.29261299890153        0.81630199286372
H            1.88557900663823        2.55107204289582       -0.60759604312773
H           -1.44602715182025        2.76421528094435        0.33586358681120
H           -2.07151374433263       -1.71442982981903       -1.42184206292524
24
 energy: -43.389343311732 gnorm: 0.001566348543 xtb: 6.7.1 (edcfbbe)
C           -2.56412369720224       -0.87551007777649        0.25130897541657
C           -1.14250350918281       -0.42949622074089        0.62055914516971
H           -1.05695790595497       -0.35766728857358        1.71564217696771
C           -0.82972249522825        0.94974420209342        0.02592436469196
H           -1.05447922207363        0.93407536265594       -1.05062053288355
C            0.65692940375339        1.28155669523729        0.21028805810383
H            0.84574565360861        1.42396367933328        1.28944317546816
C            1.53913054132715        0.13383165008067       -0.30260917256754
H            1.40446719164587        0.02298895686581       -1.38386632230817
C            1.10041706964489       -1.17520987656577        0.37150678786695
H            1.25460600706945       -1.08171029573392        1.47082360589088
O           -0.26434332143945       -1.42466223255833        0.12755829609854
O            1.83088667970474       -2.22070029370188       -0.14889296559362
O            2.89753639697187        0.42735077141215       -0.11496114822019
O            0.92821344010622        2.47926796560016       -0.47670299302204
O           -1.64087361541343        1.88468837491719        0.68993786423017
O           -2.71937293840407       -1.05691123149121       -1.13034625960288
H           -3.26210725430803       -0.09229670624388        0.54899582744652
H           -2.79480861746663       -1.80139129907881        0.79182225654886
H            1.44346229884702       -3.06629636121091        0.12981089482978
H            3.15015006684854        0.29060119209062        0.81026236064329
H            1.88583726086484        2.55299798091947       -0.60262813077333
H           -1.44341163933788        2.76449341794439        0.33479390181211
H           -2.07227398864445       -1.71578950754232       -1.42218284368700
24
 energy: -43.389345790704 gnorm: 0.000596316991 xtb: 6.7.1 (edcfbbe)
C           -2.56397448933692       -0.87587420618036        0.25203891311532
C           -1.14212718736541       -0.42983411434524        0.61995117792762
H           -1.05630312769400       -0.35760299765292        1.71497514262984
C           -0.82925609312069        0.94911748043705        0.02467877819146
H           -1.05266301901067        0.93238634230179       -1.05221097747345
C            0.65693340365001        1.28113377305586        0.21083458585746
H            0.84514116409040        1.42132784913830        1.29042840966450
C            1.53902401923889        0.13387441482608       -0.30319748775702
H            1.40389677204720        0.02295156155553       -1.38424464951396
C            1.10075959739152       -1.17492115243962        0.37158352837294
H            1.25412686329243       -1.08015299752881        1.47095702616658
O           -0.26387717436603       -1.42499766076931        0.12724347973987
O            1.83198865289313       -2.22047363085303       -0.14703155444565
O            2.89757208072627        0.42708093041804       -0.11610145790981
O            0.92838944509303        2.48028413423904       -0.47331357796362
O           -1.64178051460364        1.88454377357543        0.68642493791720
O           -2.72204656146404       -1.05553178506662       -1.12959007873753
H           -3.26159496797092       -0.09307816215305        0.55183515587089
H           -2.79384261544934       -1.80227489058197        0.79183020272589
H            1.44372499298960       -3.06601125960980        0.13006574631619
H            3.14918505656272        0.29272579737956        0.80924786821608
H            1.88723190998693        2.55389020115196       -0.60016020004055
H           -1.44146026600220        2.76450612569097        0.33336679764105
H           -2.07664413584152       -1.71515066865648       -1.42374444398458
24
 energy: -43.389347100322 gnorm: 0.000547848794 xtb: 6.7.1 (edcfbbe)
C           -2.56380475204539       -0.87602046998302        0.25270003695341
C           -1.14188037597862       -0.42990400147920        0.61982976368432
H           -1.05563318213973       -0.35724252287461        1.71477272279080
C           -0.82921398985798        0.94887118976780        0.02399629498860
H           -1.05274109831823        0.93196347245049       -1.05279176419514
C            0.65674840611726        1.28108850927084        0.21049420525557
H            0.84451638624071        1.42166837540373        1.29002109850808
C            1.53924436124883        0.13397356731603       -0.30295696988045
H            1.40516809328520        0.02305163030480       -1.38410884078259