20
 energy: -366.107318420348 gnorm: 0.002358464741 xtb: 6.7.1 (edcfbbe)
C           -2.32648252240659        1.22244552942992        0.07028157682052
N           -1.62479911145604       -0.00018447560084       -0.32905350666790
C           -2.32613213080130       -1.22244781777516        0.07213723035500
C           -0.23832148277478        0.00000824317976       -0.16499864217747
C            0.49145834411693       -1.20498465324981       -0.09465934122465
C            1.87747083183311       -1.19608068678996        0.01163102415121
C            2.58890047867139        0.00002460628581        0.06518948332298
C            1.87737830604466        1.19609992092900        0.01247503016824
C            0.49134313356353        1.20500347388122       -0.09381729905500
H           -2.13378909799220        1.49407299809120        1.12099746393025
H           -3.39907152376214        1.06781982080310       -0.05816746866328
H           -2.04308714612153        2.06667067976992       -0.56494580612472
H           -3.39895802301308       -1.06739509665909       -0.05391929892418
H           -2.13119552296072       -1.49383200890227        1.12251649201944
H           -2.04450803890771       -2.06706412869960       -0.56342796743071
H           -0.01716428999872       -2.15990368729785       -0.12577861145762
H            2.40490556090324       -2.14413504263619        0.06205172395541
H            3.67024123247193        0.00003698330877        0.15287113362370
H            2.40473367664404        2.14415701679385        0.06361041784484
H           -0.01728913951047        2.15994351042688       -0.12407910112845
20
 energy: -366.107331442757 gnorm: 0.001023889564 xtb: 6.7.1 (edcfbbe)
C           -2.32773067796482        1.22298888465603        0.07083164460214
N           -1.62477627715922       -0.00017808616990       -0.32546408657971
C           -2.32740669152009       -1.22298907084678        0.07265277398694
C           -0.23784345513254       -0.00000176495046       -0.16327503193832
C            0.49251295462870       -1.20560095560820       -0.09456738044295
C            1.87871363523266       -1.19616721065647        0.01098962308567
C            2.59051378675666        0.00002908913211        0.06443011322091
C            1.87861515207235        1.19618817611533        0.01182664218445
C            0.49239295807641        1.20560559713605       -0.09373019856018
H           -2.13863575382075        1.49455236384437        1.12161771027966
H           -3.39993735623169        1.06904713236020       -0.06070150285738
H           -2.04192839396498        2.06632647320092       -0.56320370249859
H           -3.39983239180618       -1.06867130147933       -0.05660024196641
H           -2.13618199646519       -1.49423344819455        1.12312874204781
H           -2.04329688512396       -2.06673107733038       -0.56164168084699
H           -0.01633954129613       -2.16051178861294       -0.12632164243850
H            2.40584575215957       -2.14464169838605        0.06065996610965
H            3.67176907623224        0.00004509674269        0.15268856838932
H            2.40566165312515        2.14467111973841        0.06223006110214
H           -0.01648201672073        2.16052758481899       -0.12463541360553
20
 energy: -366.107341615490 gnorm: 0.001403065444 xtb: 6.7.1 (edcfbbe)
C           -2.32969026531579        1.22396723028322        0.07240570092240
N           -1.62432047473360       -0.00016769686529       -0.31728763781204
C           -2.32942871289963       -1.22396388149394        0.07414121574327
C           -0.23712665000685       -0.00002460247731       -0.15909554500994
C            0.49435536082894       -1.20647678150640       -0.09335261047126
C            1.88088854950450       -1.19608870894087        0.00943266324149
C            2.59330597226369        0.00003623987435        0.06239213746075
C            1.88077563174410        1.19611122001962        0.01026630611092
C            0.49422615718369        1.20644867361582       -0.09253257092844
H           -2.15087603992794        1.49517695325908        1.12457932814275
H           -3.40079721681370        1.07066622679873       -0.06895106826079
H           -2.03709706824667        2.06587353592294       -0.55909334774843
H           -3.40072723006492       -1.07039548057958       -0.06534098574273
H           -2.14883096957796       -1.49467087964873        1.12611486866114
H           -2.03823618275213       -2.06630144936672       -0.55742986467579
H           -0.01499518985710       -2.16127439098496       -0.12570195386267
H            2.40752942893789       -2.14522688372163        0.05653063124180
H            3.67453830377374        0.00005920645468        0.14980677855682
H            2.40731790390204        2.14526967943424        0.05809380925681
H           -0.01517781968003        2.16123667130400       -0.12406158752763
20
 energy: -366.107346113322 gnorm: 0.000777688954 xtb: 6.7.1 (edcfbbe)
C           -2.32973811783447        1.22367919067954        0.07264521227110
N           -1.62361513197258       -0.00016482836631       -0.31546328778689
C           -2.32950138208299       -1.22367177068144        0.07432862476239
C           -0.23708256600776       -0.00002714599809       -0.15795936991690
C            0.49440291322646       -1.20619344145276       -0.09214282675281
C            1.88096837712290       -1.19602525533516        0.00881487127963
C            2.59345323896646        0.00003658994571        0.06060761643875
C            1.88085462125705        1.19604903758258        0.00962902475504
C            0.49427289733086        1.20616219483733       -0.09133452176813
H           -2.15489895440455        1.49434757060504        1.12588910220102
H           -3.40039316097479        1.07075601269736       -0.07298881845792
H           -2.03460003795529        2.06623191653281       -0.55725103379649
H           -3.40034112058965       -1.07052793811129       -0.06965853306731
H           -2.15306535698042       -1.49377550158580        1.12743679418659
H           -2.03559977124471       -2.06668227349808       -0.55554314770068
H           -0.01474644811957       -2.16101102836538       -0.12333150510900
H            2.40776713210737       -2.14505383424881        0.05552159806579
H            3.67488153989684        0.00005992580290        0.14637998950974
H            2.40755234518179        2.14509874726399        0.05705901424835
H           -0.01493756873802        2.16096657583507       -0.12172190611520
20
 energy: -366.107346113322 gnorm: 0.000777688954 xtb: 6.7.1 (edcfbbe)
C           -2.32973811783447        1.22367919067954        0.07264521227110
N           -1.62361513197258       -0.00016482836631       -0.31546328778689
C           -2.32950138208299       -1.22367177068144        0.07432862476239
C           -0.23708256600776       -0.00002714599809       -0.15795936991690
C            0.49440291322646       -1.20619344145276       -0.09214282675281
C            1.88096837712290       -1.19602525533516        0.00881487127963
C            2.59345323896646        0.00003658994571        0.06060761643875
C            1.88085462125705        1.19604903758258        0.00962902475504
C            0.49427289733086        1.20616219483733       -0.09133452176813
H           -2.15489895440455        1.49434757060504        1.12588910220102
H           -3.40039316097479        1.07075601269736       -0.07298881845792
H           -2.03460003795529        2.06623191653281       -0.55725103379649
H           -3.40034112058965       -1.07052793811129       -0.06965853306731
H           -2.15306535698042       -1.49377550158580        1.12743679418659
H           -2.03559977124471       -2.06668227349808       -0.55554314770068
H           -0.01474644811957       -2.16101102836538       -0.12333150510900
H            2.40776713210737       -2.14505383424881        0.05552159806579
H            3.67488153989684        0.00005992580290        0.14637998950974
H            2.40755234518179        2.14509874726399        0.05705901424835
H           -0.01493756873802        2.16096657583507       -0.12172190611520
