27
 energy: -33.608465864780 gnorm: 0.040661063843 xtb: 6.7.1 (edcfbbe)
C           -3.44621383733944        0.58122294889317       -0.00685706491497
C           -1.95204806841648        0.47042150518109        0.05060733922710
C           -1.13248016269975        1.44521421703893       -0.35905959277128
C            0.36372598785618        1.36067378646451       -0.36901341644684
C            0.87251138065424       -0.08045249087468       -0.18396134750865
H            0.64121735137725       -0.62378820631435       -1.11361806485371
C            0.08490397158119       -0.72955563468073        0.94958501082133
C           -1.40116867950704       -0.81223820285262        0.61773901302074
H           -1.95854213905373       -1.04835317635118        1.53726858981404
O           -1.67174237098390       -1.86163350855149       -0.35331922648262
C            2.37560028884508       -0.11197651115208       -0.02113888767773
C            2.98870804672329       -0.55242678080161        1.08289169138964
C            3.16236851519670        0.39411124590337       -1.19797662953114
H           -3.87556385631801       -0.21146954439909       -0.63120379138506
H           -3.76002812686095        1.54554934069351       -0.41580234148799
H           -3.88512099351975        0.46606372819127        0.99223580151170
H           -1.56661895747818        2.37686637739258       -0.72162361293736
H            0.73368495784695        1.78142123357783       -1.31097662957105
H            0.77714059695801        1.99928797485055        0.42770606647445
H            0.45243458109495       -1.74025974591430        1.16258027336717
H            0.20254338315576       -0.13905890694559        1.86811504260744
H           -1.44630236091529       -2.70043637023223        0.07091518449091
H            4.07387211644022       -0.55908392477421        1.14731400910844
H            2.44327743407635       -0.91976594046156        1.94617931964832
H            2.83555193962013       -0.09491167190020       -2.12360550700264
H            3.01134959376062        1.47035987874839       -1.34243858400407
H            4.23288012360317        0.21817711120249       -1.06659705675628
27
 energy: -33.610193565802 gnorm: 0.016488197476 xtb: 6.7.1 (edcfbbe)
C           -3.43569434390068        0.58357163177354       -0.00189494879778
C           -1.94433788187222        0.47596697293975        0.05559051786471
C           -1.13032306618890        1.44088407448924       -0.35564832145339
C            0.36229832715351        1.36100787664515       -0.36308641796184
C            0.86526393332740       -0.08069624686522       -0.19037728247329
H            0.62304486827473       -0.63096195794390       -1.11093647955155
C            0.08429616751736       -0.72379027378580        0.95103176239278
C           -1.40325725611402       -0.81596521511309        0.61301625790188
H           -1.96437141865352       -1.06010955346457        1.52890803108076
O           -1.66609408552771       -1.85171442550299       -0.35419362125629
C            2.36729726533205       -0.10880301777266       -0.01852706277677
C            2.98084146649930       -0.54128772825698        1.07500074845774
C            3.15280467179036        0.38854407875992       -1.19586748111445
H           -3.84294805588049       -0.21402831586515       -0.62644296132267
H           -3.74355805609298        1.54246238199372       -0.41398068723980
H           -3.86821960715028        0.47206428126206        0.99461441079479
H           -1.55566106593935        2.36633828426746       -0.72653188801864
H            0.72622161043478        1.77468221198245       -1.30727516937811
H            0.76608514804180        1.99168058080200        0.44014238397092
H            0.46228258100955       -1.72996761511884        1.15222926958718
H            0.19789409714957       -0.12783173373031        1.86151205521564
H           -1.43784786467206       -2.69816895586040        0.05204759801443
H            4.05788122133515       -0.55210915073048        1.13959006398694
H            2.45039048874457       -0.90042520768936        1.93972157206513
H            2.82659421837252       -0.10480446064642       -2.11274138962510
H            3.00859518465836        1.46153026052105       -1.33080378863898
H            4.21646216804874        0.20588995484155       -1.05915158357435
27
 energy: -33.610569295504 gnorm: 0.005368388728 xtb: 6.7.1 (edcfbbe)
C           -3.43099849474157        0.58355387530021        0.00230660125944
C           -1.93935277441226        0.47922133525884        0.05957959608958
C           -1.12828776002014        1.43982915733026       -0.35569431896433
C            0.36396725771231        1.36211839901396       -0.36242446142673
C            0.85990899332696       -0.08011921245169       -0.19067101831374
H            0.60930526908817       -0.63236892177081       -1.10569089177789
C            0.08358784083136       -0.72231061631147        0.95644913668797
C           -1.40438799078131       -0.82098467141464        0.60908226344015
H           -1.96878326762403       -1.06920770822537        1.52331739624668
O           -1.65796330474342       -1.83788368560366       -0.36238473444207
C            2.36111156225185       -0.11334742329682       -0.01893919369029
C            2.97610693146098       -0.53516312097671        1.07365122083166
C            3.14491928557201        0.37987374965758       -1.19948840213897
H           -3.82470381257579       -0.22018740254248       -0.61850114930623
H           -3.73697614343869        1.53804142028413       -0.41486901882795
H           -3.85845054639922        0.47690685996813        0.99820293328118
H           -1.54787770717515        2.36557279791633       -0.72502199932511
H            0.72769993941624        1.77709340715652       -1.30404182352529
H            0.76220328886805        1.98270768191554        0.44779428929016
H            0.46832994790450       -1.72471887806778        1.15462865574873
H            0.19091066059920       -0.12066069310004        1.86025414510522
H           -1.42478784833805       -2.69386022205330        0.02144427645236
H            4.05002872473314       -0.53611843761586        1.14254294048765
H            2.45502344825205       -0.88310242607064        1.94535005203923
H            2.81437256797391       -0.11323531837808       -2.11120449927275
H            3.00555605453311        1.45152160195912       -1.32807226790097
H            4.20547859342334        0.19078718405048       -1.06165413989781
27
 energy: -33.610680161700 gnorm: 0.003241149798 xtb: 6.7.1 (edcfbbe)
C           -3.43111156518724        0.58298454529374        0.00536662371865
C           -1.93844211257342        0.48062217796920        0.06253417666760
C           -1.12785897333838        1.44081338172392       -0.35429213411985
C            0.36520351617244        1.36233670153821       -0.35850392742383
C            0.85848381779804       -0.08049666933160       -0.18855523535861
H            0.60409574777782       -0.63304234180943       -1.10188504178169
C            0.08212871577594       -0.72092642171711        0.96073595309460
C           -1.40496270971098       -0.82473536639837        0.60508677467420
H           -1.97217064916095       -1.07669584761531        1.51769817941185
O           -1.65057160287490       -1.82808797568814       -0.37409431724971
C            2.35914482522471       -0.11257000300091       -0.01770839791053
C            2.97553432949192       -0.52222840653664        1.07914227432069
C            3.14153761791038        0.37111705281171       -1.20444079172396
H           -3.82061383783551       -0.22544105122321       -0.61101347342215
H           -3.73800525561277        1.53465073065567       -0.41700372876067
H           -3.85661601970936        0.48084082834254        1.00205000203564
H           -1.54528707193558        2.36736022714115       -0.72406072956588
H            0.73137029135291        1.77946518496802       -1.29757396259505
H            0.76100784087341        1.97917621643467        0.45500288160656
H            0.47041089436709       -1.72075511574679        1.16189926346773
H            0.18351938378560       -0.11538070479350        1.86168629493526
H           -1.41066929558802       -2.69009954300470       -0.00721082917032
H            4.05002321504536       -0.53103497509171        1.14351354623813
H            2.45779815536548       -0.87008257564150        1.95336038904382
H            2.80342317464968       -0.12254281053350       -2.11264036348607
H            3.00718940336190        1.44293033772322       -1.33364414300367
H            4.20137888027195        0.17578115546206       -1.06950369549285
27
 energy: -33.610782858048 gnorm: 0.005054279683 xtb: 6.7.1 (edcfbbe)
C           -3.43252459654181        0.58223199380557        0.00927507795218
C           -1.93858747744549        0.48201202422708        0.06552022080569
C           -1.12795282935995        1.44314520888382       -0.35096625006514
C            0.36640072206698        1.36294106333818       -0.35081302696917
C            0.85771852157059       -0.08090622062771       -0.18379064513161
H            0.59854855139426       -0.63166504641226       -1.09666828563612
C            0.07984382724909       -0.71947535337249        0.96647821377566
C           -1.40493224863356       -0.82903955543417        0.59848247863683
H           -1.97701868727877       -1.08964422937262        1.50697726577587
O           -1.63823352862324       -1.81535011755823       -0.39414733597444
C            2.35794956296089       -0.11698470880051       -0.01810272907873
C            2.97635251322938       -0.51293913155181        1.08379062575354
C            3.13784142236275        0.35583026772261       -1.21225457986162
H           -3.82084727027983       -0.23287016572144       -0.59898629849216
H           -3.74194934962080        1.52979497262891       -0.42138292759045
H           -3.85599079211660        0.48828334695204        1.00797087166588
H           -1.54379248564327        2.37149541234580       -0.71958395096327
H            0.73715713632840        1.78423157478463       -1.28612112925195
H            0.75977293877012        1.97592167543874        0.46684586624958
H            0.47122690305212       -1.71636632275260        1.17534913727252
H            0.17228271637601       -0.10868176190110        1.86467021343957
H           -1.38644302215495       -2.68357235600093       -0.04923073663527
H            4.05205166990650       -0.51468345201100        1.14852586778184
H            2.46056571807471       -0.84287102652733        1.96807345756218
H            2.78594105539450       -0.13526085323415       -2.11700409178318
H            3.01355655554084        1.42931152441002       -1.34182653269687
H            4.19700318911865        0.14906996867263       -1.08513518839150
27
 energy: -33.610866728819 gnorm: 0.005128659042 xtb: 6.7.1 (edcfbbe)
C           -3.43393625713059        0.58141985662020        0.01220491255246
C           -1.93960399704699        0.48203363037076        0.06642510902273
C           -1.12869479538519        1.44529283427961       -0.34662852445827
C            0.36633874262889        1.36479444579880       -0.34288614311830
C            0.85758419975022       -0.07955002256695       -0.17794254765027
H            0.59656180015772       -0.62802476598244       -1.09192320688378
C            0.07766514976213       -0.71805026878592        0.97092628684429
C           -1.40386035284683       -0.83206874957411        0.59154010474805
H           -1.98154720989489       -1.10459363100491        1.49365997493255
O           -1.62464800043167       -1.80671174289011       -0.41456780040207
C            2.35764371547596       -0.11556955835803       -0.01589355490723
C            2.97750472333824       -0.49714236116395        1.09105388925673
C            3.13486103305133        0.33979108504263       -1.21914250894357
H           -3.82540410069193       -0.23932808232217       -0.58714808347530
H           -3.74583125654900        1.52518313004702       -0.42628107755429
H           -3.85563601114378        0.49682753466387        1.01330081937376
H           -1.54444712202595        2.37561656707477       -0.71162522845396
H            0.74147177211822        1.79037698656129       -1.27499018784912
H            0.75765670715633        1.97548846496040        0.47817384233943
H            0.47087152221439       -1.71272291044971        1.18885518307222
H            0.16107595071366       -0.10306874060826        1.86773449181605
H           -1.36050885700127       -2.67687167695373       -0.08479624717385
H            4.05425364308267       -0.50449567147248        1.15116944712030
H            2.46168216845651       -0.81986335310738        1.97844218161510
H            2.76828855910624       -0.14970723785711       -2.11987067699067
H            3.02364362618756        1.41500213361238       -1.35283959120523
H            4.19295536264554        0.11990083599716       -1.10100527547794
27
 energy: -33.610958124334 gnorm: 0.003709558871 xtb: 6.7.1 (edcfbbe)
C           -3.43470802994402        0.58078228880165        0.01541965181666
C           -1.94084213255629        0.48136573376571        0.06697514305989
C           -1.12956252279410        1.44798560938458       -0.33882128148786
C            0.36549359880234        1.36828198342983       -0.33240873196044
C            0.85713646939252       -0.07677908744004       -0.17170749854770
H            0.59448679956867       -0.62172386883565       -1.08772688740672
C            0.07489358502024       -0.71593760796403        0.97439391892445
C           -1.40208561339838       -0.83514683405376        0.58262183658792
H           -1.98686793965714       -1.12466567089524        1.47487772006214
O           -1.60746482300552       -1.79995033652494       -0.43895344885963
C            2.35728314221710       -0.11510525884863       -0.01402155173206
C            2.97840275422149       -0.48151728385357        1.09744685138703
C            3.13108373948509        0.31969974974163       -1.22659763690780
H           -3.83133755897142       -0.24606620891141       -0.57298854863729
H           -3.74839220612627        1.51998559345660       -0.43234296291809
H           -3.85415290311533        0.50834743892049        1.01917061405134
H           -1.54602229813346        2.38014996406185       -0.69880505009844
H            0.74430126695381        1.79812014525676       -1.26158144462028
H            0.75484748893762        1.97691032291622        0.49184891950084
H            0.46991906503965       -1.70841470148630        1.20114051945020
H            0.14839574963508       -0.09779289275723        1.87061480132631
H           -1.32730585570414       -2.66886074587966       -0.12154338873389
H            4.05541356718508       -0.49054352015549        1.15523455659680
H            2.46111122072144       -0.78679866287946        1.99040818687317
H            2.74725388817664       -0.16731169129584       -2.12208875801821
H            3.03786067808997        1.39673405469311       -1.36586804344363
H            4.18679958565683        0.08221021928442       -1.11875189811490
27
 energy: -33.611027138398 gnorm: 0.002291269474 xtb: 6.7.1 (edcfbbe)
C           -3.43453927994060        0.58049662973489        0.01827047698661
C           -1.94154264636874        0.48024565416010        0.06719372255327
C           -1.13035510993979        1.45066741111723       -0.32971664715789
C            0.36421177646906        1.37307856292736       -0.32264283885168
C            0.85593953371534       -0.07262915084088       -0.16704538398463
H            0.59215129877910       -0.61377019190489       -1.08511010802535
C            0.07246782008017       -0.71467955526890        0.97570669660499
C           -1.40022676593322       -0.83802683811091        0.57384432097469
H           -1.99106566568844       -1.14392754276700        1.45578756788571
O           -1.59200562033053       -1.79608816640688       -0.46044552942434
C            2.35623074473188       -0.11361114004553       -0.01220002385617
C            2.97793477258586       -0.46493291620078        1.10340958415305
C            3.12721729127435        0.29964090694879       -1.23318951298940
H           -3.83506454467189       -0.25142958792495       -0.56042079153626
H           -3.74852328293829        1.51548621913671       -0.43776649725938
H           -3.85148657276558        0.51931851522799        1.02390452192992
H           -1.54799314094787        2.38489245597810       -0.68240942464135
H            0.74439188595654        1.80646261905521       -1.24974406174315
H            0.75227150926542        1.97907227079477        0.50433999117169
H            0.47004600772025       -1.70534267241554        1.20649661803765
H            0.13780643109235       -0.09569288047928        1.87213175269981
H           -1.29491699102101       -2.66169772497471       -0.15071257048216
H            4.05439011412309       -0.47681747076326        1.16011600731540
H            2.45897861392091       -0.75315298662200        2.00044584354612
H            2.72870996400939       -0.18628984823393       -2.12257500464567
H            3.05141650891249        1.37725704268569       -1.37918681120072
H            4.17949606360722        0.04542911712417       -1.13253630991096
27
 energy: -33.611063808810 gnorm: 0.001552069282 xtb: 6.7.1 (edcfbbe)
C           -3.43409758259976        0.58033062440552        0.02020162049307
C           -1.94148824248121        0.47947233402523        0.06781421682815
C           -1.13081056533132        1.45306901696641       -0.32179734633709
C            0.36339416155805        1.37718405759028       -0.31583415576696
C            0.85470658626384       -0.06910732209219       -0.16552396549747
H            0.59004321184723       -0.60684412941519       -1.08518643677459
C            0.07108073801772       -0.71515305349893        0.97469150938405
C           -1.39926998284380       -0.84048429918386        0.56767063409272
H           -1.99308305885190       -1.15563829309122        1.44315499085185
O           -1.58373552829067       -1.79467710856525       -0.47341580747152
C            2.35498734427166       -0.11235697520675       -0.01152772113820
C            2.97636394141191       -0.45193346748492        1.10747103765492
C            3.12501499183579        0.28507278659045       -1.23770627377685
H           -3.83555938681267       -0.25455148993979       -0.55294146898324
H           -3.74750858044780        1.51268363820868       -0.44082576121110
H           -3.84928056253286        0.52583253539566        1.02652038628585
H           -1.54949224711066        2.38896147652184       -0.66815531828984
H            0.74288723189995        1.81303725431275       -1.24189173802135
H            0.75133607530802        1.98049083427856        0.51285782940494
H            0.47126343897919       -1.70493004078474        1.20382366432999
H            0.13219432464348       -0.09786067310234        1.87222819321853
H           -1.27396142444856       -2.65729181516471       -0.16740840671059
H            4.05219610163258       -0.46597800571921        1.16475650652322
H            2.45621456183458       -0.72583023197018        2.00791446672701
H            2.71808730980226       -0.20179726253563       -2.12200803768351
H            3.06015114636900        1.36207943964251       -1.38971644364778
H            4.17430671177341        0.02017890174857       -1.13922058633442
27
 energy: -33.611091530374 gnorm: 0.001402491086 xtb: 6.7.1 (edcfbbe)
C           -3.43373710603513        0.57981068909975        0.02171234161549
C           -1.94091956197936        0.47889965783236        0.06882932059759
C           -1.13129688695045        1.45620642519988       -0.31291456422091
C            0.36282943005335        1.38185720912058       -0.30918881870167
C            0.85353981914645       -0.06507259047126       -0.16604369618129
H            0.58830415349937       -0.59834805238531       -1.08781126458835
C            0.07052813655924       -0.71786672713599        0.97123984312425
C           -1.39891560764217       -0.84332276278757        0.56211013141963
H           -1.99386887247417       -1.16343751265459        1.43380349839484
O           -1.58021479637484       -1.79427609859369       -0.48283575959774
C            2.35359862915456       -0.11025967590697       -0.01147965930156
C            2.97358901816955       -0.43673513220016        1.11181714795878
C            3.12441029017454        0.27056991097224       -1.24218281948018
H           -3.83413031710509       -0.25727002350959       -0.54798708427566
H           -3.74639329540980        1.51025809613384       -0.44280282191599
H           -3.84760383824267        0.52963260174272        1.02817245472097
H           -1.55116313777097        2.39411647816670       -0.65180067970458
H            0.74036096115974        1.82078800416840       -1.23437616121474
H            0.75167144430796        1.98150930616089        0.52119672746452
H            0.47384878903874       -1.70760121837891        1.19369756709192
H            0.12979089811374       -0.10522073093903        1.87149159278594
H           -1.26005027840832       -2.65405050232522       -0.17919147407148
H            4.04892879985752       -0.45268222791001        1.17115514733042
H            2.45227579242011       -0.69711909853395        2.01502259526798
H            2.71181230061176       -0.22010934955849       -2.12095279864537
H            3.06786313755379        1.34618012139877       -1.40229684349912
H            4.17088281427001       -0.00249806477388       -1.14243833422392
27
 energy: -33.611110544276 gnorm: 0.001127243038 xtb: 6.7.1 (edcfbbe)
C           -3.43383049149773        0.57910626716555        0.02217688155225
C           -1.94052481854894        0.47907678684889        0.07002722172790
C           -1.13152878994843        1.45846709747132       -0.30754862413897
C            0.36285410057023        1.38424870019895       -0.30497022843552
C            0.85333278365685       -0.06317674740300       -0.16739672736784
H            0.58792018393808       -0.59296954286280       -1.09100822086433
C            0.07097032224127       -0.72101348371046        0.96790354266937
C           -1.39915397525773       -0.84492937875659        0.55977153448309
H           -1.99345362002316       -1.16492015854402        1.43222854957360
O           -1.58223803297438       -1.79362828527169       -0.48614756874413
C            2.35319680238619       -0.10880030271316       -0.01206973593990
C            2.97184256101870       -0.42665483603846        1.11448590517050
C            3.12555025114775        0.26266247865488       -1.24489783440723
H           -3.83278861741756       -0.25880265040983       -0.54718524975656
H           -3.74672586226579        1.50906843152364       -0.44316079702919
H           -3.84788630528202        0.52935483384410        1.02852983587427
H           -1.55180431360756        2.39745109874276       -0.64287241288396
H            0.73952015182887        1.82601981421889       -1.22923284398696
H            0.75261578284824        1.98123730016363        0.52677943698124
H            0.47546960079165       -1.71154451279896        1.18460913845770
H            0.13100846858399       -0.11271300284618        1.87095785051586
H           -1.25993057403463       -2.65351523460067       -0.18491153839101
H            4.04726353993108       -0.44307798450894        1.17528906767576
H            2.44968084107405       -0.67930327321567        2.01962017383242
H            2.71218686231266       -0.23292997617979       -2.12057487469821
H            3.07105543849141        1.33730991599788       -1.41188453367298
H            4.17133842573439       -0.01206462303874       -1.14257236004740
27
 energy: -33.611132855778 gnorm: 0.000979200303 xtb: 6.7.1 (edcfbbe)
C           -3.43388579742080        0.57844803792086        0.02224612853659
C           -1.94021929438447        0.47942122105349        0.07104134653677
C           -1.13156531245617        1.46053729475697       -0.30276630277186
C            0.36308579837053        1.38619545290891       -0.30027670567716
C            0.85373269981809       -0.06174622773951       -0.16937317546043
H            0.58878164593757       -0.58721643694949       -1.09550643178484
C            0.07213977693796       -0.72566310323658        0.96308766042868
C           -1.39949460399261       -0.84604079676673        0.55807804438740
H           -1.99167526059878       -1.16370506064153        1.43358165121338
O           -1.58835978559558       -1.79302544492948       -0.48715368486227
C            2.35348204246259       -0.10686457421595       -0.01287706921436
C            2.97066482170741       -0.41499723166534        1.11721021626924
C            3.12763305717521        0.25513811026370       -1.24743414234976
H           -3.83138689146107       -0.25877751869693       -0.54909030088850
H           -3.74743404952892        1.50898731430424       -0.44153949951877
H           -3.84904063627679        0.52619161152331        1.02812406663665
H           -1.55189227229668        2.40058844805556       -0.63509449521910
H            0.73970130430173        1.83200485066491       -1.22280918556585
H            0.75349790959322        1.97975123093926        0.53370538025352
H            0.47660545707993       -1.71781075621499        1.17293925673931
H            0.13455727786143       -0.12309870888361        1.86997289743728
H           -1.26879116664207       -2.65455346220078       -0.18834457341793
H            4.04620950166151       -0.42974158486611        1.18000237209733
H            2.44764579492884       -0.66293545834571        2.02278121386441
H            2.71765530633823       -0.24939643455489       -2.11976523719789
H            3.07040910703273        1.32802028365056       -1.42460531291090
H            4.17388428514439       -0.01575232420263       -1.14018852941115
27
 energy: -33.611157824296 gnorm: 0.001135794593 xtb: 6.7.1 (edcfbbe)
C           -3.43345605753850        0.57778636064136        0.02186407258111
C           -1.93975659412986        0.48013354239655        0.07332208807891
C           -1.13098890657684        1.46299035710354       -0.29582908512029
C            0.36373981136594        1.38830934965068       -0.29297034393676
C            0.85432816539309       -0.06067976257681       -0.17251592710169
H            0.58981679749083       -0.57963856574677       -1.10245600325255
C            0.07376761274849       -0.73219244461048        0.95608041890109
C           -1.40009266868142       -0.84733960147798        0.55661068689389
H           -1.98890908831703       -1.16253224821169        1.43620444167390
O           -1.59791344058094       -1.79220737911013       -0.48811610672855
C            2.35412879630423       -0.10461854501305       -0.01464139141354
C            2.96939742115243       -0.39969327030400        1.12009991959267
C            3.13039954909429        0.24560405694343       -1.25110522620088
H           -3.82895359991221       -0.25762320716284       -0.55385343201779
H           -3.74750001260284        1.50999169866868       -0.43855373544468
H           -3.85075990398408        0.52048935930969        1.02680748174346
H           -1.55105125069056        2.40413013199302       -0.62546327341661
H            0.74126258833595        1.84086344687342       -1.21207553410108
H            0.75406317916204        1.97603425066367        0.54537804969520
H            0.47739745366345       -1.72673868664007        1.15696543813068
H            0.14004772590846       -0.13735847377668        1.86803247834022
H           -1.28429277426192       -2.65713368709021       -0.19259375096964
H            4.04505796333269       -0.41331805375478        1.18449561360320
H            2.44444215136829       -0.63601065683475        2.02892775518645
H            2.72779759338198       -0.27501710094381       -2.11796142017289
H            3.06549708997636        1.31559123398453       -1.44485700919959
H            4.17847111429509       -0.01586337304298       -1.13585061719446
27
 energy: -33.611179640573 gnorm: 0.001338459901 xtb: 6.7.1 (edcfbbe)
C           -3.43290748952380        0.57749559644080        0.02156589723389
C           -1.93932082528540        0.48065910109873        0.07507075989909
C           -1.13054224484093        1.46527403150807       -0.28942791183838
C            0.36414137254504        1.39104177340432       -0.28464654808164
C            0.85497982373321       -0.05878227945558       -0.17479151421178
H            0.59103017408922       -0.57126859380086       -1.10837890039836
C            0.07540592474887       -0.73805321334191        0.94968312977276
C           -1.40021476287383       -0.84852058418533        0.55455081263474
H           -1.98634302771515       -1.16295782466426        1.43665799465603
O           -1.60547808328574       -1.79132550739066       -0.49054921555551
C            2.35484719171455       -0.10195353586125       -0.01588164564929
C            2.96851175303743       -0.38298319114834        1.12348697273238
C            3.13254716491967        0.23429337327134       -1.25545993294234
H           -3.82667101129107       -0.25519795292517       -0.55949285866304
H           -3.74700922957920        1.51193767490823       -0.43447063119016
H           -3.85236697150549        0.51422971775915        1.02542185838117
H           -1.55061713784137        2.40753994105107       -0.61599177310093
H            0.74352257564400        1.85116421642788       -1.19930550627732
H            0.75339380314347        1.97178437692539        0.55916597764920
H            0.47857279306014       -1.73455692200919        1.14252529367276