31
 energy: -746.612795630602 gnorm: 0.000997726273 xtb: 6.7.1 (edcfbbe)
C            1.70867933900390        2.81885114812202        0.93730351909010
C            1.86687898185349        1.65733165656758       -0.01736605071837
C            2.78755970324056        0.53071992909595        0.51477418958432
C            1.99518582627488       -0.71628799472631        0.24397804745188
C            2.32718810305477       -2.06054428100091        0.31360069752613
C            1.34642810820319       -3.01753409948050        0.03311688959728
C            0.05098067275967       -2.62756319228306       -0.30526911341703
C           -0.27342325158950       -1.27810187592200       -0.37833156000828
C            0.70399406591029       -0.33028836570368       -0.10560005252387
O            0.51285058391992        1.01409927500577       -0.14148511960517
O           -1.54789449342120       -0.89092988804384       -0.80332792209261
C           -2.31898392843832       -0.20953297256919        0.12966842880836
O           -2.00521372541565       -0.10214396419013        1.30873917139814
N           -3.43195677806501        0.26611606175680       -0.43793285358497
C           -4.41216917945612        1.00928636351611        0.34305958388281
C            2.25838172252745        2.09589878883242       -1.41643276821276
H            0.99410348195833        3.54905582321471        0.54615794857828
H            1.36661912718718        2.47056822147065        1.91586351783752
H            2.67455689840939        3.31678191668414        1.06493495285663
H            3.75422523167906        0.54034339759219        0.00343419924571
H            2.97267326865180        0.64728098105574        1.58916966747217
H            3.33347326396210       -2.36617161738987        0.58236388206185
H            1.58906406814982       -4.07361436862081        0.08008634653968
H           -0.71671450846009       -3.36294338526970       -0.52338020726105
H           -3.55632921640627        0.15535837482634       -1.43235298315815
H           -3.99753064550774        1.95409873287526        0.70863049357417
H           -4.75431093183405        0.41937708259380        1.19775226894032
H           -5.26634513623727        1.22452076038137       -0.29882197998950
H            3.23676100102142        2.58513629396519       -1.38827671002704
H            1.52621804819717        2.80282215867424       -1.81733868188200
H            2.32292031573261        1.23170810027212       -2.08562037787814
31
 energy: -746.612798265319 gnorm: 0.000388385069 xtb: 6.7.1 (edcfbbe)
C            1.70860769440838        2.81956252787660        0.93665529231225
C            1.86635050632016        1.65738436937516       -0.01716407279558
C            2.78682388808492        0.53112675582591        0.51601353136463
C            1.99485057896805       -0.71593877297579        0.24484394006127
C            2.32731386974307       -2.06028568542654        0.31341546598021
C            1.34683828467507       -3.01732552827735        0.03205423235950
C            0.05130084732593       -2.62733786552606       -0.30636686521230
C           -0.27350673732825       -1.27792680318034       -0.37856882980215
C            0.70356801923928       -0.33006586360828       -0.10487531154006
O            0.51228387061875        1.01421621701376       -0.14058640805941
O           -1.54778056913690       -0.89090645321809       -0.80344861058878
C           -2.31956130691140       -0.21071494197707        0.12962566075400
O           -2.00529072329362       -0.10314670670882        1.30884634221761
N           -3.43173290926374        0.26639064282554       -0.43791085598269
C           -4.41151140082746        1.00969055856737        0.34359117147118
C            2.25836583152077        2.09457597585493       -1.41650737317826
H            0.99494967863147        3.55020177023639        0.54424296298958
H            1.36535248230637        2.47215372923382        1.91534937960374
H            2.67499913440603        3.31682011940855        1.06494726053659
H            3.75395655915155        0.54060001917849        0.00545719982012
H            2.97116609894142        0.64799321424874        1.59056002374053
H            3.33371268177381       -2.36599886439104        0.58205405368862
H            1.58985758550692       -4.07344221617883        0.07818903328236
H           -0.71619243881121       -3.36278314305015       -0.52489763533723
H           -3.55715333635103        0.15504962357779       -1.43232663987236
H           -3.99574704893704        1.95384349982396        0.71025018105541
H           -4.75431302015823        0.41898067758188        1.19792343328128
H           -5.26562904459523        1.22630509491109       -0.29848270849006
H            3.23652383287752        2.58459538233679       -1.38867900726624
H            1.52573479778804        2.80056444606970       -1.81837316445152
H            2.32373290586797        1.22951781959208       -2.08473324092798
31
 energy: -746.612798265319 gnorm: 0.000388385069 xtb: 6.7.1 (edcfbbe)
C            1.70860769440838        2.81956252787660        0.93665529231225
C            1.86635050632016        1.65738436937516       -0.01716407279558
C            2.78682388808492        0.53112675582591        0.51601353136463
C            1.99485057896805       -0.71593877297579        0.24484394006127
C            2.32731386974307       -2.06028568542654        0.31341546598021
C            1.34683828467507       -3.01732552827735        0.03205423235950
C            0.05130084732593       -2.62733786552606       -0.30636686521230
C           -0.27350673732825       -1.27792680318034       -0.37856882980215
C            0.70356801923928       -0.33006586360828       -0.10487531154006
O            0.51228387061875        1.01421621701376       -0.14058640805941
O           -1.54778056913690       -0.89090645321809       -0.80344861058878
C           -2.31956130691140       -0.21071494197707        0.12962566075400
O           -2.00529072329362       -0.10314670670882        1.30884634221761
N           -3.43173290926374        0.26639064282554       -0.43791085598269
C           -4.41151140082746        1.00969055856737        0.34359117147118
C            2.25836583152077        2.09457597585493       -1.41650737317826
H            0.99494967863147        3.55020177023639        0.54424296298958
H            1.36535248230637        2.47215372923382        1.91534937960374
H            2.67499913440603        3.31682011940855        1.06494726053659
H            3.75395655915155        0.54060001917849        0.00545719982012
H            2.97116609894142        0.64799321424874        1.59056002374053
H            3.33371268177381       -2.36599886439104        0.58205405368862
H            1.58985758550692       -4.07344221617883        0.07818903328236
H           -0.71619243881121       -3.36278314305015       -0.52489763533723
H           -3.55715333635103        0.15504962357779       -1.43232663987236
H           -3.99574704893704        1.95384349982396        0.71025018105541
H           -4.75431302015823        0.41898067758188        1.19792343328128
H           -5.26562904459523        1.22630509491109       -0.29848270849006
H            3.23652383287752        2.58459538233679       -1.38867900726624
H            1.52573479778804        2.80056444606970       -1.81837316445152
H            2.32373290586797        1.22951781959208       -2.08473324092798
