12
 energy: -17.475598912489 gnorm: 0.031478035720 xtb: 6.7.1 (edcfbbe)
C           -2.18534691189411       -0.03187385827545       -0.00378811439604
C           -0.69737928696607       -0.03649137207935       -0.00272086102963
C            0.14901696261256       -1.11646147065407        0.01759823161845
N            1.42519936949474       -0.59442505611405        0.00835455637789
C            1.30932577573472        0.75579346401178       -0.01683678191688
N            0.04164680325020        1.13629037832657       -0.02412864827155
H           -2.58018108967319        0.46340546212692       -0.89753943281543
H           -2.57204460379040       -1.05340899719047        0.01872777425876
H           -2.58123608899782        0.50278763176403        0.86646007007965
H           -0.03640123031201       -2.17970379475909        0.03717787822050
H            2.28840260010183       -1.11810891990360        0.01821615124400
H            2.17082867380825        1.40980839634881       -0.02857188839919
12
 energy: -17.476747286402 gnorm: 0.009934507498 xtb: 6.7.1 (edcfbbe)
C           -2.18112193670282       -0.03132417434737       -0.00374420373299
C           -0.69586393054356       -0.03897157031472       -0.00280640235993
C            0.15071115385134       -1.11304030898516        0.01742237534362
N            1.42066752271773       -0.59667453045325        0.00838502343035
C            1.29382895927188        0.74752511905002       -0.01661349490389
N            0.03819555207241        1.12248429710133       -0.02411332583227
H           -2.55995741853861        0.46893689229973       -0.89543086988117
H           -2.55916126652091       -1.05186085768757        0.01875837628330
H           -2.56088672563973        0.50824390560554        0.86428317495850
H           -0.03523623606002       -2.16746393060869        0.03693607287226
H            2.28227626037102       -1.11903143531795        0.01833688900682
H            2.13837903908997        1.40878845726010       -0.02846468021407
12
 energy: -17.476855198177 gnorm: 0.001977813822 xtb: 6.7.1 (edcfbbe)
C           -2.18147646928458       -0.03092301260930       -0.00377839797032
C           -0.69448277331415       -0.03998986730107       -0.00278334974355
C            0.15369057913408       -1.11257895909750        0.01746774555137
N            1.42175815043044       -0.59855461104714        0.00842552861428
C            1.28993003552763        0.74438621770807       -0.01659434255585
N            0.03857507608297        1.11596820202584       -0.02386863981920
H           -2.55426786856645        0.47114031237106       -0.89434987023348
H           -2.55870665712344       -1.04952526185363        0.01855297500327
H           -2.55516151605381        0.51016989305083        0.86320337317527
H           -0.03526576573616       -2.16456091977283        0.03696414786072
H            2.28176136580998       -1.12190162855926        0.01841460905816
H            2.12547681646219        1.41398149868694       -0.02870484397013
12
 energy: -17.476865290337 gnorm: 0.001324027788 xtb: 6.7.1 (edcfbbe)
C           -2.18219597231621       -0.03097248430471       -0.00374772005483
C           -0.69407328165097       -0.04015750966412       -0.00284446854759
C            0.15498941427386       -1.11295788350065        0.01741460706460
N            1.42307221153685       -0.59933242910296        0.00844234903861
C            1.29064982918878        0.74415810030665       -0.01658089291890
N            0.03907108085489        1.11496312572804       -0.02412573290867
H           -2.55325524851725        0.47152738315564       -0.89455313693226
H           -2.55943700184477       -1.04925860254920        0.01853660221679
H           -2.55405014579551        0.51046168846862        0.86356515615750
H           -0.03704681866778       -2.16497599834608        0.03694493772365
H            2.28161764798381       -1.12488037331890        0.01859831017124
H            2.12248925832300        1.41903684672968       -0.02870107603962
12
 energy: -17.476867000587 gnorm: 0.000421938085 xtb: 6.7.1 (edcfbbe)
C           -2.18198687038630       -0.03108668783149       -0.00380974987714
C           -0.69388116146169       -0.03995303342441       -0.00279593708820
C            0.15520341165356       -1.11282664863255        0.01756477615152
N            1.42338608069639       -0.59920807263365        0.00845393772910
C            1.29163371392334        0.74428381504228       -0.01667151715107
N            0.03944656716604        1.11551012500132       -0.02382140280574
H           -2.55357468933851        0.47132785873907       -0.89459319751915
H           -2.55902152330941       -1.04960874853955        0.01824554404337
H           -2.55444776444129        0.50987068848896        0.86368609781100
H           -0.03821539064943       -2.16473880190880        0.03710700011212
H            2.28097800057399       -1.12650663597412        0.01858278591919
H            2.12231059894199        1.42054800527496       -0.02899940235448
12
 energy: -17.476867175933 gnorm: 0.000162918605 xtb: 6.7.1 (edcfbbe)
C           -2.18178305313841       -0.03112171475686       -0.00372321391429
C           -0.69381599818883       -0.03986151712126       -0.00289375448595
C            0.15527263316933       -1.11266630943217        0.01740488349389
N            1.42339463472348       -0.59905950800847        0.00846230019617
C            1.29168634807604        0.74418258198027       -0.01661423116625
N            0.03955258149474        1.11552233680655       -0.02440123236222
H           -2.55360144103331        0.47123325438133       -0.89443454559105
H           -2.55869350747714       -1.04970563508959        0.01836253549815
H           -2.55436789062285        0.50979322427476        0.86375461353720
H           -0.03835875653857       -2.16443043310164        0.03697827790537
H            2.28057295046876       -1.12704712544109        0.01878631898656
H            2.12197247243547        1.42077270911019       -0.02873301712704
12
 energy: -17.476867205817 gnorm: 0.000107643739 xtb: 6.7.1 (edcfbbe)
C           -2.18174112088832       -0.03113137530594       -0.00381567718078
C           -0.69382793427249       -0.03982889664435       -0.00281498267556
C            0.15527192824785       -1.11261839605825        0.01761069143086
N            1.42339756372048       -0.59897199824331        0.00846754264943
C            1.29164998743710        0.74418089585694       -0.01671819342625
N            0.03955039500212        1.11555371769367       -0.02391413634133
H           -2.55356810295577        0.47143778173724       -0.89442446642566
H           -2.55865108298432       -1.04972738247330        0.01801320233569
H           -2.55444658369832        0.50957171954068        0.86375026021776
H           -0.03823105781584       -2.16438810716390        0.03720909284235
H            2.28043867296147       -1.12718471068796        0.01866523734728
H            2.12198830861473        1.42071861535050       -0.02907963580327
