 Entering Gaussian System
 *********************************************
 Gaussian 98:
 frequency output generated by the xtb code
 *********************************************
                         Standard orientation:
 --------------------------------------------------------------------
  Center     Atomic     Atomic              Coordinates (Angstroms)
  Number     Number      Type              X           Y           Z
 --------------------------------------------------------------------
    1          6             0       -1.728646    0.348713   -0.588855
    2          6             0       -0.881994    0.341725    0.679548
    3          6             0        0.584254   -0.071024    0.481710
    4          6             0        0.711477   -1.502274   -0.036869
    5          6             0        1.332594    0.895084   -0.434917
    6          1             0       -2.745127    0.652762   -0.349123
    7          1             0       -1.769234   -0.640392   -1.036564
    8          1             0       -1.331153    1.047457   -1.319731
    9          1             0       -0.900814    1.341834    1.120006
   10          1             0       -1.336662   -0.341307    1.401576
   11          1             0        1.056983   -0.029195    1.471080
   12          1             0        0.338489   -1.579435   -1.054832
   13          1             0        0.150433   -2.189432    0.592433
   14          1             0        1.754706   -1.809899   -0.035756
   15          1             0        0.961021    0.827605   -1.454086
   16          1             0        2.393393    0.655214   -0.446175
   17          1             0        1.216132    1.919703   -0.089122
 --------------------------------------------------------------------
     1 basis functions        1 primitive gaussians
     1 alpha electrons        1 beta electrons
 
 Harmonic frequencies (cm**-1), IR intensities (km*mol⁻¹),
 Raman scattering activities (A**4/amu), Raman depolarization ratios,
 reduced masses (AMU), force constants (mDyne/A) and normal coordinates:
                      1                      2                      3
                        a                      a                      a 
 Frequencies --    73.7037               186.5097               232.7096
 Red. masses --     5.9693                 1.1661                 1.7074
 Frc consts  --     0.0000                 0.0000                 0.0000
 IR Inten    --     0.0220                 0.0646                 0.1505
 Raman Activ --     0.0000                 0.0000                 0.0000
 Depolar     --     0.0000                 0.0000                 0.0000
 Atom AN      X      Y      Z        X      Y      Z        X      Y      Z
   1   6    -0.11  -0.42   0.07    -0.01  -0.05   0.01    -0.12   0.02  -0.08
   2   6     0.06   0.24  -0.04     0.01   0.04  -0.01    -0.04  -0.01  -0.11
   3   6     0.01   0.04  -0.01     0.01   0.04  -0.01    -0.01   0.00  -0.00
   4   6    -0.18   0.10  -0.23    -0.03   0.01   0.06     0.08  -0.02   0.09
   5   6     0.23   0.07   0.20     0.02  -0.02  -0.06     0.08  -0.00   0.08
   6   1     0.01   0.05  -0.01    -0.09  -0.36   0.06    -0.03   0.01   0.01
   7   1    -0.17  -0.22   0.25     0.29   0.05  -0.17    -0.05   0.01  -0.03
   8   1     0.02  -0.34  -0.16    -0.22   0.23   0.12    -0.05   0.01  -0.03
   9   1     0.06   0.14  -0.17    -0.01   0.01  -0.01    -0.01  -0.00  -0.03
  10   1     0.03   0.19   0.11     0.02   0.01   0.00    -0.01  -0.00  -0.03
  11   1    -0.01  -0.05   0.01     0.00   0.02  -0.00    -0.02   0.01   0.01
  12   1     0.03   0.11  -0.10     0.28   0.06  -0.09    -0.32  -0.12   0.16
  13   1    -0.16   0.04  -0.15    -0.27   0.06  -0.16     0.35  -0.05   0.26
  14   1    -0.07  -0.04   0.01    -0.04  -0.12   0.32     0.07   0.15  -0.32
  15   1     0.03   0.14   0.06    -0.21   0.21   0.05    -0.21   0.30   0.09
  16   1     0.04  -0.08   0.01    -0.04  -0.21  -0.26    -0.04  -0.26  -0.25
  17   1     0.17   0.00   0.15     0.27  -0.03   0.15     0.35  -0.04   0.26
                      4                      5                      6
                        a                      a                      a 
 Frequencies --   260.6424               280.4106               364.7639
 Red. masses --     3.0484                 8.1264                 7.1095
 Frc consts  --     0.0000                 0.0000                 0.0000
 IR Inten    --     0.0804                 0.4127                 0.0025
 Raman Activ --     0.0000                 0.0000                 0.0000
 Depolar     --     0.0000                 0.0000                 0.0000
 Atom AN      X      Y      Z        X      Y      Z        X      Y      Z
   1   6     0.05   0.18  -0.03    -0.56   0.16   0.11     0.02   0.08  -0.01
   2   6    -0.03  -0.14   0.02    -0.09  -0.01  -0.19     0.10   0.40  -0.07
   3   6    -0.01  -0.05   0.01    -0.04  -0.01  -0.10    -0.07  -0.29   0.05
   4   6     0.22  -0.06   0.09     0.35  -0.03   0.04     0.27  -0.24  -0.09
   5   6    -0.24   0.03  -0.09     0.32  -0.13   0.06    -0.35  -0.04   0.14
   6   1     0.11   0.44  -0.07    -0.12   0.06   0.17    -0.02  -0.08   0.01
   7   1    -0.31  -0.01   0.15    -0.23   0.06   0.01     0.10   0.01   0.02
   8   1     0.26  -0.20  -0.11    -0.23   0.06   0.01    -0.09   0.05  -0.03
   9   1    -0.00  -0.06   0.06     0.00  -0.01  -0.03     0.20   0.20  -0.20
  10   1    -0.03  -0.07  -0.04     0.01  -0.00  -0.03    -0.07   0.32   0.12
  11   1     0.01   0.02  -0.00    -0.09   0.02   0.01    -0.03  -0.10   0.02
  12   1     0.28   0.00  -0.06     0.22  -0.04  -0.03     0.10  -0.09  -0.04
  13   1    -0.10  -0.00  -0.10     0.06  -0.02  -0.04     0.15  -0.14  -0.05
  14   1     0.05  -0.05   0.26     0.12   0.04   0.15     0.11   0.05  -0.02
  15   1    -0.24   0.15   0.03     0.21  -0.08  -0.02    -0.13  -0.01   0.05
  16   1    -0.09  -0.09  -0.24     0.09  -0.05   0.16    -0.08   0.10  -0.01
  17   1     0.09  -0.02   0.10     0.06  -0.02  -0.04    -0.19  -0.03   0.08
                      7                      8                      9
                        a                      a                      a 
 Frequencies --   373.3089               535.9151               810.3028
 Red. masses --     7.5414                 7.5904                 2.5192
 Frc consts  --     0.0000                 0.0000                 0.0000
 IR Inten    --     0.6611                 3.8433                 8.3533
 Raman Activ --     0.0000                 0.0000                 0.0000
 Depolar     --     0.0000                 0.0000                 0.0000
 Atom AN      X      Y      Z        X      Y      Z        X      Y      Z
   1   6    -0.11   0.03  -0.00     0.16  -0.02   0.14    -0.03  -0.10   0.02
   2   6     0.21  -0.09  -0.20    -0.24   0.11   0.29    -0.08  -0.31   0.05
   3   6     0.19  -0.09  -0.25    -0.35   0.02  -0.44    -0.01  -0.03   0.01
   4   6    -0.19  -0.32   0.22     0.06  -0.18  -0.02     0.02   0.08   0.04
   5   6     0.00   0.42   0.10     0.14   0.12  -0.07     0.01   0.07  -0.06
   6   1    -0.00   0.02   0.10    -0.01  -0.03  -0.17     0.04   0.14  -0.03
   7   1    -0.09   0.02  -0.02     0.18  -0.03   0.08    -0.15   0.14  -0.35
   8   1    -0.09   0.02  -0.02     0.18  -0.04   0.08     0.23   0.15   0.30
   9   1     0.08  -0.03  -0.04    -0.02   0.03   0.10     0.13   0.13  -0.45
  10   1     0.08  -0.03  -0.05    -0.02   0.02   0.10    -0.02   0.30   0.38
  11   1     0.05  -0.02  -0.07    -0.05  -0.01  -0.14     0.02   0.06  -0.01
  12   1    -0.07  -0.20   0.08     0.09  -0.28  -0.02    -0.03   0.08   0.02
  13   1    -0.14   0.07   0.17     0.08  -0.02   0.08    -0.04   0.05  -0.00
  14   1    -0.09  -0.22   0.11     0.06   0.09   0.11    -0.01  -0.05  -0.02
  15   1     0.04   0.22   0.01     0.21   0.18  -0.09     0.07   0.04  -0.04
  16   1     0.03   0.26   0.03     0.02  -0.07   0.14    -0.01  -0.04   0.04
  17   1    -0.15   0.06   0.17     0.09   0.01   0.08     0.05   0.02  -0.01
                     10                     11                     12
                        a                      a                      a 
 Frequencies --   818.2798               945.2059               955.5388
 Red. masses --     8.5579                 2.6249                 6.4358
 Frc consts  --     0.0000                 0.0000                 0.0000
 IR Inten    --     0.6547                 0.8797                 0.9055
 Raman Activ --     0.0000                 0.0000                 0.0000
 Depolar     --     0.0000                 0.0000                 0.0000
 Atom AN      X      Y      Z        X      Y      Z        X      Y      Z
   1   6     0.22  -0.04   0.14    -0.01  -0.03   0.00     0.25  -0.05   0.10
   2   6     0.35  -0.14  -0.26    -0.00  -0.01   0.00     0.04  -0.03  -0.15
   3   6    -0.29   0.03  -0.25     0.03   0.12  -0.02    -0.26   0.11   0.23
   4   6    -0.10   0.34   0.06     0.02   0.02  -0.25    -0.11  -0.35   0.00
   5   6    -0.24  -0.22   0.15     0.01   0.10   0.23     0.07   0.34  -0.11
   6   1     0.12   0.01   0.26     0.01   0.03  -0.01     0.15   0.02   0.34
   7   1    -0.06   0.01   0.00    -0.03   0.02  -0.05    -0.12   0.02  -0.01
   8   1    -0.06   0.02   0.01     0.04   0.02   0.04    -0.11   0.04  -0.02
   9   1     0.12  -0.04  -0.06    -0.02   0.01  -0.03    -0.08   0.01  -0.08
  10   1     0.12  -0.04  -0.06     0.03   0.01   0.03    -0.08   0.01  -0.08
  11   1    -0.09   0.01  -0.06    -0.08  -0.30   0.05    -0.11   0.04   0.08
  12   1     0.04  -0.06   0.00     0.02  -0.45  -0.03     0.05   0.02  -0.04
  13   1     0.03   0.10   0.07    -0.01   0.29   0.24     0.07  -0.32  -0.16
  14   1     0.01   0.23   0.12    -0.01  -0.04   0.15     0.03   0.10  -0.03
  15   1     0.07   0.03  -0.01    -0.23  -0.35   0.17     0.03  -0.05  -0.03
  16   1    -0.09  -0.16   0.18    -0.02  -0.08  -0.13    -0.02  -0.10   0.01
  17   1    -0.02  -0.08   0.10     0.13   0.16  -0.31     0.20   0.18  -0.24
                     13                     14                     15
                        a                      a                      a 
 Frequencies --   984.9710              1037.0855              1040.2409
 Red. masses --     3.3524                 5.7352                 5.6037
 Frc consts  --     0.0000                 0.0000                 0.0000
 IR Inten    --     0.8684                 3.0636                 2.7763
 Raman Activ --     0.0000                 0.0000                 0.0000
 Depolar     --     0.0000                 0.0000                 0.0000
 Atom AN      X      Y      Z        X      Y      Z        X      Y      Z
   1   6     0.02   0.07  -0.01    -0.08  -0.05  -0.42    -0.05  -0.17   0.03
   2   6    -0.01  -0.02   0.00     0.13   0.03   0.41     0.08   0.29  -0.05
   3   6     0.03   0.11  -0.02     0.11  -0.01   0.13     0.09   0.34  -0.06
   4   6     0.28  -0.11  -0.06    -0.11   0.03  -0.07     0.03  -0.27  -0.08
   5   6    -0.30   0.06   0.07    -0.11   0.01  -0.07    -0.15  -0.18   0.16
   6   1    -0.02  -0.06   0.01     0.05   0.01   0.17     0.03   0.12  -0.02
   7   1     0.05  -0.03   0.11    -0.22   0.02  -0.16    -0.12   0.07  -0.24
   8   1    -0.07  -0.04  -0.09    -0.21   0.03  -0.17     0.16   0.08   0.21
   9   1     0.11  -0.01   0.02    -0.07   0.03   0.06    -0.40   0.05   0.02
  10   1    -0.10   0.03  -0.03    -0.08   0.03   0.06     0.38  -0.15  -0.00
  11   1     0.05   0.18  -0.03     0.37  -0.12  -0.12     0.05   0.17  -0.03
  12   1    -0.15   0.10   0.05     0.09  -0.19  -0.04     0.01  -0.03  -0.03
  13   1    -0.14   0.21   0.05     0.07  -0.01   0.04     0.01  -0.11  -0.06
  14   1    -0.06  -0.46  -0.17     0.03   0.18   0.13     0.01  -0.07  -0.05
  15   1     0.18  -0.00  -0.07     0.16   0.10  -0.09    -0.02  -0.01   0.03
  16   1    -0.15  -0.36   0.30    -0.05  -0.12   0.18    -0.04  -0.04   0.07
  17   1     0.22   0.09  -0.10     0.07  -0.01   0.04    -0.06  -0.07   0.09
                     16                     17                     18
                        a                      a                      a 
 Frequencies --  1059.8699              1155.9998              1184.3247
 Red. masses --     4.7572                 6.7351                 6.5304
 Frc consts  --     0.0000                 0.0000                 0.0000
 IR Inten    --    12.3189                 6.3982                 1.6850
 Raman Activ --     0.0000                 0.0000                 0.0000
 Depolar     --     0.0000                 0.0000                 0.0000
 Atom AN      X      Y      Z        X      Y      Z        X      Y      Z
   1   6     0.33  -0.07   0.09    -0.04   0.06   0.30     0.06   0.23  -0.04
   2   6    -0.36   0.09  -0.01    -0.11  -0.03  -0.36    -0.09  -0.33   0.06
   3   6     0.03  -0.01  -0.02     0.28  -0.02   0.34     0.11   0.43  -0.07
   4   6     0.17   0.06  -0.10    -0.14   0.02  -0.16    -0.12  -0.18  -0.11
   5   6     0.11  -0.16  -0.07    -0.14  -0.00  -0.16     0.03  -0.17   0.17
   6   1     0.18   0.02   0.41    -0.06  -0.01  -0.13    -0.02  -0.09   0.01
   7   1    -0.17   0.02  -0.02     0.17  -0.01   0.12     0.10  -0.05   0.22
   8   1    -0.16   0.06  -0.03     0.16  -0.03   0.12    -0.13  -0.06  -0.20
   9   1    -0.26   0.06  -0.08    -0.15   0.01  -0.14     0.09   0.02  -0.20
  10   1    -0.27   0.05  -0.08    -0.15   0.02  -0.14    -0.05   0.12   0.18
  11   1     0.01  -0.00  -0.01     0.19  -0.05   0.03     0.10   0.38  -0.06
  12   1    -0.07  -0.07   0.02     0.08  -0.26  -0.06     0.07  -0.14  -0.06
  13   1    -0.07   0.23   0.11     0.07   0.03   0.08     0.06  -0.12  -0.04
  14   1    -0.02  -0.20  -0.02     0.01   0.14   0.13     0.01   0.08   0.02
  15   1    -0.03   0.09  -0.01     0.19   0.16  -0.13    -0.12  -0.07   0.10
  16   1     0.07   0.18  -0.08    -0.05  -0.08   0.16     0.03   0.07  -0.04
  17   1    -0.16  -0.12   0.17     0.06  -0.03   0.09    -0.10  -0.06   0.07
                     19                     20                     21
                        a                      a                      a 
 Frequencies --  1210.4392              1270.4670              1328.7320
 Red. masses --     6.7822                 2.3743                 5.6569
 Frc consts  --     0.0000                 0.0000                 0.0000
 IR Inten    --     4.8106                 0.1367                 5.4950
 Raman Activ --     0.0000                 0.0000                 0.0000
 Depolar     --     0.0000                 0.0000                 0.0000
 Atom AN      X      Y      Z        X      Y      Z        X      Y      Z
   1   6    -0.08   0.00  -0.10     0.07   0.26  -0.04     0.10  -0.04  -0.09
   2   6     0.26  -0.06   0.06    -0.03  -0.13   0.02    -0.31   0.09   0.04
   3   6    -0.32   0.15   0.41    -0.02  -0.07   0.01     0.47  -0.14  -0.09
   4   6     0.09  -0.06  -0.25     0.06   0.04   0.08    -0.14   0.02  -0.05
   5   6     0.09  -0.07  -0.25    -0.04   0.04  -0.10    -0.13   0.04  -0.05
   6   1    -0.02  -0.00  -0.04    -0.02  -0.09   0.01     0.06   0.00   0.12
   7   1     0.01   0.00  -0.03     0.09  -0.04   0.21    -0.08  -0.02   0.01
   8   1     0.00  -0.01  -0.03    -0.11  -0.06  -0.19    -0.07   0.05  -0.01
   9   1     0.15  -0.04   0.08    -0.45   0.09  -0.29     0.20  -0.03   0.14
  10   1     0.16  -0.02   0.07     0.46  -0.05   0.28     0.20  -0.02   0.14
  11   1    -0.32   0.12   0.22    -0.10  -0.38   0.06    -0.50   0.17   0.26
  12   1    -0.05  -0.24  -0.01    -0.03   0.08   0.03     0.07  -0.04  -0.04
  13   1    -0.03   0.17   0.10    -0.02   0.00  -0.02     0.07  -0.02   0.05
  14   1    -0.02  -0.15   0.04    -0.00  -0.05  -0.03     0.01   0.13   0.06
  15   1     0.06   0.22  -0.09     0.06   0.04  -0.05     0.07  -0.01  -0.05
  16   1     0.06   0.15  -0.01    -0.02  -0.03   0.04    -0.05  -0.10   0.10
  17   1    -0.10  -0.09   0.15     0.02  -0.00   0.01     0.07  -0.00   0.04
                     22                     23                     24
                        a                      a                      a 
 Frequencies --  1339.2609              1357.9367              1404.2193
 Red. masses --     4.8050                 3.9927                 3.4156
 Frc consts  --     0.0000                 0.0000                 0.0000
 IR Inten    --    12.6732                 9.8903                 1.7357
 Raman Activ --     0.0000                 0.0000                 0.0000
 Depolar     --     0.0000                 0.0000                 0.0000
 Atom AN      X      Y      Z        X      Y      Z        X      Y      Z
   1   6    -0.01  -0.05   0.01    -0.04   0.03   0.10    -0.00  -0.01   0.00
   2   6    -0.01  -0.06   0.01     0.38  -0.06   0.24     0.01   0.02  -0.00
   3   6     0.13   0.52  -0.09     0.13  -0.06  -0.17    -0.03  -0.13   0.02
   4   6     0.01  -0.07   0.14    -0.03  -0.03  -0.02    -0.02   0.31   0.07
   5   6    -0.05  -0.09  -0.11    -0.01   0.04  -0.03     0.16   0.22  -0.16
   6   1     0.00   0.02  -0.00    -0.08  -0.01  -0.21     0.01   0.03  -0.01
   7   1    -0.01   0.00  -0.04    -0.03   0.06  -0.11     0.01   0.00  -0.00
   8   1     0.01   0.01   0.03    -0.06  -0.07  -0.09    -0.01   0.01  -0.00
   9   1     0.21  -0.03   0.05    -0.42   0.08  -0.17    -0.03   0.01  -0.00
  10   1    -0.21   0.06  -0.06    -0.42   0.08  -0.17     0.03  -0.01   0.01
  11   1    -0.16  -0.63   0.11    -0.39   0.13   0.16     0.03   0.13  -0.02
  12   1     0.04   0.02   0.01    -0.00   0.05  -0.01     0.05  -0.37   0.01
  13   1     0.02  -0.16  -0.11    -0.01   0.04   0.03     0.11  -0.26  -0.21
  14   1    -0.01  -0.08  -0.11     0.02   0.09   0.02    -0.10  -0.32  -0.09
  15   1    -0.03   0.04  -0.02    -0.03  -0.05   0.01    -0.22  -0.28   0.09
  16   1    -0.02  -0.04   0.13    -0.02  -0.08   0.05    -0.05  -0.28   0.19
  17   1    -0.08  -0.09   0.15    -0.03  -0.02   0.04    -0.20  -0.10   0.27
                     25                     26                     27
                        a                      a                      a 
 Frequencies --  1409.6087              1417.7374              1489.4464
 Red. masses --     3.2595                 3.2059                 1.7389
 Frc consts  --     0.0000                 0.0000                 0.0000
 IR Inten    --     2.5880                 2.6372                 1.1754
 Raman Activ --     0.0000                 0.0000                 0.0000
 Depolar     --     0.0000                 0.0000                 0.0000
 Atom AN      X      Y      Z        X      Y      Z        X      Y      Z
   1   6     0.25  -0.01   0.34    -0.04   0.01  -0.02    -0.03   0.02   0.06
   2   6    -0.12   0.02  -0.05     0.04   0.00   0.08     0.05  -0.05  -0.22
   3   6    -0.01   0.01   0.05     0.05  -0.02  -0.06     0.03  -0.01   0.00
   4   6     0.01   0.03  -0.00    -0.04   0.28   0.11     0.02  -0.00   0.07
   5   6    -0.00  -0.03   0.01    -0.16  -0.18   0.19     0.03   0.01   0.06
   6   1    -0.11  -0.05  -0.46     0.01   0.01   0.05     0.03   0.01   0.09
   7   1    -0.30   0.19  -0.36     0.04   0.00  -0.01     0.11   0.08  -0.19
   8   1    -0.38  -0.12  -0.30     0.04  -0.03  -0.01     0.04  -0.18  -0.15
   9   1     0.15   0.00  -0.01    -0.04   0.03  -0.07    -0.23  -0.21   0.47
  10   1     0.13  -0.07   0.01    -0.06  -0.03  -0.06    -0.06   0.43   0.36
  11   1     0.08  -0.02  -0.03    -0.10   0.03   0.04    -0.00   0.00   0.00
  12   1    -0.03  -0.05   0.02     0.09  -0.34   0.00     0.03  -0.12   0.00
  13   1     0.00  -0.04  -0.04     0.11  -0.27  -0.21    -0.16   0.05  -0.09
  14   1    -0.01  -0.02   0.03    -0.10  -0.31  -0.14     0.03   0.10  -0.16
  15   1    -0.00   0.06  -0.00     0.25   0.24  -0.10     0.08   0.09  -0.03
  16   1     0.01   0.03   0.02     0.05   0.26  -0.23    -0.03  -0.14  -0.12
  17   1     0.02   0.02  -0.05     0.21   0.11  -0.27    -0.17   0.01  -0.09
                     28                     29                     30
                        a                      a                      a 
 Frequencies --  1491.7002              1495.6950              1500.7099
 Red. masses --     1.5615                 1.5649                 1.7601
 Frc consts  --     0.0000                 0.0000                 0.0000
 IR Inten    --     0.0201                 0.3871                 0.5162
 Raman Activ --     0.0000                 0.0000                 0.0000
 Depolar     --     0.0000                 0.0000                 0.0000
 Atom AN      X      Y      Z        X      Y      Z        X      Y      Z
   1   6     0.02   0.10  -0.02    -0.02  -0.09   0.01    -0.13   0.05   0.08
   2   6     0.00   0.01  -0.00    -0.00  -0.01   0.00    -0.11   0.05   0.13
   3   6     0.01   0.03  -0.00    -0.01  -0.05   0.01     0.02  -0.00   0.03
   4   6     0.14  -0.00   0.02     0.02  -0.04   0.13     0.01  -0.05   0.05
   5   6    -0.12   0.06  -0.02    -0.05  -0.06  -0.12     0.03   0.05   0.03
   6   1    -0.08  -0.32   0.05     0.08   0.30  -0.05     0.06   0.03   0.27
   7   1    -0.21   0.01  -0.00     0.20  -0.02   0.01     0.30   0.14  -0.32
   8   1     0.19  -0.09   0.01    -0.18   0.08  -0.02     0.17  -0.36  -0.24
   9   1     0.02  -0.01   0.02    -0.02   0.00  -0.01     0.18   0.13  -0.26
  10   1    -0.02   0.01  -0.01     0.02  -0.01   0.01     0.08  -0.27  -0.20
  11   1     0.00   0.01  -0.00     0.01   0.05  -0.01    -0.01   0.01   0.02
  12   1    -0.33  -0.19   0.14     0.16  -0.18  -0.04     0.07  -0.05  -0.02
  13   1    -0.29  -0.03  -0.29    -0.31   0.16  -0.09    -0.15   0.10  -0.02
  14   1     0.07   0.19   0.08     0.06   0.20  -0.40     0.04   0.13  -0.17
  15   1     0.19  -0.35  -0.05    -0.22  -0.06   0.08     0.09   0.00  -0.03
  16   1     0.03   0.16  -0.14     0.07   0.31   0.31    -0.04  -0.18  -0.13
  17   1     0.26  -0.07   0.30     0.35   0.01   0.06    -0.19  -0.02   0.00
                     31                     32                     33
                        a                      a                      a 
 Frequencies --  1507.7439              1514.0074              1515.6260
 Red. masses --     1.5596                 1.5464                 1.5731
 Frc consts  --     0.0000                 0.0000                 0.0000
 IR Inten    --     1.9573                 0.2477                 0.1324
 Raman Activ --     0.0000                 0.0000                 0.0000
 Depolar     --     0.0000                 0.0000                 0.0000
 Atom AN      X      Y      Z        X      Y      Z        X      Y      Z
   1   6     0.04  -0.02  -0.06     0.09  -0.03  -0.04     0.04   0.16  -0.03
   2   6    -0.02   0.01   0.04     0.02  -0.00   0.01     0.01   0.04  -0.01
   3   6     0.08  -0.02   0.00    -0.04   0.02   0.06    -0.01  -0.04   0.01
   4   6     0.13   0.01   0.03    -0.05  -0.05   0.11    -0.07  -0.01   0.07
   5   6     0.11  -0.06   0.04    -0.01   0.09   0.08     0.05  -0.06  -0.06
   6   1    -0.02  -0.01  -0.07    -0.05  -0.02  -0.19    -0.14  -0.53   0.09
   7   1    -0.10  -0.08   0.17    -0.22  -0.09   0.21    -0.37   0.03  -0.01
   8   1    -0.04   0.16   0.13    -0.13   0.24   0.15     0.34  -0.15   0.03
   9   1     0.04   0.04  -0.09     0.03   0.02  -0.05    -0.00   0.00   0.02
  10   1     0.01  -0.08  -0.07     0.01  -0.05  -0.04     0.00  -0.00  -0.02
  11   1    -0.03   0.01   0.02     0.01  -0.00   0.01     0.01   0.02  -0.00
  12   1    -0.31  -0.22   0.14     0.33  -0.08  -0.11     0.29  -0.01  -0.10
  13   1    -0.32  -0.01  -0.30    -0.14   0.16   0.07     0.01   0.09   0.11
  14   1     0.07   0.23   0.03     0.02   0.07  -0.41    -0.01  -0.02  -0.26
  15   1    -0.16   0.37   0.04     0.32  -0.12  -0.11    -0.26   0.16   0.08
  16   1    -0.04  -0.21   0.11    -0.05  -0.20  -0.36     0.02   0.06   0.26
  17   1    -0.30   0.07  -0.32    -0.19  -0.05   0.10     0.03   0.04  -0.13
                     34                     35                     36
                        a                      a                      a 
 Frequencies --  2902.6094              2951.7934              2970.3608
 Red. masses --     1.7441                 1.9709                 1.4846
 Frc consts  --     0.0000                 0.0000                 0.0000
 IR Inten    --   108.2063                98.4457                88.1225
 Raman Activ --     0.0000                 0.0000                 0.0000
 Depolar     --     0.0000                 0.0000                 0.0000
 Atom AN      X      Y      Z        X      Y      Z        X      Y      Z
   1   6     0.00  -0.00  -0.00    -0.00  -0.01   0.00    -0.02   0.01   0.01
   2   6     0.01  -0.00  -0.01     0.07   0.28  -0.05     0.07  -0.05  -0.19
   3   6     0.11   0.01   0.23     0.00   0.01  -0.00    -0.00  -0.00  -0.02
   4   6    -0.00   0.01  -0.00    -0.01  -0.00   0.00     0.00  -0.00   0.00
   5   6    -0.01  -0.00  -0.00     0.01  -0.01   0.00     0.00   0.00   0.00
   6   1    -0.00   0.00   0.00    -0.00  -0.00   0.00     0.07  -0.02  -0.02
   7   1    -0.00  -0.00  -0.00     0.00   0.04   0.02    -0.01  -0.02  -0.01
   8   1    -0.00   0.00  -0.00     0.02   0.03  -0.03     0.01   0.02  -0.02
   9   1     0.00   0.05   0.02     0.02  -0.61  -0.28     0.01   0.64   0.25
  10   1    -0.02  -0.03   0.03    -0.28  -0.41   0.45    -0.28  -0.46   0.43
  11   1    -0.42  -0.04  -0.87     0.00  -0.00   0.00     0.03   0.00   0.06
  12   1     0.01   0.01   0.03     0.00   0.00   0.00    -0.00  -0.00  -0.00
  13   1    -0.01  -0.01   0.01     0.01   0.01  -0.01     0.01   0.01  -0.01
  14   1     0.02  -0.01  -0.00     0.01  -0.00   0.00    -0.01   0.00  -0.00
  15   1     0.01  -0.00   0.03    -0.00  -0.00  -0.00    -0.00  -0.00  -0.00
  16   1     0.02  -0.01  -0.00    -0.01   0.00  -0.00    -0.01   0.00  -0.00
  17   1    -0.00   0.02   0.00    -0.00   0.01   0.01     0.00  -0.01  -0.00
                     37                     38                     39
                        a                      a                      a 
 Frequencies --  3023.1310              3025.8847              3026.0724
 Red. masses --     1.9519                 1.8967                 1.9308
 Frc consts  --     0.0000                 0.0000                 0.0000
 IR Inten    --    43.0749               123.1698                91.2766
 Raman Activ --     0.0000                 0.0000                 0.0000
 Depolar     --     0.0000                 0.0000                 0.0000
 Atom AN      X      Y      Z        X      Y      Z        X      Y      Z
   1   6    -0.00  -0.00   0.00    -0.24   0.08   0.12    -0.05   0.02   0.02
   2   6     0.00   0.01  -0.00    -0.01   0.01   0.02    -0.00   0.00   0.00
   3   6     0.00   0.01  -0.00    -0.00   0.00  -0.00     0.01  -0.00   0.00
   4   6     0.19   0.05  -0.07    -0.04   0.00  -0.01     0.20   0.03  -0.02
   5   6    -0.14   0.15   0.03    -0.04   0.01  -0.02     0.16  -0.13   0.00
   6   1     0.00  -0.00   0.00     0.82  -0.25  -0.20     0.17  -0.05  -0.04
   7   1    -0.00   0.01   0.00    -0.04  -0.20  -0.07    -0.01  -0.03  -0.01
   8   1     0.01   0.01  -0.01     0.06   0.17  -0.14     0.01   0.02  -0.02
   9   1     0.00  -0.02  -0.01    -0.00  -0.05  -0.02    -0.00  -0.01  -0.00
  10   1    -0.01  -0.01   0.01     0.02   0.04  -0.03     0.01   0.01  -0.01
  11   1     0.00   0.00   0.00    -0.00   0.00  -0.00    -0.01  -0.00  -0.02
  12   1     0.02   0.00  -0.04     0.02   0.00   0.08    -0.02  -0.00  -0.15
  13   1    -0.24  -0.31   0.29     0.01   0.03  -0.03    -0.19  -0.25   0.24
  14   1    -0.45   0.14  -0.01     0.11  -0.03  -0.00    -0.48   0.15  -0.01
  15   1    -0.01   0.02   0.04     0.03   0.01   0.08    -0.03  -0.03  -0.15
  16   1     0.46  -0.10   0.01     0.11  -0.03  -0.00    -0.50   0.11  -0.00
  17   1     0.04  -0.45  -0.16    -0.00  -0.03  -0.01    -0.02   0.37   0.14
                     40                     41                     42
                        a                      a                      a 
 Frequencies --  3028.4111              3031.0096              3039.4881
 Red. masses --     1.8584                 1.8137                 1.5495
 Frc consts  --     0.0000                 0.0000                 0.0000
 IR Inten    --    52.1684                79.8644                 0.2296
 Raman Activ --     0.0000                 0.0000                 0.0000
 Depolar     --     0.0000                 0.0000                 0.0000
 Atom AN      X      Y      Z        X      Y      Z        X      Y      Z
   1   6     0.00   0.02  -0.00     0.02  -0.01  -0.00     0.04   0.17  -0.03
   2   6     0.00   0.00  -0.00     0.00  -0.00  -0.00     0.00   0.01  -0.00
   3   6     0.00   0.00  -0.00    -0.01  -0.00  -0.02    -0.00  -0.00   0.00
   4   6    -0.08   0.09  -0.16    -0.03   0.10  -0.16    -0.01  -0.06  -0.08
   5   6     0.12   0.09   0.13    -0.09  -0.12  -0.12    -0.02  -0.03   0.09
   6   1     0.00   0.00  -0.00    -0.10   0.03   0.03     0.01   0.03  -0.01
   7   1    -0.00  -0.05  -0.02     0.00  -0.02  -0.01    -0.00  -0.36  -0.17
   8   1    -0.02  -0.03   0.03     0.01   0.01  -0.01    -0.16  -0.25   0.28
   9   1     0.00  -0.00  -0.00    -0.00   0.02   0.01     0.00  -0.02  -0.01
  10   1    -0.00  -0.00   0.00    -0.01  -0.01   0.01    -0.01  -0.01   0.01
  11   1    -0.00  -0.00   0.00     0.02   0.00   0.04    -0.00  -0.00   0.00
  12   1     0.12   0.03   0.34     0.11   0.03   0.29     0.16   0.02   0.41
  13   1    -0.24  -0.25   0.23    -0.29  -0.32   0.29     0.11   0.12  -0.14
  14   1     0.39  -0.10  -0.02     0.29  -0.07  -0.02    -0.25   0.06  -0.01
  15   1    -0.12  -0.02  -0.34     0.11   0.01   0.29    -0.16  -0.04  -0.41
  16   1    -0.37   0.11   0.02     0.28  -0.09  -0.02     0.25  -0.06   0.01
  17   1     0.07  -0.39  -0.12    -0.08   0.49   0.16    -0.03   0.20   0.08
                     43                     44                     45
                        a                      a                      a 
 Frequencies --  3042.9826              3043.3321              3048.6642
 Red. masses --     1.7426                 1.3465                 1.3150
 Frc consts  --     0.0000                 0.0000                 0.0000
 IR Inten    --   100.7020                42.4974                75.5020
 Raman Activ --     0.0000                 0.0000                 0.0000
 Depolar     --     0.0000                 0.0000                 0.0000
 Atom AN      X      Y      Z        X      Y      Z        X      Y      Z
   1   6    -0.06  -0.22   0.04     0.02   0.01   0.04    -0.02  -0.02  -0.15
   2   6    -0.01  -0.02   0.00    -0.00   0.00   0.00    -0.00  -0.00  -0.01
   3   6    -0.00  -0.00   0.00     0.00  -0.00  -0.01     0.00  -0.00  -0.00
   4   6    -0.01  -0.04  -0.07     0.00  -0.06  -0.10    -0.00  -0.01  -0.04
   5   6     0.00  -0.01   0.07     0.02   0.02  -0.12    -0.00  -0.00  -0.04
   6   1    -0.02  -0.03   0.01    -0.12   0.04   0.04     0.28  -0.09  -0.09
   7   1     0.00   0.47   0.23    -0.00  -0.19  -0.08     0.01   0.59   0.24
   8   1     0.21   0.34  -0.37     0.07   0.11  -0.11    -0.24  -0.41   0.40
   9   1    -0.00   0.03   0.01     0.00  -0.01  -0.00    -0.00   0.01   0.00
  10   1     0.02   0.02  -0.02     0.00   0.00  -0.00    -0.00  -0.00   0.00
  11   1    -0.00  -0.00   0.00     0.00  -0.00   0.00     0.00  -0.00   0.00
  12   1     0.14   0.02   0.36     0.19   0.02   0.50     0.07   0.01   0.18
  13   1     0.07   0.08  -0.09     0.09   0.11  -0.12     0.01   0.02  -0.02
  14   1    -0.15   0.04  -0.01    -0.31   0.08  -0.02    -0.07   0.02  -0.01
  15   1    -0.13  -0.03  -0.33     0.21   0.04   0.52     0.07   0.01   0.18
  16   1     0.13  -0.03   0.01    -0.31   0.08  -0.02    -0.07   0.02  -0.01
  17   1    -0.01   0.12   0.05     0.02  -0.18  -0.08     0.00  -0.03  -0.02
