
                                 *****************
                                 * O   R   C   A *
                                 *****************

                                            #,                                       
                                            ###                                      
                                            ####                                     
                                            #####                                    
                                            ######                                   
                                           ########,                                 
                                     ,,################,,,,,                         
                               ,,#################################,,                 
                          ,,##########################################,,             
                       ,#########################################, ''#####,          
                    ,#############################################,,   '####,        
                  ,##################################################,,,,####,       
                ,###########''''           ''''###############################       
              ,#####''   ,,,,##########,,,,          '''####'''          '####       
            ,##' ,,,,###########################,,,                        '##       
           ' ,,###''''                  '''############,,,                           
         ,,##''                                '''############,,,,        ,,,,,,###''
      ,#''                                            '''#######################'''  
     '                                                          ''''####''''         
             ,#######,   #######,   ,#######,      ##                                
            ,#'     '#,  ##    ##  ,#'     '#,    #''#        ,####,   ,####,        
            ##       ##  ##   ,#'  ##            #'  '#       #'       #'  '#        
            ##       ##  #######   ##           ,######,      #####,   #    #        
            '#,     ,#'  ##    ##  '#,     ,#' ,#      #,     #,   #   #,  ,#        
             '#######'   ##     ##  '#######'  #'      '#     '####' # '####'        



                #########################################################
                #                        -***-                          #
                #          Department of theory and spectroscopy        #
                #                                                       #
                #                      Frank Neese                      #
                #                                                       #
                #     Directorship, Architecture, Infrastructure        #
                #                    SHARK, DRIVERS                     #
                #        Core code/Algorithms in most modules           #
                #                                                       #
                #        Max Planck Institute fuer Kohlenforschung      #
                #                Kaiser Wilhelm Platz 1                 #
                #                 D-45470 Muelheim/Ruhr                 #
                #                      Germany                          #
                #                                                       #
                #                  All rights reserved                  #
                #                        -***-                          #
                #########################################################


                         Program Version 6.0.0  -   RELEASE  -


 With contributions from (in alphabetic order):
   Daniel Aravena         : Magnetic Suceptibility
   Michael Atanasov       : Ab Initio Ligand Field Theory (pilot matlab implementation)
   Alexander A. Auer      : GIAO ZORA, VPT2 properties, NMR spectrum
   Ute Becker             : All parallelization in ORCA, NUMFREQ, NUMCALC
   Giovanni Bistoni       : ED, misc. LED, open-shell LED, HFLD
   Martin Brehm           : Molecular dynamics
   Dmytro Bykov           : pre 5.0 version of the SCF Hessian
   Marcos Casanova-Páez   : Triplet and SCS-CIS(D). UHF-(DLPNO)-IP/EA/STEOM-CCSD. UHF-CVS-IP/STEOM-CCSD
   Vijay G. Chilkuri      : MRCI spin determinant printing, contributions to CSF-ICE
   Pauline Colinet        : FMM embedding
   Dipayan Datta          : RHF DLPNO-CCSD density
   Achintya Kumar Dutta   : EOM-CC, STEOM-CC
   Nicolas Foglia         : Exact transition moments, OPA infrastructure, MCD improvements
   Dmitry Ganyushin       : Spin-Orbit,Spin-Spin,Magnetic field MRCI
   Miquel Garcia          : C-PCM and meta-GGA Hessian, CCSD/C-PCM, Gaussian charge scheme
   Tiago L. C. Gouveia    : GS-ROHF, GS-ROCIS
   Yang Guo               : DLPNO-NEVPT2, F12-NEVPT2, CIM, IAO-localization
   Andreas Hansen         : Spin unrestricted coupled pair/coupled cluster methods
   Ingolf Harden          : AUTO-CI MPn and infrastructure 
   Benjamin Helmich-Paris : MC-RPA, TRAH-(SCF,CASSCF), AVAS, COSX integrals, SCF dyn. polar.
   Lee Huntington         : MR-EOM, pCC
   Robert Izsak           : Overlap fitted RIJCOSX, COSX-SCS-MP3, EOM
   Riya Kayal             : Wick's Theorem for AUTO-CI, AUTO-CI UHF-CCSDT
   Emily Kempfer          : AUTO-CI, RHF CISDT and CCSDT
   Christian Kollmar      : KDIIS, OOCD, Brueckner-CCSD(T), CCSD density, CASPT2, CASPT2-K, improved NEVPT2
   Axel Koslowski         : Symmetry handling
   Simone Kossmann        : Meta GGA functionals, TD-DFT gradient, OOMP2, (MP2 Hessian; deprecated post 5.0)
   Lucas Lang             : DCDCAS
   Marvin Lechner         : AUTO-CI (C++ implementation), FIC-MRCC
   Spencer Leger          : CASSCF response
   Dagmar Lenk            : GEPOL surface, SMD, ORCA-2-JSON
   Dimitrios Liakos       : Extrapolation schemes; Compound Job, initial MDCI parallelization
   Dimitrios Manganas     : Further ROCIS development; embedding schemes. LFT, Crystal Embedding
   Dimitrios Pantazis     : SARC Basis sets
   Anastasios Papadopoulos: AUTO-CI, single reference methods and gradients
   Taras Petrenko         : pre 6.0 DFT Hessian and TD-DFT gradient, (ASA, deprecated), ECA, 1-Electron XAS/XES, NRVS
   Peter Pinski           : DLPNO-MP2, DLPNO-MP2 Gradient
   Christoph Reimann      : Effective Core Potentials
   Marius Retegan         : Local ZFS, SOC
   Christoph Riplinger    : Optimizer, TS searches, QM/MM, DLPNO-CCSD(T), (RO)-DLPNO pert. Triples
   Michael Roemelt        : Original ROCIS implementation
   Masaaki Saitow         : Open-shell DLPNO-CCSD energy and density
   Barbara Sandhoefer     : DKH picture change effects
   Kantharuban Sivalingam : CASSCF convergence/infrastructure, NEVPT2 and variants, FIC-MRCI
   Bernardo de Souza      : ESD, SOC TD-DFT
   Georgi Stoychev        : AutoAux, RI-MP2 NMR, DLPNO-MP2 response, X2C
   Van Anh Tran           : RI-MP2 g-tensors
   Willem Van den Heuvel  : Paramagnetic NMR
   Zikuan Wang            : NOTCH, Electric field optimization 
   Frank Wennmohs         : Technical directorship and infrastructure
   Hang Xu                : AUTO-CI-Response properties 


 We gratefully acknowledge several colleagues who have allowed us to
 interface, adapt or use parts of their codes:
   Stefan Grimme, W. Hujo, H. Kruse, P. Pracht,  : VdW corrections, initial TS optimization,
                  C. Bannwarth, S. Ehlert,         DFT functionals, gCP, sTDA/sTD-DF
                  L. Wittmann, M. Mueller
   Ed Valeev, F. Pavosevic, A. Kumar             : LibInt (2-el integral package), F12 methods
   Garnet Chan, S. Sharma, J. Yang, R. Olivares  : DMRG
   Ulf Ekstrom                                   : XCFun DFT Library
   Mihaly Kallay                                 : mrcc  (arbitrary order and MRCC methods)
   Frank Weinhold                                : gennbo (NPA and NBO analysis)
   Simon Mueller                                 : openCOSMO-RS
   Christopher J. Cramer and Donald G. Truhlar   : smd solvation model
   Lars Goerigk                                  : TD-DFT with DH, B97 family of functionals
   V. Asgeirsson, H. Jonsson                     : NEB implementation
   FAccTs GmbH                                   : IRC, NEB, NEB-TS, DLPNO-Multilevel, CI-OPT
                                                   MM, QMMM, 2- and 3-layer-ONIOM, Crystal-QMMM,
                                                   LR-CPCM, SF, NACMEs, symmetry and pop. for TD-DFT,
                                                   nearIR, NL-DFT gradient (VV10), updates on ESD,
                                                   ML-optimized integration grids, MBIS, APM,
                                                   GOAT, DOCKER, SOLVATOR, interface openCOSMO-RS
   S Lehtola, MJT Oliveira, MAL Marques          : LibXC Library
   Liviu Ungur et al                             : ANISO software


 Your calculation uses the libint2 library for the computation of 2-el integrals
 For citations please refer to: http://libint.valeyev.net

 Your ORCA version has been built with support for libXC version: 6.2.2
 For citations please refer to: https://libxc.gitlab.io

 This ORCA versions uses:
   CBLAS   interface :  Fast vector & matrix operations
   LAPACKE interface :  Fast linear algebra routines
   SCALAPACK package :  Parallel linear algebra routines
   Shared memory     :  Shared parallel matrices
   BLAS/LAPACK       :  OpenBLAS 0.3.27  USE64BITINT DYNAMIC_ARCH NO_AFFINITY SkylakeX SINGLE_THREADED
        Core in use  :  SkylakeX
   Copyright (c) 2011-2014, The OpenBLAS Project


Your calculation utilizes the geometrical counterpoise correction gCP
Please cite in your paper:
H.Kruse, S. Grimme J.Chem.Phys., 136, (2012), 154101 
   

Your calculation utilizes the atom-pairwise dispersion correction
based on EEQ partial charges (D4)


Your calculation utilizes the SMD solvation module
Please cite in your paper:
A.V. Marenich, C.J. Cramer, D.G. Truhlar J. Phys. Chem. B, 113, (2009), 6378 

================================================================================

----- Orbital basis set information -----
Your calculation utilizes the basis: def2-mTZVPP
   Stefan Grimme, Andreas Hansen, Sebastian Ehlert, and Jan-Michael Mewes 
   J. Chem. Phys. 154, 064103 (2021). DOI: 10.1063/5.0040021

----- AuxJ basis set information -----
Your calculation utilizes the auxiliary basis: def2/J
   F. Weigend, Phys. Chem. Chem. Phys. 8, 1057 (2006).

================================================================================
                                        WARNINGS
                       Please study these warnings very carefully!
================================================================================

Using LibXC functional ID 497 : Re-regularized SCAN exchange by Furness et al
[ 1]  J. W. Furness, A. D. Kaplan, J. Ning, J. P. Perdew, and J. Sun.,  J. Phys. Chem. Lett. 11, 8208-8215 (2020)
[ 2]  J. W. Furness, A. D. Kaplan, J. Ning, J. P. Perdew, and J. Sun.,  J. Phys. Chem. Lett. 11, 9248-9248 (2020)
Using LibXC functional ID 498 : Re-regularized SCAN correlation by Furness et al
[ 1]  J. W. Furness, A. D. Kaplan, J. Ning, J. P. Perdew, and J. Sun.,  J. Phys. Chem. Lett. 11, 8208-8215 (2020)
[ 2]  J. W. Furness, A. D. Kaplan, J. Ning, J. P. Perdew, and J. Sun.,  J. Phys. Chem. Lett. 11, 9248-9248 (2020)
Using LibXC functional ID 497 : Re-regularized SCAN exchange by Furness et al
[ 1]  J. W. Furness, A. D. Kaplan, J. Ning, J. P. Perdew, and J. Sun.,  J. Phys. Chem. Lett. 11, 8208-8215 (2020)
[ 2]  J. W. Furness, A. D. Kaplan, J. Ning, J. P. Perdew, and J. Sun.,  J. Phys. Chem. Lett. 11, 9248-9248 (2020)
Using LibXC functional ID 498 : Re-regularized SCAN correlation by Furness et al
[ 1]  J. W. Furness, A. D. Kaplan, J. Ning, J. P. Perdew, and J. Sun.,  J. Phys. Chem. Lett. 11, 8208-8215 (2020)
[ 2]  J. W. Furness, A. D. Kaplan, J. Ning, J. P. Perdew, and J. Sun.,  J. Phys. Chem. Lett. 11, 9248-9248 (2020)

================================================================================
                                       INPUT FILE
================================================================================
NAME = sp_solv.inp
|  1> ! r2scan-3c def2/J RI DEFGRID2 scfconv6 printgap
|  2> %output
|  3>     printlevel normal
|  4> end
|  5> %cpcm
|  6>     smd true
|  7>     smdsolvent "water"
|  8> end
|  9> * xyz 0 1
| 10> C -3.6960384295 -0.0414089587 0.119914432
| 11> C -2.2266656546 -0.0211509215 -0.2902044388
| 12> H -2.1492799738 0.3863408341 -1.3046694053
| 13> C -1.623344951 -1.423944459 -0.2782142782
| 14> C -0.1501035647 -1.3793808017 -0.6648264474
| 15> C 0.6520038995 -0.5033307179 0.314857421
| 16> H 0.4711309369 -0.8951114576 1.3229020403
| 17> C 0.0395618255 0.8781841874 0.2815415722
| 18> O 0.6251579954 1.8959782385 -0.0308531409
| 19> C -1.4214636352 0.8876258331 0.6521252737
| 20> C 2.1705822195 -0.5699285096 0.0662721196
| 21> C 2.583866957 -0.0523309538 -1.3104093589
| 22> C 2.9222485346 0.1844087297 1.163311182
| 23> H -4.1111677705 0.9630479261 0.1057301328
| 24> H -4.2697831144 -0.6601557822 -0.5652020071
| 25> H -3.8046557254 -0.4454617391 1.1235901385
| 26> H -1.7316051374 -1.8579609561 0.7178383646
| 27> H -2.1644431849 -2.0584348067 -0.9819699717
| 28> H 0.2718266493 -2.3854686355 -0.6618936441
| 29> H -0.0551729861 -0.9751914738 -1.6740449423
| 30> H -1.5281597324 0.5217854817 1.6748412214
| 31> H -1.7929452368 1.9127684818 0.6047021078
| 32> H 2.4527268147 -1.6286041028 0.1285340405
| 33> H 3.6657031194 -0.0986802081 -1.4100331879
| 34> H 2.2730374038 0.9812595407 -1.4360346663
| 35> H 2.1455867077 -0.6511014988 -2.1042640233
| 36> H 2.6543243388 -0.1947374795 2.1472627147
| 37> H 2.683828735 1.2444601902 1.122875431
| 38> H 3.9952230099 0.0698581059 1.0317088321
| 39> *
| 40> 
| 41>                          ****END OF INPUT****
================================================================================

                       ****************************
                       * Single Point Calculation *
                       ****************************

---------------------------------
CARTESIAN COORDINATES (ANGSTROEM)
---------------------------------
  C     -3.696038   -0.041409    0.119914
  C     -2.226666   -0.021151   -0.290204
  H     -2.149280    0.386341   -1.304669
  C     -1.623345   -1.423944   -0.278214
  C     -0.150104   -1.379381   -0.664826
  C      0.652004   -0.503331    0.314857
  H      0.471131   -0.895111    1.322902
  C      0.039562    0.878184    0.281542
  O      0.625158    1.895978   -0.030853
  C     -1.421464    0.887626    0.652125
  C      2.170582   -0.569929    0.066272
  C      2.583867   -0.052331   -1.310409
  C      2.922249    0.184409    1.163311
  H     -4.111168    0.963048    0.105730
  H     -4.269783   -0.660156   -0.565202
  H     -3.804656   -0.445462    1.123590
  H     -1.731605   -1.857961    0.717838
  H     -2.164443   -2.058435   -0.981970
  H      0.271827   -2.385469   -0.661894
  H     -0.055173   -0.975191   -1.674045
  H     -1.528160    0.521785    1.674841
  H     -1.792945    1.912768    0.604702
  H      2.452727   -1.628604    0.128534
  H      3.665703   -0.098680   -1.410033
  H      2.273037    0.981260   -1.436035
  H      2.145587   -0.651101   -2.104264
  H      2.654324   -0.194737    2.147263
  H      2.683829    1.244460    1.122875
  H      3.995223    0.069858    1.031709

----------------------------
CARTESIAN COORDINATES (A.U.)
----------------------------
  NO LB      ZA    FRAG     MASS         X           Y           Z
   0 C     6.0000    0    12.011   -6.984500   -0.078252    0.226605
   1 C     6.0000    0    12.011   -4.207788   -0.039969   -0.548407
   2 H     1.0000    0     1.008   -4.061551    0.730078   -2.465468
   3 C     6.0000    0    12.011   -3.067677   -2.690865   -0.525749
   4 C     6.0000    0    12.011   -0.283655   -2.606652   -1.256340
   5 C     6.0000    0    12.011    1.232109   -0.951157    0.594994
   6 H     1.0000    0     1.008    0.890308   -1.691516    2.499923
   7 C     6.0000    0    12.011    0.074761    1.659528    0.532036
   8 O     8.0000    0    15.999    1.181377    3.582880   -0.058304
   9 C     6.0000    0    12.011   -2.686177    1.677370    1.232338
  10 C     6.0000    0    12.011    4.101806   -1.077009    0.125236
  11 C     6.0000    0    12.011    4.882801   -0.098891   -2.476315
  12 C     6.0000    0    12.011    5.522249    0.348482    2.198340
  13 H     1.0000    0     1.008   -7.768981    1.819897    0.199801
  14 H     1.0000    0     1.008   -8.068721   -1.247514   -1.068077
  15 H     1.0000    0     1.008   -7.189757   -0.841801    2.123278
  16 H     1.0000    0     1.008   -3.272259   -3.511037    1.356518
  17 H     1.0000    0     1.008   -4.090205   -3.889878   -1.855654
  18 H     1.0000    0     1.008    0.513678   -4.507882   -1.250798
  19 H     1.0000    0     1.008   -0.104262   -1.842845   -3.163486
  20 H     1.0000    0     1.008   -2.887803    0.986032    3.164991
  21 H     1.0000    0     1.008   -3.388175    3.614609    1.142721
  22 H     1.0000    0     1.008    4.634982   -3.077616    0.242894
  23 H     1.0000    0     1.008    6.927175   -0.186479   -2.664577
  24 H     1.0000    0     1.008    4.295418    1.854312   -2.713712
  25 H     1.0000    0     1.008    4.054571   -1.230404   -3.976483
  26 H     1.0000    0     1.008    5.015946   -0.368001    4.057738
  27 H     1.0000    0     1.008    5.071701    2.351689    2.121927
  28 H     1.0000    0     1.008    7.549877    0.132013    1.949647

--------------------------------
INTERNAL COORDINATES (ANGSTROEM)
--------------------------------
 C      0   0   0     0.000000000000     0.00000000     0.00000000
 C      1   0   0     1.525668452802     0.00000000     0.00000000
 H      2   1   0     1.095982318621   108.76931999     0.00000000
 C      2   1   3     1.527078696137   111.48116702   240.13386340
 C      4   2   1     1.523776581797   110.67835959   181.06427759
 C      5   4   2     1.539681985169   111.03144417    59.85147893
 H      6   5   4     1.096522289376   107.20082934    55.16581521
 C      6   5   4     1.511548435662   107.15336959   301.44443571
 O      8   6   5     1.215079446550   125.16779959   239.68994539
 C      8   6   5     1.507321074391   113.14359807    58.36248290
 C      6   5   4     1.540230512587   112.72677462   172.88268282
 C     11   6   5     1.527731454564   113.42241866    62.31321254
 C     11   6   5     1.528895557022   110.33988408   186.59329241
 H      1   2   3     1.086953171726   110.61271835   299.91564857
 H      1   2   3     1.086929220404   110.27344335    59.85673729
 H      1   2   3     1.087391967110   110.44164559   179.78675723
 H      4   2   1     1.091884359693   109.45901047   302.23415137
 H      4   2   1     1.091163313252   109.46153052    60.35665072
 H      5   4   2     1.090984159437   110.25902518   180.45515336
 H      5   4   2     1.091284929791   109.24305936   299.09449515
 H     10   8   6     1.091407865809   108.84685891    61.56440940
 H     10   8   6     1.091405051837   108.97264832   180.08433102
 H     11   6   5     1.097395157194   106.62137971   303.62164252
 H     12  11   6     1.087401785429   109.70967993   178.30964214
 H     12  11   6     1.086602981462   110.43042535    58.96951916
 H     12  11   6     1.086655865799   111.25512027   297.88997619
 H     13  11   6     1.087977868042   110.84986278    55.41312945
 H     13  11   6     1.087284760175   110.27566910   295.07842687
 H     13  11   6     1.087067269564   110.26783103   175.47334504

---------------------------
INTERNAL COORDINATES (A.U.)
---------------------------
 C      0   0   0     0.000000000000     0.00000000     0.00000000
 C      1   0   0     2.883095546959     0.00000000     0.00000000
 H      2   1   0     2.071106429814   108.76931999     0.00000000
 C      2   1   3     2.885760520644   111.48116702   240.13386340
 C      4   2   1     2.879520428879   110.67835959   181.06427759
 C      5   4   2     2.909577285302   111.03144417    59.85147893
 H      6   5   4     2.072126826662   107.20082934    55.16581521
 C      6   5   4     2.856412581559   107.15336959   301.44443571
 O      8   6   5     2.296167384937   125.16779959   239.68994539
 C      8   6   5     2.848424026488   113.14359807    58.36248290
 C      6   5   4     2.910613851899   112.72677462   172.88268282
 C     11   6   5     2.886994055304   113.42241866    62.31321254
 C     11   6   5     2.889193890141   110.33988408   186.59329241
 H      1   2   3     2.054043814959   110.61271835   299.91564857
 H      1   2   3     2.053998553520   110.27344335    59.85673729
 H      1   2   3     2.054873018064   110.44164559   179.78675723
 H      4   2   1     2.063362409733   109.45901047   302.23415137
 H      4   2   1     2.061999829429   109.46153052    60.35665072
 H      5   4   2     2.061661277782   110.25902518   180.45515336
 H      5   4   2     2.062229651381   109.24305936   299.09449515
 H     10   8   6     2.062461966787   108.84685891    61.56440940
 H     10   8   6     2.062456649150   108.97264832   180.08433102
 H     11   6   5     2.073776307787   106.62137971   303.62164252
 H     12  11   6     2.054891571999   109.70967993   178.30964214
 H     12  11   6     2.053382051266   110.43042535    58.96951916
 H     12  11   6     2.053481988179   111.25512027   297.88997619
 H     13  11   6     2.055980210366   110.84986278    55.41312945
 H     13  11   6     2.054670426317   110.27566910   295.07842687
 H     13  11   6     2.054259428626   110.26783103   175.47334504

---------------------
BASIS SET INFORMATION
---------------------
There are 3 groups of distinct atoms

 Group   1 Type C   : 11s6p1d contracted to 5s3p1d pattern {62111/411/1}
 Group   2 Type H   : 4s1p contracted to 2s1p pattern {31/1}
 Group   3 Type O   : 11s6p2d contracted to 5s3p2d pattern {62111/411/11}

Atom   0C    basis set group =>   1
Atom   1C    basis set group =>   1
Atom   2H    basis set group =>   2
Atom   3C    basis set group =>   1
Atom   4C    basis set group =>   1
Atom   5C    basis set group =>   1
Atom   6H    basis set group =>   2
Atom   7C    basis set group =>   1
Atom   8O    basis set group =>   3
Atom   9C    basis set group =>   1
Atom  10C    basis set group =>   1
Atom  11C    basis set group =>   1
Atom  12C    basis set group =>   1
Atom  13H    basis set group =>   2
Atom  14H    basis set group =>   2
Atom  15H    basis set group =>   2
Atom  16H    basis set group =>   2
Atom  17H    basis set group =>   2
Atom  18H    basis set group =>   2
Atom  19H    basis set group =>   2
Atom  20H    basis set group =>   2
Atom  21H    basis set group =>   2
Atom  22H    basis set group =>   2
Atom  23H    basis set group =>   2
Atom  24H    basis set group =>   2
Atom  25H    basis set group =>   2
Atom  26H    basis set group =>   2
Atom  27H    basis set group =>   2
Atom  28H    basis set group =>   2
---------------------------------
AUXILIARY/J BASIS SET INFORMATION
---------------------------------
There are 3 groups of distinct atoms

 Group   1 Type C   : 12s5p4d2f1g contracted to 6s4p3d1f1g pattern {711111/2111/211/2/1}
 Group   2 Type H   : 5s2p1d contracted to 3s1p1d pattern {311/2/1}
 Group   3 Type O   : 12s5p4d2f1g contracted to 6s4p3d1f1g pattern {711111/2111/211/2/1}

Atom   0C    basis set group =>   1
Atom   1C    basis set group =>   1
Atom   2H    basis set group =>   2
Atom   3C    basis set group =>   1
Atom   4C    basis set group =>   1
Atom   5C    basis set group =>   1
Atom   6H    basis set group =>   2
Atom   7C    basis set group =>   1
Atom   8O    basis set group =>   3
Atom   9C    basis set group =>   1
Atom  10C    basis set group =>   1
Atom  11C    basis set group =>   1
Atom  12C    basis set group =>   1
Atom  13H    basis set group =>   2
Atom  14H    basis set group =>   2
Atom  15H    basis set group =>   2
Atom  16H    basis set group =>   2
Atom  17H    basis set group =>   2
Atom  18H    basis set group =>   2
Atom  19H    basis set group =>   2
Atom  20H    basis set group =>   2
Atom  21H    basis set group =>   2
Atom  22H    basis set group =>   2
Atom  23H    basis set group =>   2
Atom  24H    basis set group =>   2
Atom  25H    basis set group =>   2
Atom  26H    basis set group =>   2
Atom  27H    basis set group =>   2
Atom  28H    basis set group =>   2

Checking for AutoStart:
The File: sp_solv.gbw exists
Trying to determine its content:
     ... Fine, the file contains calculation information
     ... Fine, the calculation information was read
     ... Fine, the file contains a basis set
     ... Fine, the basis set was read
     ... Fine, the file contains a geometry
     ... Fine, the geometry was read
     ... Fine, the file contains a set of orbitals
     ... Fine, the orbitals can be read
     => possible old guess file was deleted
     => GBW file was renamed to GES file
     => GES file is set as startup file
     => Guess is set to MORead
     ... now leaving AutoStart

------------------------------------------------------------------------------
                             ORCA STARTUP CALCULATIONS
                           -- RI-GTO INTEGRALS CHOSEN --
------------------------------------------------------------------------------
------------------------------------------------------------------------------
                   ___                                                        
                  /   \      - P O W E R E D   B Y -                         
                 /     \                                                     
                 |  |  |   _    _      __       _____    __    __             
                 |  |  |  | |  | |    /  \     |  _  \  |  |  /  |          
                  \  \/   | |  | |   /    \    | | | |  |  | /  /          
                 / \  \   | |__| |  /  /\  \   | |_| |  |  |/  /          
                |  |  |   |  __  | /  /__\  \  |    /   |      \           
                |  |  |   | |  | | |   __   |  |    \   |  |\   \          
                \     /   | |  | | |  |  |  |  | |\  \  |  | \   \       
                 \___/    |_|  |_| |__|  |__|  |_| \__\ |__|  \__/        
                                                                              
                      - O R C A' S   B I G   F R I E N D -                    
                                      &                                       
                       - I N T E G R A L  F E E D E R -                       
                                                                              
 v1 FN, 2020, v2 2021, v3 2022-2024                                           
------------------------------------------------------------------------------


----------------------
SHARK INTEGRAL PACKAGE
----------------------

Number of atoms                             ...     29
Number of basis functions                   ...    304
Number of shells                            ...    154
Maximum angular momentum                    ...      2
Integral batch strategy                     ... SHARK/LIBINT Hybrid
RI-J (if used) integral strategy            ... SPLIT-RIJ (Revised 2003 algorithm where possible)
Printlevel                                  ...      1
Contraction scheme used                     ... SEGMENTED contraction
Prescreening option                         ... SCHWARTZ
   Thresh                                   ... 1.000e-10
   Tcut                                     ... 1.000e-11
   Tpresel                                  ... 1.000e-11 
Coulomb Range Separation                    ... NOT USED
Exchange Range Separation                   ... NOT USED
Multipole approximations                    ... NOT USED
Finite Nucleus Model                        ... NOT USED
CABS basis                                  ... NOT available
Auxiliary Coulomb fitting basis             ... AVAILABLE
   # of basis functions in Aux-J            ...    737
   # of shells in Aux-J                     ...    255
   Maximum angular momentum in Aux-J        ...      4
Auxiliary J/K fitting basis                 ... NOT available
Auxiliary Correlation fitting basis         ... NOT available
Auxiliary 'external' fitting basis          ... NOT available

Checking pre-screening integrals            ... done (  0.0 sec) Dimension = 154
Check shell pair data                       ... done (  0.0 sec)
Shell pair information
Shell pair cut-off parameter TPreSel        ...   1.0e-11
Total number of shell pairs                 ...     11935
Shell pairs after pre-screening             ...     10187
Total number of primitive shell pairs       ...     42201
Primitive shell pairs kept                  ...     24791
          la=0 lb=0:   3533 shell pairs
          la=1 lb=0:   3967 shell pairs
          la=1 lb=1:   1145 shell pairs
          la=2 lb=0:    939 shell pairs
          la=2 lb=1:    532 shell pairs
          la=2 lb=2:     71 shell pairs

Calculating one electron integrals          ... done (  0.0 sec)
Calculating RI/J V-Matrix + Cholesky decomp.... done (  0.1 sec)
Calculating Nuclear repulsion               ... done (  0.0 sec) ENN=    669.290889601722 Eh

Diagonalization of the overlap matrix:
Smallest eigenvalue                        ... 4.431e-05
Time for diagonalization                   ...    0.007 sec
Threshold for overlap eigenvalues          ... 1.000e-07
Number of eigenvalues below threshold      ... 0
Time for construction of square roots      ...    0.019 sec
Total time needed                          ...    0.035 sec

-------------------
DFT GRID GENERATION
-------------------

General Integration Accuracy     IntAcc      ... 4.388
Radial Grid Type                 RadialGrid  ... OptM3 with GC (2021)
Angular Grid (max. ang.)         AngularGrid ... 4 (Lebedev-302)
Angular grid pruning method      GridPruning ... 4 (adaptive)
Weight generation scheme         WeightScheme... mBecke (2022)
Basis function cutoff            BFCut       ... 1.0000e-10
Integration weight cutoff        WCut        ... 1.0000e-14
Partially contracted basis set               ... off
Rotationally invariant grid construction     ... off
Angular grids for H and He will be reduced by one unit
Diffuse basis detected: some atoms will have their outermost
                        angular grid increased by 1.

Total number of grid points                  ...   122925
Total number of batches                      ...     1934
Average number of points per batch           ...       63
Average number of grid points per atom       ...     4239
Initializing property integral containers    ... done (  0.0 sec)

SHARK setup successfully completed in   1.6 seconds

Maximum memory used throughout the entire STARTUP-calculation: 57.9 MB
-------------------------------------------------------------------------------
                                 ORCA GUESS
                   Start orbitals & Density for SCF / CASSCF
-------------------------------------------------------------------------------

------------
SCF SETTINGS
------------
Hamiltonian:
 Density Functional     Method          .... DFT(GTOs)
  Functional kind                       .... Exchange
  Functional name                       .... Re-regularized SCAN exchange by Furness et al
  Functional family                     .... MGGA
  Functional refs                              
    [ 0] J. W. Furness, A. D. Kaplan, J. Ning, J. P. Perdew, and J. Sun.,  J. Phys. Chem. Lett. 11, 8208-8215 (2020), doi: 10.1021/acs.jpclett.0c02405
    [ 1] J. W. Furness, A. D. Kaplan, J. Ning, J. P. Perdew, and J. Sun.,  J. Phys. Chem. Lett. 11, 9248-9248 (2020), doi: 10.1021/acs.jpclett.0c03077
  Functional external parameters        .... 6
    Parameter  0 _c1        =  6.670000e-01 : c1 parameter        
    Parameter  1 _c2        =  8.000000e-01 : c2 parameter        
    Parameter  2 _d         =  1.240000e+00 : d parameter         
    Parameter  3 _k1        =  6.500000e-02 : k1 parameter        
    Parameter  4 _eta       =  1.000000e-03 : eta parameter       
    Parameter  5 _dp2       =  3.610000e-01 : dp2 parameter       
  Functional kind                       .... Correlation
  Functional name                       .... Re-regularized SCAN correlation by Furness et al
  Functional family                     .... MGGA
  Functional refs                              
    [ 0] J. W. Furness, A. D. Kaplan, J. Ning, J. P. Perdew, and J. Sun.,  J. Phys. Chem. Lett. 11, 8208-8215 (2020), doi: 10.1021/acs.jpclett.0c02405
    [ 1] J. W. Furness, A. D. Kaplan, J. Ning, J. P. Perdew, and J. Sun.,  J. Phys. Chem. Lett. 11, 9248-9248 (2020), doi: 10.1021/acs.jpclett.0c03077
  Functional external parameters        .... 1
    Parameter  0 _eta       =  1.000000e-03 : Regularization parameter
 Gradients option       PostSCFGGA      .... off
 RI-approximation to the Coulomb term is turned on
   Number of AuxJ basis functions       .... 737


General Settings:
 Integral files         IntName         .... sp_solv
 Hartree-Fock type      HFTyp           .... RHF
 Total Charge           Charge          ....    0
 Multiplicity           Mult            ....    1
 Number of Electrons    NEL             ....   86
 Basis Dimension        Dim             ....  304
 Nuclear Repulsion      ENuc            ....    669.2908896017 Eh

Convergence Acceleration:
 AO-DIIS                CNVDIIS         .... on
   Start iteration      DIISMaxIt       ....    12
   Startup error        DIISStart       ....  0.200000
   # of expansion vecs  DIISMaxEq       ....     5
   Bias factor          DIISBfac        ....   1.050
   Max. coefficient     DIISMaxC        ....  10.000
 MO-DIIS                CNVKDIIS        .... off
 Trust-Rad. Augm. Hess. CNVTRAH         .... auto
   Auto Start mean grad. ratio tolernc. ....  1.125000
   Auto Start start iteration           ....     1
   Auto Start num. interpolation iter.  ....    10
   Max. Number of Micro iterations      ....    24
   Max. Number of Macro iterations      .... Maxiter - #DIIS iter
   Number of Davidson start vectors     ....     2
   Converg. threshold    (grad. norm)   ....   3.330e-04
   Grad. Scal. Fac. for Micro threshold ....   0.100
   Minimum threshold for Micro iter.    ....   1.000e-02
   NR start threshold (gradient norm)   ....   1.000e-04
   Initial trust radius                 ....   0.400
   Minimum AH scaling param. (alpha)    ....   1.000
   Maximum AH scaling param. (alpha)    .... 1000.000
   Quad. conv. algorithm                .... NR
   White noise on init. David. guess    .... on
   Maximum white noise                  ....   0.010
   Pseudo random numbers                .... off
   Inactive MOs                         .... canonical
   Orbital update algorithm             .... Taylor
   Preconditioner                       .... Diag
   Full preconditioner red. dimension   ....   250
   COSX micro iterations for RIJONX calc.... off
 SOSCF                  CNVSOSCF        .... on
   Start iteration      SOSCFMaxIt      ....   150
   Startup grad/error   SOSCFStart      ....  0.003300
   Hessian update       SOSCFHessUp     .... L-BFGS
 Level Shifting         CNVShift        .... on
   Level shift para.    LevelShift      ....    0.2500
   Turn off err/grad.   ShiftErr        ....    0.0010
 Zerner damping         CNVZerner       .... off
 Static damping         CNVDamp         .... on
   Fraction old density DampFac         ....    0.7000
   Max. Damping (<1)    DampMax         ....    0.9800
   Min. Damping (>=0)   DampMin         ....    0.0000
   Turn off err/grad.   DampErr         ....    0.1000

SCF Procedure:
 Maximum # iterations   MaxIter         ....   125
 SCF integral mode      SCFMode         .... Direct
   Integral package                     .... SHARK and LIBINT hybrid scheme
 Reset frequency        DirectResetFreq ....    20
 Integral Threshold     Thresh          ....  1.000e-10 Eh
 Primitive CutOff       TCut            ....  1.000e-11 Eh

Convergence Tolerance:
 Convergence Check Mode ConvCheckMode   .... Total+1el-Energy
 Convergence forced     ConvForced      .... 0
 Energy Change          TolE            ....  1.000e-06 Eh
 1-El. energy change                    ....  1.000e-03 Eh
 Orbital Gradient       TolG            ....  3.330e-04
 Orbital Rotation angle TolX            ....  3.330e-04
 DIIS Error             TolErr          ....  1.000e-06

---------------------
INITIAL GUESS: MOREAD
---------------------
Guess MOs are being read from file: sp_solv.ges
Input Geometry matches current geometry (good)
Atom 0: N(Shells)= 9 and 6 - projection required
Input basis set needs projection
NBasis(read)= 190
NBasis(calc)= 304
Basis set overlap was calculated
Using GuessMode=FMatrix for the initial guess
C*T matrix was formed
Effective Fockian was calculated
Effective Fockian was diagonalized
Initial density was built
                      ------------------
                      INITIAL GUESS DONE (   0.1 sec)
                      ------------------
             **** ENERGY FILE WAS UPDATED (sp_solv.en.tmp) ****
Finished Guess after   0.3 sec
Maximum memory used throughout the entire GUESS-calculation: 25.1 MB

-------------------------------------------------------------------------------------------
                                      ORCA LEAN-SCF
                              memory conserving SCF solver
-------------------------------------------------------------------------------------------

--------------------
CPCM SOLVATION MODEL
--------------------
CPCM parameters:
  Epsilon                                         ...      78.3550
  Refrac                                          ...       1.3328
  Rsolv                                           ...       1.3000
  Surface type                                    ... GAUSSIAN VDW
  Discretization scheme                           ... Constant charge density
    Threshold for H atoms                         ...       5.0000 (charges/Ang^2)
    Threshold for non-H atoms                     ...       5.0000 (charges/Ang^2)
  Epsilon function type                           ...         CPCM
Solvent:                                          ... WATER
SMD-CDS solvent descriptors:
  Soln                                            ...       1.3328
  Soln25                                          ...       1.3323
  Sola                                            ...       0.0000
  Solb                                            ...       0.0000
  Solg                                            ...       0.0000
  Solc                                            ...       0.0000
  Solh                                            ...       0.0000
Radii:
  Scheme                                          ... Element-dependent radii
  Radius for C  used is    3.4960 Bohr (=   1.8500 Ang.)
  Radius for H  used is    2.2677 Bohr (=   1.2000 Ang.)
  Radius for O  used is    2.8724 Bohr (=   1.5200 Ang.)
Calculating surface                               ...        done! (  0.0s)
Cavity surface points                             ...         2021
Cavity Volume                                     ...    1205.1165
Cavity Surface-area                               ...     731.0551
Calculating surface distance matrix               ...        done! (  0.0s)
Performing Cholesky decomposition & store         ...        done! (  0.1s)
Overall time for CPCM initialization              ...                 0.2s

----------------------------------------D-I-I-S--------------------------------------------
Iteration    Energy (Eh)           Delta-E    RMSDP     MaxDP     DIISErr   Damp  Time(sec)
-------------------------------------------------------------------------------------------
               ***  Starting incremental Fock matrix formation  ***
    1    -466.7791798891553299     0.00e+00  7.30e-03  4.76e-01  6.29e-01  0.700   5.7
    2    -466.8513692416504455    -7.22e-02  5.43e-03  3.27e-01  4.43e-01  0.700   5.0
    3    -466.9024019041141855    -5.10e-02  3.85e-03  2.24e-01  3.11e-01  0.700   4.9
    4    -466.9382603394133184    -3.59e-02  2.71e-03  1.54e-01  2.18e-01  0.700   4.8
                               ***Turning on AO-DIIS***
    5    -466.9634358608172988    -2.52e-02  1.92e-03  1.04e-01  1.52e-01  0.700   4.7
    6    -466.9810830311696463    -1.76e-02  1.35e-03  7.21e-02  1.06e-01  0.700   4.7
    7    -466.9934723073943132    -1.24e-02  9.46e-04  5.03e-02  7.44e-02  0.700   4.6
    8    -467.0021547242963607    -8.68e-03  2.21e-03  1.17e-01  5.23e-02  0.000   4.5
                              *** Initializing SOSCF ***
---------------------------------------S-O-S-C-F--------------------------------------
Iteration    Energy (Eh)           Delta-E    RMSDP     MaxDP     MaxGrad    Time(sec)
--------------------------------------------------------------------------------------
    9    -467.0224547425611945    -2.03e-02  1.95e-05  1.62e-03  1.77e-04     4.7
               *** Restarting incremental Fock matrix formation ***
   10    -467.0224550206057756    -2.78e-07  1.38e-05  1.21e-03  2.05e-05     5.7
                  *** Gradient check signals convergence ***

               *****************************************************
               *                     SUCCESS                       *
               *           SCF CONVERGED AFTER  10 CYCLES          *
               *****************************************************


SMD CDS free energy correction energy :                 4.79250     Kcal/mol
Total Energy after SMD CDS correction =              -467.014817694 Eh
             **** ENERGY FILE WAS UPDATED (sp_solv.en.tmp) ****

----------------
TOTAL SCF ENERGY
----------------

Total Energy       :       -467.01481769369195 Eh          -12708.11926 eV

Components:
Nuclear Repulsion  :        669.29088960172157 Eh           18212.33100 eV
Electronic Energy  :      -1136.29759311867429 Eh          -30920.22946 eV
One Electron Energy:      -1958.92175072958230 Eh          -53304.97081 eV
Two Electron Energy:        822.62415761090801 Eh           22384.74135 eV
CPCM Dielectric    :         -0.01575150365296 Eh              -0.42862 eV
SMD CDS (Gcds)     :          0.00763732691384 Eh               0.20782 eV

Virial components:
Potential Energy   :       -931.97802149115432 Eh          -25360.41126 eV
Kinetic Energy     :        464.96320379746231 Eh           12652.29201 eV
Virial Ratio       :          2.00441242205722

DFT components:
N(Alpha)           :       43.000066996695 electrons
N(Beta)            :       43.000066996695 electrons
N(Total)           :       86.000133993391 electrons
E(X)               :      -66.797705652093 Eh       
E(C)               :       -2.725484645168 Eh       
E(XC)              :      -69.523190297261 Eh       

CPCM Solvation Model Properties:
Surface-charge          :         -0.05690185606502
Corrected charge        :         -0.00000000000000
Outlying charge corr.   :          0.00022336143793 Eh               0.00608 eV
Free-energy (cav+disp)  :          0.00763732691384 Eh               0.20782 eV

---------------
SCF CONVERGENCE
---------------

  Last Energy change         ...    2.7804e-07  Tolerance :   1.0000e-06
  Last MAX-Density change    ...    1.2096e-03  Tolerance :   1.0000e-05
  Last RMS-Density change    ...    1.3758e-05  Tolerance :   1.0000e-06
  Last DIIS Error            ...    1.7684e-04  Tolerance :   1.0000e-06
  Last Orbital Gradient      ...    2.0513e-05  Tolerance :   3.3300e-04
  Last Orbital Rotation      ...    5.7742e-05  Tolerance :   3.3300e-04


----------------
ORBITAL ENERGIES
----------------

  NO   OCC          E(Eh)            E(eV) 
   0   2.0000     -18.943184      -515.4702 
   1   2.0000     -10.117803      -275.3194 
   2   2.0000     -10.034611      -273.0556 
   3   2.0000     -10.032415      -272.9959 
   4   2.0000     -10.028418      -272.8871 
   5   2.0000     -10.024859      -272.7903 
   6   2.0000     -10.023694      -272.7586 
   7   2.0000     -10.017689      -272.5952 
   8   2.0000     -10.009709      -272.3780 
   9   2.0000     -10.004795      -272.2443 
  10   2.0000     -10.003586      -272.2114 
  11   2.0000      -1.012216       -27.5438 
  12   2.0000      -0.806033       -21.9333 
  13   2.0000      -0.765831       -20.8393 
  14   2.0000      -0.711837       -19.3701 
  15   2.0000      -0.690664       -18.7939 
  16   2.0000      -0.642026       -17.4704 
  17   2.0000      -0.639820       -17.4104 
  18   2.0000      -0.570087       -15.5128 
  19   2.0000      -0.548695       -14.9307 
  20   2.0000      -0.528173       -14.3723 
  21   2.0000      -0.486706       -13.2439 
  22   2.0000      -0.443966       -12.0809 
  23   2.0000      -0.436529       -11.8786 
  24   2.0000      -0.418685       -11.3930 
  25   2.0000      -0.407393       -11.0857 
  26   2.0000      -0.403119       -10.9694 
  27   2.0000      -0.386044       -10.5048 
  28   2.0000      -0.378952       -10.3118 
  29   2.0000      -0.366008        -9.9596 
  30   2.0000      -0.362481        -9.8636 
  31   2.0000      -0.353035        -9.6066 
  32   2.0000      -0.338470        -9.2102 
  33   2.0000      -0.333452        -9.0737 
  34   2.0000      -0.328062        -8.9270 
  35   2.0000      -0.314421        -8.5558 
  36   2.0000      -0.309984        -8.4351 
  37   2.0000      -0.294892        -8.0244 
  38   2.0000      -0.290902        -7.9159 
  39   2.0000      -0.283877        -7.7247 
  40   2.0000      -0.276372        -7.5205 
  41   2.0000      -0.269187        -7.3250 
  42   2.0000      -0.209138        -5.6909 
  43   0.0000      -0.047837        -1.3017 
  44   0.0000       0.079755         2.1702 
  45   0.0000       0.098872         2.6905 
  46   0.0000       0.111177         3.0253 
  47   0.0000       0.118538         3.2256 
  48   0.0000       0.126042         3.4298 
  49   0.0000       0.132690         3.6107 
  50   0.0000       0.140810         3.8316 
  51   0.0000       0.142436         3.8759 
  52   0.0000       0.149884         4.0786 
  53   0.0000       0.150910         4.1065 
*Only the first 10 virtual orbitals were printed.

                    ********************************
                    * MULLIKEN POPULATION ANALYSIS *
                    ********************************

-----------------------
MULLIKEN ATOMIC CHARGES
-----------------------
   0 C :   -0.543096
   1 C :    0.010877
   2 H :    0.174747
   3 C :   -0.383608
   4 C :   -0.361110
   5 C :   -0.089577
   6 H :    0.203404
   7 C :    0.242969
   8 O :   -0.451757
   9 C :   -0.398392
  10 C :    0.075625
  11 C :   -0.603413
  12 C :   -0.593284
  13 H :    0.162537
  14 H :    0.162469
  15 H :    0.166413
  16 H :    0.172885
  17 H :    0.162085
  18 H :    0.168657
  19 H :    0.181928
  20 H :    0.200406
  21 H :    0.171838
  22 H :    0.168412
  23 H :    0.157023
  24 H :    0.180801
  25 H :    0.163424
  26 H :    0.162029
  27 H :    0.175877
  28 H :    0.159832
Sum of atomic charges:   -0.0000000

--------------------------------
MULLIKEN REDUCED ORBITAL CHARGES
--------------------------------
  0 C s       :     3.373904  s :     3.373904
      pz      :     1.083576  p :     3.142218
      px      :     0.944393
      py      :     1.114249
      dz2     :     0.005958  d :     0.026975
      dxz     :     0.005110
      dyz     :     0.003751
      dx2y2   :     0.005906
      dxy     :     0.006249

  1 C s       :     3.065412  s :     3.065412
      pz      :     1.041254  p :     2.877103
      px      :     0.907670
      py      :     0.928179
      dz2     :     0.009797  d :     0.046609
      dxz     :     0.007089
      dyz     :     0.008591
      dx2y2   :     0.010928
      dxy     :     0.010203

  2 H s       :     0.807904  s :     0.807904
      pz      :     0.009887  p :     0.017349
      px      :     0.003162
      py      :     0.004301

  3 C s       :     3.300813  s :     3.300813
      pz      :     1.100687  p :     3.045880
      px      :     0.958990
      py      :     0.986203
      dz2     :     0.006727  d :     0.036916
      dxz     :     0.005678
      dyz     :     0.007496
      dx2y2   :     0.008814
      dxy     :     0.008200

  4 C s       :     3.277700  s :     3.277700
      pz      :     0.979895  p :     3.046607
      px      :     0.963580
      py      :     1.103132
      dz2     :     0.009156  d :     0.036803
      dxz     :     0.006447
      dyz     :     0.005268
      dx2y2   :     0.008378
      dxy     :     0.007554

  5 C s       :     3.091934  s :     3.091934
      pz      :     1.043951  p :     2.953878
      px      :     0.977757
      py      :     0.932171
      dz2     :     0.010183  d :     0.043765
      dxz     :     0.007270
      dyz     :     0.005160
      dx2y2   :     0.010862
      dxy     :     0.010291

  6 H s       :     0.778884  s :     0.778884
      pz      :     0.009973  p :     0.017712
      px      :     0.003334
      py      :     0.004405

  7 C s       :     3.218570  s :     3.218570
      pz      :     0.661004  p :     2.445878
      px      :     0.918739
      py      :     0.866135
      dz2     :     0.007006  d :     0.092583
      dxz     :     0.009467
      dyz     :     0.014979
      dx2y2   :     0.036076
      dxy     :     0.025055

  8 O s       :     3.828689  s :     3.828689
      pz      :     1.421073  p :     4.592410
      px      :     1.698559
      py      :     1.472777
      dz2     :     0.004224  d :     0.030658
      dxz     :     0.004367
      dyz     :     0.008040
      dx2y2   :     0.005734
      dxy     :     0.008293

  9 C s       :     3.260085  s :     3.260085
      pz      :     1.022971  p :     3.104026
      px      :     0.933811
      py      :     1.147245
      dz2     :     0.009007  d :     0.034281
      dxz     :     0.004473
      dyz     :     0.004668
      dx2y2   :     0.010436
      dxy     :     0.005697

 10 C s       :     3.009593  s :     3.009593
      pz      :     0.879606  p :     2.868721
      px      :     0.927212
      py      :     1.061902
      dz2     :     0.011682  d :     0.046060
      dxz     :     0.009648
      dyz     :     0.007311
      dx2y2   :     0.011710
      dxy     :     0.005709

 11 C s       :     3.390765  s :     3.390765
      pz      :     0.986786  p :     3.185727
      px      :     1.109294
      py      :     1.089647
      dz2     :     0.007355  d :     0.026921
      dxz     :     0.004371
      dyz     :     0.006034
      dx2y2   :     0.007123
      dxy     :     0.002039

 12 C s       :     3.392212  s :     3.392212
      pz      :     1.029726  p :     3.174038
      px      :     1.081536
      py      :     1.062776
      dz2     :     0.008204  d :     0.027034
      dxz     :     0.003687
      dyz     :     0.004241
      dx2y2   :     0.008600
      dxy     :     0.002303

 13 H s       :     0.819151  s :     0.819151
      pz      :     0.003707  p :     0.018312
      px      :     0.004702
      py      :     0.009904

 14 H s       :     0.819209  s :     0.819209
      pz      :     0.006493  p :     0.018322
      px      :     0.005721
      py      :     0.006108

 15 H s       :     0.815344  s :     0.815344
      pz      :     0.009963  p :     0.018243
      px      :     0.003575
      py      :     0.004705

 16 H s       :     0.809405  s :     0.809405
      pz      :     0.009764  p :     0.017710
      px      :     0.003427
      py      :     0.004520

 17 H s       :     0.819974  s :     0.819974
      pz      :     0.006520  p :     0.017941
      px      :     0.005335
      py      :     0.006087

 18 H s       :     0.813343  s :     0.813343
      pz      :     0.003450  p :     0.018000
      px      :     0.004592
      py      :     0.009958

 19 H s       :     0.800148  s :     0.800148
      pz      :     0.009967  p :     0.017924
      px      :     0.003550
      py      :     0.004406

 20 H s       :     0.781449  s :     0.781449
      pz      :     0.010313  p :     0.018145
      px      :     0.003553
      py      :     0.004279

 21 H s       :     0.810459  s :     0.810459
      pz      :     0.003264  p :     0.017703
      px      :     0.004048
      py      :     0.010391

 22 H s       :     0.814223  s :     0.814223
      pz      :     0.003306  p :     0.017364
      px      :     0.003685
      py      :     0.010373

 23 H s       :     0.824662  s :     0.824662
      pz      :     0.003669  p :     0.018316
      px      :     0.010883
      py      :     0.003764

 24 H s       :     0.800407  s :     0.800407
      pz      :     0.003699  p :     0.018792
      px      :     0.004490
      py      :     0.010603

 25 H s       :     0.818074  s :     0.818074
      pz      :     0.007583  p :     0.018502
      px      :     0.005026
      py      :     0.005892

 26 H s       :     0.819731  s :     0.819731
      pz      :     0.009672  p :     0.018240
      px      :     0.004053
      py      :     0.004514

 27 H s       :     0.805603  s :     0.805603
      pz      :     0.003636  p :     0.018520
      px      :     0.004158
      py      :     0.010726

 28 H s       :     0.821869  s :     0.821869
      pz      :     0.003668  p :     0.018300
      px      :     0.010838
      py      :     0.003794


------------------------
MULLIKEN OVERLAP CHARGES
------------------------
B(  0-C ,  1-C ) :   0.4171 B(  0-C ,  3-C ) :  -0.1785 B(  0-C ,  9-C ) :  -0.1744 
B(  0-C , 13-H ) :   0.8163 B(  0-C , 14-H ) :   0.8113 B(  0-C , 15-H ) :   0.9058 
B(  1-C ,  2-H ) :   0.8228 B(  1-C ,  3-C ) :   0.4642 B(  1-C ,  4-C ) :  -0.2627 
B(  1-C ,  5-C ) :   0.1741 B(  1-C ,  7-C ) :  -0.0912 B(  1-C ,  9-C ) :   0.2682 
B(  1-C , 13-H ) :  -0.0757 B(  1-C , 14-H ) :  -0.0740 B(  1-C , 15-H ) :  -0.1194 
B(  1-C , 16-H ) :  -0.1497 B(  1-C , 20-H ) :  -0.1225 B(  2-H ,  3-C ) :  -0.0626 
B(  2-H ,  9-C ) :  -0.0652 B(  3-C ,  4-C ) :   0.2953 B(  3-C ,  5-C ) :  -0.1839 
B(  3-C ,  9-C ) :  -0.2860 B(  3-C , 16-H ) :   0.9404 B(  3-C , 17-H ) :   0.7439 
B(  3-C , 19-H ) :  -0.0642 B(  4-C ,  5-C ) :   0.1227 B(  4-C ,  6-H ) :  -0.0840 
B(  4-C ,  9-C ) :   0.1219 B(  4-C , 10-C ) :  -0.0684 B(  4-C , 16-H ) :  -0.1159 
B(  4-C , 18-H ) :   0.7571 B(  4-C , 19-H ) :   0.8804 B(  5-C ,  6-H ) :   0.8586 
B(  5-C ,  7-C ) :  -0.2007 B(  5-C ,  8-O ) :  -0.3507 B(  5-C ,  9-C ) :  -0.4542 
B(  5-C , 12-C ) :  -0.1585 B(  5-C , 18-H ) :  -0.0715 B(  5-C , 19-H ) :  -0.0979 
B(  5-C , 22-H ) :  -0.1603 B(  5-C , 27-H ) :  -0.0534 B(  6-H , 10-C ) :  -0.0781 
B(  7-C ,  8-O ) :   1.0989 B(  7-C ,  9-C ) :   0.5726 B(  7-C , 11-C ) :  -0.0558 
B(  7-C , 20-H ) :  -0.0889 B(  7-C , 21-H ) :  -0.0995 B(  8-O ,  9-C ) :  -0.1965 
B(  8-O , 10-C ) :   0.0708 B(  9-C , 20-H ) :   0.8791 B(  9-C , 21-H ) :   0.7976 
B( 10-C , 11-C ) :   0.3418 B( 10-C , 12-C ) :   0.4585 B( 10-C , 22-H ) :   0.9568 
B( 10-C , 23-H ) :  -0.1055 B( 10-C , 24-H ) :  -0.0869 B( 10-C , 25-H ) :  -0.0669 
B( 10-C , 26-H ) :  -0.1054 B( 10-C , 27-H ) :  -0.0835 B( 10-C , 28-H ) :  -0.0957 
B( 11-C , 12-C ) :  -0.1922 B( 11-C , 22-H ) :  -0.0701 B( 11-C , 23-H ) :   0.8091 
B( 11-C , 24-H ) :   0.8684 B( 11-C , 25-H ) :   0.8024 B( 12-C , 22-H ) :  -0.0602 
B( 12-C , 26-H ) :   0.8180 B( 12-C , 27-H ) :   0.8704 B( 12-C , 28-H ) :   0.8149 



                     *******************************
                     * LOEWDIN POPULATION ANALYSIS *
                     *******************************

----------------------
LOEWDIN ATOMIC CHARGES
----------------------
   0 C :   -0.416393
   1 C :   -0.211674
   2 H :    0.166028
   3 C :   -0.291555
   4 C :   -0.267247
   5 C :   -0.190997
   6 H :    0.194163
   7 C :    0.251050
   8 O :   -0.546550
   9 C :   -0.258905
  10 C :   -0.222365
  11 C :   -0.418349
  12 C :   -0.416803
  13 H :    0.157932
  14 H :    0.158421
  15 H :    0.158298
  16 H :    0.164505
  17 H :    0.165360
  18 H :    0.167949
  19 H :    0.168305
  20 H :    0.188102
  21 H :    0.178485
  22 H :    0.163792
  23 H :    0.155488
  24 H :    0.169032
  25 H :    0.156486
  26 H :    0.156884
  27 H :    0.165449
  28 H :    0.155108

-------------------------------
LOEWDIN REDUCED ORBITAL CHARGES
-------------------------------
  0 C s       :     2.970251  s :     2.970251
      pz      :     1.153201  p :     3.382970
      px      :     1.071983
      py      :     1.157786
      dz2     :     0.014480  d :     0.063171
      dxz     :     0.011266
      dyz     :     0.009414
      dx2y2   :     0.014081
      dxy     :     0.013930

  1 C s       :     2.901259  s :     2.901259
      pz      :     1.106151  p :     3.214013
      px      :     1.046708
      py      :     1.061154
      dz2     :     0.021442  d :     0.096401
      dxz     :     0.013857
      dyz     :     0.017885
      dx2y2   :     0.022989
      dxy     :     0.020228

  2 H s       :     0.790526  s :     0.790526
      pz      :     0.024732  p :     0.043446
      px      :     0.008036
      py      :     0.010679

  3 C s       :     2.927382  s :     2.927382
      pz      :     1.141585  p :     3.283670
      px      :     1.062876
      py      :     1.079209
      dz2     :     0.015561  d :     0.080502
      dxz     :     0.011851
      dyz     :     0.016436
      dx2y2   :     0.019406
      dxy     :     0.017247

  4 C s       :     2.923152  s :     2.923152
      pz      :     1.105722  p :     3.264130
      px      :     1.057061
      py      :     1.101348
      dz2     :     0.020441  d :     0.079964
      dxz     :     0.013196
      dyz     :     0.011873
      dx2y2   :     0.018635
      dxy     :     0.015820

  5 C s       :     2.894270  s :     2.894270
      pz      :     1.103420  p :     3.207001
      px      :     1.063417
      py      :     1.040164
      dz2     :     0.021677  d :     0.089726
      dxz     :     0.013740
      dyz     :     0.011216
      dx2y2   :     0.022404
      dxy     :     0.020689

  6 H s       :     0.760464  s :     0.760464
      pz      :     0.025383  p :     0.045373
      px      :     0.008670
      py      :     0.011320

  7 C s       :     2.820008  s :     2.820008
      pz      :     0.698888  p :     2.729755
      px      :     1.004692
      py      :     1.026174
      dz2     :     0.015159  d :     0.199187
      dxz     :     0.018588
      dyz     :     0.027811
      dx2y2   :     0.081905
      dxy     :     0.055725

  8 O s       :     3.554101  s :     3.554101
      pz      :     1.419411  p :     4.738817
      px      :     1.722018
      py      :     1.597388
      dz2     :     0.027072  d :     0.253631
      dxz     :     0.033995
      dyz     :     0.034890
      dx2y2   :     0.087266
      dxy     :     0.070407

  9 C s       :     2.928051  s :     2.928051
      pz      :     1.106507  p :     3.256827
      px      :     1.029475
      py      :     1.120845
      dz2     :     0.019695  d :     0.074028
      dxz     :     0.009274
      dyz     :     0.010115
      dx2y2   :     0.022282
      dxy     :     0.012662

 10 C s       :     2.900379  s :     2.900379
      pz      :     1.067746  p :     3.227747
      px      :     1.045074
      py      :     1.114927
      dz2     :     0.023896  d :     0.094239
      dxz     :     0.019026
      dyz     :     0.014730
      dx2y2   :     0.025470
      dxy     :     0.011117

 11 C s       :     2.964677  s :     2.964677
      pz      :     1.088931  p :     3.390811
      px      :     1.147177
      py      :     1.154703
      dz2     :     0.017152  d :     0.062860
      dxz     :     0.009510
      dyz     :     0.013787
      dx2y2   :     0.017491
      dxy     :     0.004921

 12 C s       :     2.967399  s :     2.967399
      pz      :     1.111642  p :     3.386385
      px      :     1.131130
      py      :     1.143613
      dz2     :     0.018947  d :     0.063019
      dxz     :     0.008373
      dyz     :     0.009888
      dx2y2   :     0.020546
      dxy     :     0.005264

 13 H s       :     0.798026  s :     0.798026
      pz      :     0.008203  p :     0.044041
      px      :     0.010996
      py      :     0.024842

 14 H s       :     0.797586  s :     0.797586
      pz      :     0.015821  p :     0.043993
      px      :     0.013594
      py      :     0.014578

 15 H s       :     0.797762  s :     0.797762
      pz      :     0.024948  p :     0.043939
      px      :     0.008084
      py      :     0.010907

 16 H s       :     0.791725  s :     0.791725
      pz      :     0.024457  p :     0.043770
      px      :     0.008063
      py      :     0.011250

 17 H s       :     0.790681  s :     0.790681
      pz      :     0.016086  p :     0.043959
      px      :     0.013029
      py      :     0.014844

 18 H s       :     0.787969  s :     0.787969
      pz      :     0.008023  p :     0.044082
      px      :     0.011102
      py      :     0.024957

 19 H s       :     0.787318  s :     0.787318
      pz      :     0.025257  p :     0.044376
      px      :     0.008316
      py      :     0.010804

 20 H s       :     0.766296  s :     0.766296
      pz      :     0.026384  p :     0.045602
      px      :     0.008713
      py      :     0.010504

 21 H s       :     0.778042  s :     0.778042
      pz      :     0.007706  p :     0.043473
      px      :     0.009404
      py      :     0.026364

 22 H s       :     0.793125  s :     0.793125
      pz      :     0.008182  p :     0.043083
      px      :     0.009108
      py      :     0.025793

 23 H s       :     0.800358  s :     0.800358
      pz      :     0.008352  p :     0.044154
      px      :     0.027181
      py      :     0.008621

 24 H s       :     0.784596  s :     0.784596
      pz      :     0.008445  p :     0.046372
      px      :     0.010522
      py      :     0.027405

 25 H s       :     0.798853  s :     0.798853
      pz      :     0.018556  p :     0.044661
      px      :     0.011795
      py      :     0.014311

 26 H s       :     0.799173  s :     0.799173
      pz      :     0.024026  p :     0.043943
      px      :     0.009285
      py      :     0.010632

 27 H s       :     0.789058  s :     0.789058
      pz      :     0.008239  p :     0.045493
      px      :     0.009638
      py      :     0.027617

 28 H s       :     0.800788  s :     0.800788
      pz      :     0.008349  p :     0.044104
      px      :     0.027027
      py      :     0.008728


---------------------------------
LOEWDIN BOND ORDERS (THRESH 0.050000)
---------------------------------
B(  0-C ,  1-C ) :   1.1095 B(  0-C ,  3-C ) :   0.0732 B(  0-C ,  9-C ) :   0.0740 
B(  0-C , 13-H ) :   0.9217 B(  0-C , 14-H ) :   0.9208 B(  0-C , 15-H ) :   0.9211 
B(  1-C ,  2-H ) :   0.8539 B(  1-C ,  3-C ) :   1.0680 B(  1-C ,  4-C ) :   0.0683 
B(  1-C ,  7-C ) :   0.0769 B(  1-C ,  9-C ) :   1.0339 B(  3-C ,  4-C ) :   1.0999 
B(  3-C ,  5-C ) :   0.0658 B(  3-C ,  9-C ) :   0.0601 B(  3-C , 16-H ) :   0.8799 
B(  3-C , 17-H ) :   0.8804 B(  4-C ,  5-C ) :   1.0237 B(  4-C ,  7-C ) :   0.0805 
B(  4-C , 10-C ) :   0.0689 B(  4-C , 18-H ) :   0.8770 B(  4-C , 19-H ) :   0.8748 
B(  5-C ,  6-H ) :   0.8172 B(  5-C ,  7-C ) :   0.9577 B(  5-C ,  8-O ) :   0.1964 
B(  5-C ,  9-C ) :   0.0845 B(  5-C , 10-C ) :   1.0320 B(  5-C , 11-C ) :   0.0569 
B(  5-C , 12-C ) :   0.0710 B(  7-C ,  8-O ) :   2.3099 B(  7-C ,  9-C ) :   0.9949 
B(  7-C , 10-C ) :   0.0550 B(  8-O ,  9-C ) :   0.2194 B(  9-C , 20-H ) :   0.8536 
B(  9-C , 21-H ) :   0.8695 B( 10-C , 11-C ) :   1.1012 B( 10-C , 12-C ) :   1.1035 
B( 10-C , 22-H ) :   0.8552 B( 11-C , 12-C ) :   0.0707 B( 11-C , 23-H ) :   0.9200 
B( 11-C , 24-H ) :   0.9042 B( 11-C , 25-H ) :   0.9191 B( 12-C , 26-H ) :   0.9217 
B( 12-C , 27-H ) :   0.9075 B( 12-C , 28-H ) :   0.9217 

------------------------------------------
LOEWDIN REDUCED ORBITAL POPULATIONS PER MO
-------------------------------------------
THRESHOLD FOR PRINTING IS 0.1%%
                      0         1         2         3         4         5   
                 -18.94318 -10.11780 -10.03461 -10.03242 -10.02842 -10.02486
                   2.00000   2.00000   2.00000   2.00000   2.00000   2.00000
                  --------  --------  --------  --------  --------  --------
 1 C  s               0.0       0.0      99.6       0.0       0.0       0.0
 4 C  s               0.0       0.0       0.0       0.0       0.0      99.7
 5 C  s               0.0       0.0       0.0      99.6       0.0       0.0
 7 C  s               0.0      99.2       0.0       0.0       0.0       0.0
 8 O  s              99.9       0.0       0.0       0.0       0.0       0.0
 8 O  py              0.0       0.2       0.0       0.0       0.0       0.0
 8 O  dxy             0.0       0.2       0.0       0.0       0.0       0.0
10 C  s               0.0       0.0       0.0       0.0      99.6       0.0

                      6         7         8         9        10        11   
                 -10.02369 -10.01769 -10.00971 -10.00480 -10.00359  -1.01222
                   2.00000   2.00000   2.00000   2.00000   2.00000   2.00000
                  --------  --------  --------  --------  --------  --------
 0 C  s               0.0       0.0      99.7       0.0       0.0       0.0
 1 C  px              0.0       0.0       0.1       0.0       0.0       0.1
 3 C  s               0.0      99.7       0.0       0.0       0.0       0.0
 4 C  py              0.0       0.0       0.0       0.0       0.0       0.1
 5 C  s               0.0       0.0       0.0       0.0       0.0       1.0
 5 C  py              0.0       0.0       0.0       0.0       0.0       1.7
 7 C  s               0.0       0.0       0.0       0.0       0.0      16.9
 7 C  pz              0.0       0.0       0.0       0.0       0.0       0.9
 7 C  px              0.1       0.0       0.0       0.0       0.0       3.0
 7 C  py              0.0       0.0       0.0       0.0       0.0       9.3
 7 C  dz2             0.0       0.0       0.0       0.0       0.0       0.3
 7 C  dyz             0.0       0.0       0.0       0.0       0.0       0.2
 7 C  dx2y2           0.0       0.0       0.0       0.0       0.0       0.3
 7 C  dxy             0.0       0.0       0.0       0.0       0.0       0.8
 8 O  s               0.0       0.0       0.0       0.0       0.0      54.2
 8 O  pz              0.0       0.0       0.0       0.0       0.0       0.4
 8 O  px              0.0       0.0       0.0       0.0       0.0       1.4
 8 O  py              0.0       0.0       0.0       0.0       0.0       4.1
 8 O  dxy             0.0       0.0       0.0       0.0       0.0       0.3
 9 C  s              99.7       0.0       0.0       0.0       0.0       1.1
 9 C  pz              0.0       0.0       0.0       0.0       0.0       0.2
 9 C  px              0.0       0.0       0.0       0.0       0.0       1.7
10 C  s               0.0       0.0       0.0       0.0       0.0       0.1
10 C  px              0.0       0.0       0.0       0.0       0.0       0.2
10 C  py              0.0       0.0       0.0       0.0       0.0       0.1
11 C  s               0.0       0.0       0.0       0.0      99.7       0.0
12 C  s               0.0       0.0       0.0      99.7       0.0       0.0

                     12        13        14        15        16        17   
                  -0.80603  -0.76583  -0.71184  -0.69066  -0.64203  -0.63982
                   2.00000   2.00000   2.00000   2.00000   2.00000   2.00000
                  --------  --------  --------  --------  --------  --------
 0 C  s               2.9       4.7       8.8       3.6       7.0      13.2
 0 C  px              1.4       1.2       0.5       0.0       0.3       0.5
 0 C  py              0.0       0.0       0.1       0.3       0.0       0.0
 1 C  s              11.6      10.2       5.5       1.2       0.0       0.0
 1 C  pz              0.4       0.3       0.4       1.0       0.0       0.0
 1 C  px              0.7       0.1       2.3       1.9       3.3       6.1
 1 C  py              0.2       0.0       1.2       6.0       0.0       0.4
 1 C  dx2y2           0.0       0.0       0.0       0.0       0.1       0.1
 1 C  dxy             0.0       0.0       0.0       0.1       0.0       0.0
 2 H  s               1.2       1.3       0.9       0.2       0.0       0.0
 2 H  pz              0.1       0.1       0.1       0.0       0.0       0.0
 3 C  s              10.4       2.6       2.1      11.7       1.1       5.4
 3 C  pz              0.0       0.0       0.1       0.2       0.0       0.0
 3 C  px              0.5       0.9       4.4       0.1       0.1       0.0
 3 C  py              1.5       1.1       0.9       0.2       0.0       0.1
 3 C  dx2y2           0.0       0.0       0.1       0.0       0.0       0.0
 4 C  s              10.9       0.4      13.0       3.9       0.0       0.0
 4 C  pz              1.0       0.1       0.2       0.2       0.3       0.1
 4 C  px              0.2       2.6       0.0       2.1       0.7       3.5
 4 C  py              0.8       0.1       0.1       0.8       0.1       0.5
 5 C  s              11.9       7.3       3.7       2.0       3.6       4.7
 5 C  pz              0.4       0.1       0.5       0.8       1.0       0.2
 5 C  px              0.4       3.8       4.3       0.4       0.1       0.0
 5 C  py              0.0       0.0       0.7       2.4       0.0       0.0
 6 H  s               1.5       1.0       0.7       0.5       1.2       0.8
 6 H  pz              0.1       0.1       0.1       0.0       0.1       0.1
 7 C  s               2.9       0.0       0.2       6.9       0.0       0.1
 7 C  pz              0.2       0.0       0.0       1.3       0.0       0.1
 7 C  px              1.3       3.2       0.5       5.2       1.8       1.5
 7 C  py              5.8       1.3       1.3       2.8       0.8       1.2
 7 C  dx2y2           0.0       0.0       0.1       0.1       0.0       0.0
 7 C  dxy             0.1       0.0       0.0       0.1       0.0       0.0
 8 O  s               2.1       0.1       0.0       3.1       0.0       0.0
 8 O  pz              0.0       0.0       0.0       0.2       0.0       0.0
 8 O  px              0.1       0.1       0.0       0.8       0.1       0.1
 8 O  py              0.2       0.0       0.0       0.9       0.1       0.2
 8 O  dz2             0.1       0.0       0.0       0.2       0.0       0.0
 8 O  dxz             0.0       0.0       0.0       0.1       0.1       0.0
 8 O  dyz             0.0       0.0       0.0       0.2       0.0       0.0
 8 O  dx2y2           0.1       0.1       0.1       0.0       0.1       0.2
 8 O  dxy             0.1       0.1       0.0       0.6       0.0       0.0
 9 C  s               7.7       4.8       2.6      15.6       2.2       1.7
 9 C  pz              0.6       0.4       0.1       0.2       0.0       0.0
 9 C  px              0.0       0.7       1.5       2.2       0.0       0.0
 9 C  py              1.4       0.3       0.0       0.2       0.0       0.0
10 C  s               4.7      17.9       5.5       0.2       0.0       0.0
10 C  pz              0.0       0.0       0.0       0.2      11.6       4.2
10 C  px              1.0       0.0       3.4       0.6       1.0       3.8
10 C  py              0.0       0.4       0.7       0.0       0.0       0.5
10 C  dyz             0.0       0.0       0.0       0.0       0.1       0.1
11 C  s               1.2       7.3       5.6       1.0      23.6       2.5
11 C  pz              0.5       1.8       0.6       0.0       0.6       0.3
11 C  px              0.1       0.2       0.1       0.0       0.0       0.2
11 C  py              0.1       0.2       0.0       0.0       0.0       0.0
12 C  s               1.1       7.5       7.1       0.3       6.9      17.3
12 C  pz              0.3       1.2       0.5       0.0       0.7       0.3
12 C  px              0.3       0.6       0.0       0.0       0.1       0.2
12 C  py              0.1       0.4       0.1       0.0       0.0       0.0
13 H  s               0.3       0.6       1.5       0.6       1.7       3.4
13 H  py              0.0       0.0       0.1       0.0       0.1       0.2
14 H  s               0.3       0.6       1.4       0.8       1.7       3.2
14 H  pz              0.0       0.0       0.0       0.0       0.1       0.1
15 H  s               0.3       0.6       1.4       0.7       1.6       3.0
15 H  pz              0.0       0.0       0.1       0.1       0.1       0.2
16 H  s               1.1       0.3       0.3       2.0       0.2       1.1
16 H  pz              0.1       0.0       0.0       0.2       0.0       0.1
17 H  s               1.1       0.3       0.3       2.5       0.2       1.2
18 H  s               1.2       0.1       2.1       0.9       0.0       0.0
18 H  py              0.1       0.0       0.2       0.1       0.0       0.0
19 H  s               1.2       0.1       2.0       0.7       0.1       0.0
19 H  pz              0.1       0.0       0.2       0.1       0.0       0.0
20 H  s               0.9       0.6       0.4       3.2       0.5       0.4
20 H  pz              0.1       0.1       0.0       0.3       0.0       0.0
21 H  s               0.8       0.6       0.6       2.8       0.5       0.4
21 H  py              0.1       0.1       0.1       0.2       0.0       0.0
22 H  s               0.5       2.3       0.9       0.1       0.0       0.0
22 H  py              0.0       0.2       0.1       0.0       0.0       0.0
23 H  s               0.1       0.9       1.1       0.2       5.7       0.4
23 H  px              0.0       0.1       0.1       0.0       0.5       0.0
24 H  s               0.1       0.9       0.9       0.2       5.2       0.6
24 H  py              0.0       0.1       0.1       0.0       0.4       0.0
25 H  s               0.1       0.9       0.8       0.2       5.9       0.8
25 H  pz              0.0       0.0       0.0       0.0       0.3       0.0
25 H  py              0.0       0.0       0.0       0.0       0.2       0.0
26 H  s               0.1       0.9       1.1       0.0       2.0       4.1
26 H  pz              0.0       0.1       0.1       0.0       0.1       0.3
27 H  s               0.1       1.0       1.2       0.1       1.6       3.9
27 H  py              0.0       0.1       0.1       0.0       0.1       0.3
28 H  s               0.1       1.0       1.3       0.1       1.3       4.3
28 H  px              0.0       0.1       0.1       0.0       0.1       0.3

                     18        19        20        21        22        23   
                  -0.57009  -0.54869  -0.52817  -0.48671  -0.44397  -0.43653
                   2.00000   2.00000   2.00000   2.00000   2.00000   2.00000
                  --------  --------  --------  --------  --------  --------
 0 C  s               2.9       2.4       1.3       0.2       0.0       0.1
 0 C  pz              0.3       0.2       1.3       0.8       1.7       3.7
 0 C  px              1.4       2.4       2.4       1.0       0.4       0.3
 0 C  py              0.5       0.3       0.4       0.1       0.0       0.5
 1 C  s               2.5       3.5       7.7       0.0       0.1       0.1
 1 C  pz              0.8       0.1       4.4       5.0       3.6       6.0
 1 C  px              0.5       0.3       0.3       0.0       0.0       2.8
 1 C  py              3.8       1.9       2.4       0.1       0.0       1.2
 2 H  s               0.7       1.8       6.6       0.7       1.3       2.4
 2 H  pz              0.0       0.1       0.4       0.0       0.0       0.1
 3 C  s               3.9       0.8       5.3       0.0       0.1       0.2
 3 C  pz              0.5       0.1       1.4       4.2       0.2       4.5
 3 C  px              6.3       0.0       0.3       0.1       0.2       1.2
 3 C  py              0.6       0.9       7.1       0.0       0.2       5.2
 3 C  dx2y2           0.2       0.0       0.0       0.0       0.0       0.0
 4 C  s              14.6       0.1       0.7       0.1       0.1       0.1
 4 C  pz              2.2       0.1       1.0       4.8       5.7       0.4
 4 C  px              1.6       1.6       1.2       0.5       0.0       0.1
 4 C  py              1.3       0.2       2.4       0.1       0.2       4.8
 5 C  s               2.0       0.0       0.1       2.5       0.3       0.6
 5 C  pz              3.0       0.3       1.4       3.4       6.2       3.4
 5 C  px              0.7       6.8       1.6       0.4       2.6       3.9
 5 C  py              3.8       5.5       0.4       3.0       8.2       0.1
 5 C  dx2y2           0.0       0.2       0.0       0.0       0.0       0.0
 6 H  s               1.0       0.0       0.1       4.9       5.4       1.9
 6 H  pz              0.0       0.0       0.0       0.2       0.2       0.0
 7 C  s               0.6       4.6       0.0       5.5       0.0       0.0
 7 C  pz              0.0       0.3       2.2       0.6       0.4       1.8
 7 C  px              2.5       0.1       1.0       1.6       6.0       0.7
 7 C  py              2.5       2.8       1.2       0.3       1.2       1.7
 8 O  s               0.2       1.9       0.0       6.4       0.2       1.5
 8 O  pz              0.0       0.2       0.5       0.5       0.1       2.7
 8 O  px              0.3       0.1       0.6       7.2       4.5       0.6
 8 O  py              0.8       2.4       0.1       9.2       3.2       1.9
 8 O  dz2             0.0       0.0       0.0       0.1       0.0       0.0
 8 O  dx2y2           0.5       0.2       0.1       0.0       0.3       0.1
 8 O  dxy             0.0       0.1       0.0       0.6       0.4       0.1
 9 C  s               3.1       0.8       1.8       0.7       0.8       0.2
 9 C  pz              0.6       0.4       5.8       3.0       3.1       0.1
 9 C  px              0.2       4.8       0.8       6.1       4.7       0.5
 9 C  py              2.0       0.1       1.3       0.9       0.1      10.4
 9 C  dx2y2           0.0       0.1       0.0       0.1       0.1       0.0
10 C  s               0.5       7.6       3.4       2.7       0.3       0.6
10 C  pz              0.0       0.1       0.0       0.1       0.5       0.7
10 C  px              1.1       1.2       0.0       1.4       1.7       5.2
10 C  py              0.0       5.0       1.7       0.7       7.7       1.0
11 C  s               0.0       3.8       0.4       0.8       0.5       0.3
11 C  pz              0.1       2.2       0.9       2.2       2.2       2.4
11 C  px              0.0       0.6       0.0       0.1       4.0       0.3
11 C  py              0.0       1.4       0.6       1.4       1.4       1.0
12 C  s               2.0       2.9       1.3       0.2       0.1       0.0
12 C  pz              0.2       0.9       0.7       1.1       1.1       1.4
12 C  px              0.7       1.0       0.5       0.0       1.5       2.1
12 C  py              0.1       2.0       1.2       1.2       2.2       0.9
13 H  s               1.7       0.8       0.5       0.1       0.0       0.0
13 H  py              0.1       0.1       0.0       0.0       0.0       0.0
14 H  s               0.8       1.4       0.8       0.7       0.5       0.0
15 H  s               1.1       1.3       1.6       0.0       0.2       1.9
16 H  s               1.5       0.6       4.9       0.7       0.0       0.1
16 H  pz              0.1       0.0       0.3       0.0       0.0       0.0
17 H  s               1.4       0.4       3.1       0.5       0.3       4.2
17 H  pz              0.1       0.0       0.1       0.0       0.0       0.1
18 H  s               6.6       0.3       0.0       0.0       0.0       1.2
18 H  py              0.4       0.0       0.0       0.0       0.0       0.0
19 H  s               5.6       0.1       1.3       1.3       2.1       0.0
19 H  pz              0.3       0.0       0.1       0.0       0.1       0.0
[...]
16 H  s               1.6       0.5       0.3       0.1       0.0       0.0
16 H  pz              2.0       1.7       0.7       0.2       0.0       0.0
16 H  px              0.4       0.1       0.0       0.0       0.0       0.0
16 H  py              1.4       0.1       0.2       0.0       0.0       0.0
17 H  s               4.7       0.7       0.1       0.1       0.0       0.0
17 H  pz              4.4       1.2       0.1       0.1       0.0       0.0
17 H  px              2.9       0.1       0.0       0.1       0.0       0.0
17 H  py              4.3       0.6       0.1       0.0       0.0       0.0
18 H  s               1.2       0.0       1.8       0.9       0.0       0.0
18 H  pz              0.0       0.3       0.0       0.0       0.0       0.0
18 H  px              0.9       0.1       0.6       0.5       0.0       0.0
18 H  py              2.2       0.0       3.4       1.9       0.0       0.0
19 H  s               0.1       2.8       1.9       0.1       0.0       0.0
19 H  pz              0.2       6.6       4.4       0.2       0.0       0.0
19 H  px              0.0       0.0       0.3       0.0       0.0       0.0
19 H  py              0.2       1.1       0.3       0.0       0.0       0.0
20 H  s               0.0       1.1       0.0       0.3       0.0       0.0
20 H  pz              0.1       2.7       0.0       0.4       0.0       0.0
20 H  px              0.0       0.1       0.0       0.2       0.0       0.0
21 H  s               0.0       1.5       0.2       3.6       0.2       0.0
21 H  px              0.0       0.4       0.1       1.0       0.0       0.0
21 H  py              0.0       2.8       0.3       6.4       0.2       0.0
22 H  s               0.1       2.1       4.6       0.0       0.0       0.0
22 H  pz              0.0       0.1       0.1       0.0       0.0       0.0
22 H  px              0.1       1.0       0.2       0.0       0.0       0.0
22 H  py              0.1       4.6      11.0       0.0       0.0       0.0
23 H  s               0.2       0.0       0.0       0.0       0.0       0.0
23 H  px              0.3       0.0       0.1       0.1       0.0       0.0
24 H  s               0.4       0.2       0.4       0.2       0.0       0.0
24 H  px              0.0       0.2       0.4       0.3       0.0       0.0
24 H  py              1.0       0.5       1.3       0.4       0.0       0.0
25 H  s               0.1       0.1       0.0       0.1       0.0       0.0
25 H  pz              0.1       0.3       0.0       0.2       0.0       0.0
25 H  px              0.2       0.0       0.0       0.0       0.0       0.0
26 H  pz              0.0       0.1       0.1       0.1       0.0       0.0
26 H  px              0.1       0.0       0.0       0.0       0.0       0.0
27 H  s               0.0       0.2       0.4       0.1       0.0       0.0
27 H  px              0.1       0.0       0.2       0.1       0.0       0.0
27 H  py              0.0       0.6       1.4       0.3       0.0       0.0
28 H  s               0.5       0.0       0.0       0.1       0.0       0.0
28 H  px              1.1       0.0       0.0       0.2       0.0       0.0

                    294       295       296       297       298       299   
                  21.98495  22.02636  22.04226  22.06284  22.10765  22.17090
                   0.00000   0.00000   0.00000   0.00000   0.00000   0.00000
                  --------  --------  --------  --------  --------  --------
 0 C  s               6.6      24.1       4.7      31.4       0.1       3.4
 1 C  s              14.5       2.6      22.8       0.0       4.2      45.4
 3 C  s               0.2       2.3       2.9       7.6      50.7       6.7
 4 C  s              12.1       0.8       6.3      10.4       6.8      23.6
 5 C  s               0.3       4.3       1.0       0.0       3.6       4.2
 7 C  s              16.7       0.7      10.4       7.4      15.2       6.3
 9 C  s               0.7       8.6       7.7       9.3      16.0       0.1
10 C  s              12.9       1.4      18.3       0.0       1.1       9.0
11 C  s              11.2      13.7      24.2      18.5       0.7       0.2
12 C  s              24.3      41.1       1.2      15.0       1.2       0.6

                    300       301       302       303   
                  22.24801  22.27373  22.29316  43.75550
                   0.00000   0.00000   0.00000   0.00000
                  --------  --------  --------  --------
 1 C  s               4.5       3.2       0.7       0.0
 3 C  s               1.4      10.3       0.0       0.0
 4 C  s              11.1      23.1       2.0       0.0
 5 C  s              48.5      21.9       6.1       0.0
 7 C  s               3.2      37.0       2.1       0.0
 8 O  s               0.0       0.1       0.0      99.8
 9 C  s              25.1       2.8       0.0       0.0
10 C  s               3.9       0.9      50.0       0.0
11 C  s               0.6       0.0      25.5       0.0
12 C  s               1.5       0.3      12.9       0.0


                      *****************************
                      * MAYER POPULATION ANALYSIS *
                      *****************************

  NA   - Mulliken gross atomic population
  ZA   - Total nuclear charge
  QA   - Mulliken gross atomic charge
  VA   - Mayer's total valence
  BVA  - Mayer's bonded valence
  FA   - Mayer's free valence

  ATOM       NA         ZA         QA         VA         BVA        FA
  0 C      6.5431     6.0000    -0.5431     3.7744     3.7744     0.0000
  1 C      5.9891     6.0000     0.0109     3.4670     3.4670     0.0000
  2 H      0.8253     1.0000     0.1747     0.9532     0.9532    -0.0000
  3 C      6.3836     6.0000    -0.3836     3.6677     3.6677     0.0000
  4 C      6.3611     6.0000    -0.3611     3.6266     3.6266    -0.0000
  5 C      6.0896     6.0000    -0.0896     3.3436     3.3436    -0.0000
  6 H      0.7966     1.0000     0.2034     0.9493     0.9493    -0.0000
  7 C      5.7570     6.0000     0.2430     3.7448     3.7448    -0.0000
  8 O      8.4518     8.0000    -0.4518     1.9192     1.9192     0.0000
  9 C      6.3984     6.0000    -0.3984     3.6594     3.6594    -0.0000
 10 C      5.9244     6.0000     0.0756     3.4225     3.4225     0.0000
 11 C      6.6034     6.0000    -0.6034     3.7548     3.7548     0.0000
 12 C      6.5933     6.0000    -0.5933     3.7618     3.7618     0.0000
 13 H      0.8375     1.0000     0.1625     0.9592     0.9592     0.0000
 14 H      0.8375     1.0000     0.1625     0.9594     0.9594     0.0000
 15 H      0.8336     1.0000     0.1664     0.9611     0.9611     0.0000
 16 H      0.8271     1.0000     0.1729     0.9580     0.9580     0.0000
 17 H      0.8379     1.0000     0.1621     0.9574     0.9574     0.0000
 18 H      0.8313     1.0000     0.1687     0.9545     0.9545    -0.0000
 19 H      0.8181     1.0000     0.1819     0.9502     0.9502     0.0000
 20 H      0.7996     1.0000     0.2004     0.9536     0.9536    -0.0000
 21 H      0.8282     1.0000     0.1718     0.9610     0.9610    -0.0000
 22 H      0.8316     1.0000     0.1684     0.9588     0.9588     0.0000
 23 H      0.8430     1.0000     0.1570     0.9598     0.9598     0.0000
 24 H      0.8192     1.0000     0.1808     0.9575     0.9575     0.0000
 25 H      0.8366     1.0000     0.1634     0.9579     0.9579    -0.0000
 26 H      0.8380     1.0000     0.1620     0.9595     0.9595    -0.0000
 27 H      0.8241     1.0000     0.1759     0.9584     0.9584     0.0000
 28 H      0.8402     1.0000     0.1598     0.9591     0.9591    -0.0000

  Mayer bond orders larger than 0.100000
B(  0-C ,  1-C ) :   0.8765 B(  0-C , 13-H ) :   0.9736 B(  0-C , 14-H ) :   0.9718 
B(  0-C , 15-H ) :   0.9950 B(  1-C ,  2-H ) :   0.9377 B(  1-C ,  3-C ) :   0.9190 
B(  1-C ,  9-C ) :   0.8843 B(  3-C ,  4-C ) :   0.8893 B(  3-C , 16-H ) :   1.0099 
B(  3-C , 17-H ) :   0.9467 B(  4-C ,  5-C ) :   0.8489 B(  4-C , 18-H ) :   0.9460 
B(  4-C , 19-H ) :   0.9856 B(  5-C ,  6-H ) :   0.9579 B(  5-C ,  7-C ) :   0.8984 
B(  5-C , 10-C ) :   0.8650 B(  7-C ,  8-O ) :   1.8943 B(  7-C ,  9-C ) :   0.9362 
B(  9-C , 20-H ) :   0.9732 B(  9-C , 21-H ) :   0.9642 B( 10-C , 11-C ) :   0.8464 
B( 10-C , 12-C ) :   0.8656 B( 10-C , 22-H ) :   0.9890 B( 11-C , 23-H ) :   0.9720 
B( 11-C , 24-H ) :   0.9804 B( 11-C , 25-H ) :   0.9707 B( 12-C , 26-H ) :   0.9754 
B( 12-C , 27-H ) :   0.9802 B( 12-C , 28-H ) :   0.9739 

-------
TIMINGS
-------

Total SCF time: 0 days 0 hours 0 min 49 sec 

Total time                  ....      49.999 sec
Sum of individual times     ....      49.457 sec  ( 98.9%)

SCF preparation             ....       0.387 sec  (  0.8%)
Fock matrix formation       ....      47.756 sec  ( 95.5%)
  Startup                   ....       0.077 sec  (  0.2% of F)
  Split-RI-J                ....       9.074 sec  ( 19.0% of F)
  XC integration            ....      27.362 sec  ( 57.3% of F)
    XC Preparation          ....       0.000 sec  (  0.0% of XC)
    Basis function eval.    ....       4.506 sec  ( 16.5% of XC)
    Density eval.           ....       9.653 sec  ( 35.3% of XC)
    XC-Functional eval.     ....       2.404 sec  (  8.8% of XC)
    XC-Potential eval.      ....       9.763 sec  ( 35.7% of XC)
  CPCM terms                ....      10.581 sec  ( 22.2% of F)
Diagonalization             ....       0.000 sec  (  0.0%)
Density matrix formation    ....       0.321 sec  (  0.6%)
Total Energy calculation    ....       0.068 sec  (  0.1%)
Population analysis         ....       0.182 sec  (  0.4%)
Orbital Transformation      ....       0.077 sec  (  0.2%)
Orbital Orthonormalization  ....       0.000 sec  (  0.0%)
DIIS solution               ....       0.595 sec  (  1.2%)
  MO trafo                  ....       0.000 sec  (  0.0 % of DIIS)
  Orb grad                  ....       0.000 sec  (  0.0 % of DIIS)
  Energy W gradient         ....       0.000 sec  (  0.0 % of DIIS)
  DIIS error                ....       0.024 sec  (  4.1 % of DIIS)
  DIIS work                 ....       0.499 sec  ( 83.8 % of DIIS)
  Form Q                    ....       0.000 sec  (  0.0 % of DIIS)
  Form QpQm                 ....       0.000 sec  (  0.0 % of DIIS)
  Exp/Cayley                ....       0.000 sec  (  0.0 % of DIIS)
  Orb update                ....       0.000 sec  (  0.0 % of DIIS)
  Wake-sleep                ....       0.032 sec  (  5.4 % of DIIS)
SOSCF solution              ....       0.070 sec  (  0.1%)
  MO trafo                  ....       0.052 sec  ( 73.2 % of SOSCF)
  Orb grad                  ....       0.001 sec  (  1.7 % of SOSCF)
  Rot update                ....       0.000 sec  (  0.1 % of SOSCF)
  Step                      ....       0.017 sec  ( 24.8 % of SOSCF)
Finished LeanSCF after  50.1 sec

Maximum memory used throughout the entire LEANSCF-calculation: 52.5 MB


-------------------------------------------------------------------------------
                          DFT DISPERSION CORRECTION                            
                                                                               
                                DFTD4 V3.4.0                                   
-------------------------------------------------------------------------------
The R2SCAN3C composite method is recognized
Using three-body term ABC
Active option DFTDOPT                   ...         5   

-------------------------   ----------------
Dispersion correction           -0.010219751
-------------------------   ----------------

------------------   -----------------
gCP correction             0.013064013
------------------   -----------------

-------------------------   --------------------
FINAL SINGLE POINT ENERGY      -467.011973431393
-------------------------   --------------------


------------------------------------------------------------------------------
                              ORCA PROPERTY CALCULATIONS
------------------------------------------------------------------------------

GBWName                                 ... sp_solv.gbw
Number of atoms                         ...     29
Number of basis functions               ...    304
Max core memory                         ...   1024 MB

Electric properties:
Dipole moment                           ... YES
Quadrupole moment                       ...  NO
Static polarizability (Dipole/Dipole)   ...  NO
Static polarizability (Dipole/Quad.)    ...  NO
Static polarizability (Quad./Quad.)     ...  NO
Static polarizability (Velocity)        ...  NO

Atomic electric properties:
Dipole moment                           ...  NO
Quadrupole moment                       ...  NO
Static polarizability                   ...  NO

Choice of electric origin               ... Center of mass
Position of electric origin             ...    -0.000004    -0.000016    -0.000000

General magnetic properties:
Magnetizability                         ...  NO

EPR properties:
g-Tensor (aka g-matrix)                 ...  NO
Zero-Field splitting spin-orbit         ...  NO
Zero-field splitting spin-spin          ...  NO
Hyperfine couplings                     ...  NO (   0 nuclei)
Quadrupole couplings                    ...  NO (   0 nuclei)
Contact density                         ...  NO (   0 nuclei)

NMR properties:
Chemical shifts                         ...  NO (   0 nuclei)
Spin-rotation constants                 ...  NO (   0 nuclei)
Spin-spin couplings                     ...  NO (   0 nuclei,    0 pairs)

Choice of magnetic origin               ... GIAO
Position of magnetic origin             ...     0.000000     0.000000     0.000000

Properties with geometric perturbations:
SCF Hessian                             ...  NO
IR spectrum                             ...  NO
VCD spectrum                            ...  NO
X-ray spectroscopy properties:
SCF XES/XAS/RIXS spectra                ...  NO


-------------
DIPOLE MOMENT
-------------

Method             : SCF
Type of density    : Electron Density
Multiplicity       :   1
Irrep              :   0
Energy             :  -467.0148176936919526 Eh
Relativity type    : 
Basis              : AO
                                X                 Y                 Z
Electronic contribution:     -0.006073339       3.804687917       0.473563248
Nuclear contribution   :     -0.923099376      -5.386393192      -0.148806773
                        -----------------------------------------
Total Dipole Moment    :     -0.929172715      -1.581705275       0.324756474
                        -----------------------------------------
Magnitude (a.u.)       :      1.862960085
Magnitude (Debye)      :      4.735268218



--------------------
Rotational spectrum 
--------------------
 
Rotational constants in cm-1:             0.071286             0.023119             0.020378 
Rotational constants in MHz :          2137.113415           693.077793           610.916081 

Dipole components along the rotational axes: 
x,y,z [a.u.] :    -1.004789    -1.335397     0.823246 
x,y,z [Debye]:    -2.553971    -3.394309     2.092526 

 

Dipole moment calculation done in   0.0 sec 

Maximum memory used throughout the entire PROP-calculation: 22.7 MB

--------------------------------
SUGGESTED CITATIONS FOR THIS RUN
--------------------------------

Below you find a list of papers that are relevant to this ORCA run
We neither can nor want to force you to cite these papers, but we appreciate if you do
You receive ORCA, which is the product of decades of hard work by many enthusiastic individuals, for free
The only thing we kindly ask in return is that you cite our papers,
We deeply appreciate it, if you show your appreciation for ORCA by not just citing the generic ORCA reference.

Please note that relegating all ORCA citations to the supporting information does *not* help us.
SI sections are not indexed - citations you put there will not count into any citation statistics
But we need these citations in order to attract the funding resources that allow us to do what we are doing

Therefore, if you are a happy ORCA user, please consider citing a few of the papers listed below in the main body of your paper

In addition to the list printed below, the program has created the file sp_solv.bibtex that contains the list in bibtex format
You can import this file easily into all common literature databanks and citation aid programs


List of essential papers. We consider these as the minimum necessary citations

  1. Neese,F.
     Software update: the ORCA program system, version 5.0
     WIRES Comput. Molec. Sci., 2022 12(1)e1606
     doi.org/10.1002/wcms.1606
  2. Grimme,S.; Hansen,A.; Ehlert,S.; Mewes,J.
     r2SCAN-3c: A 'Swiss army knife' composite electronic-structure method
     J. Chem. Phys., 2021 154 064103
     doi.org/10.1063/5.0040021

List of papers to cite with high priority. The work reported in these papers was absolutely
necessary for this run to complete.
Our perspective: the developers of density functionals and basis sets usually get cited in chemistry papers
Good! But without the algorithms to do something with them, the functionals or basis sets would not do anything.
Hence, in our opinion, the algorithm design and method developments papers are equally worthy of getting cited

  1. Neese,F.
     An improvement of the resolution of the identity approximation for the formation of the Coulomb matrix
     J. Comp. Chem., 2003 24(14)1740-1747
     doi.org/10.1002/jcc.10318
  2. Garcia-Rates,M.; Neese,F.
     Effect of the Solute Cavity on the Solvation Energy and its Derivatives within the Framework of the Gaussian Charge Scheme
     J. Comput. Chem., 2020 41 922-939
     doi.org/10.1002/jcc.26139
  3. Neese,F.
     The SHARK Integral Generation and Digestion System
     J. Comp. Chem., 2022  1-16
     doi.org/10.1002/jcc.26942
  4. Lehtola,S.; Steigemann,C.; Oliveira,M.; Marques,M.
     Recent developments in Libxc - A comprehensive library of functionals for density functional theory
     Software X, 2018 7 
     doi.org/10.1016/j.softx.2017.11.002
  5. Caldeweyher,E.; Bannwarth,C.; Grimme,S.
     Extension of the D3 dispersion coefficient model
     J. Chem. Phys., 2017 147 034112-XXXX
     doi.org/10.1063/1.4993215
  6. Caldeweyher,E.; Ehlert,S.; Hansen,A.; Neugebauer,H.; Spicher,S.; Bannwarth,C.; Grimme,S.
     A generally applicable atomic-charge dependent London dispersion correction
     J. Chem. Phys., 2019 150 154122-XXXX
     doi.org/10.1063/1.5090222
  7. Caldeweyher,E.; Mewes,J.; Ehlert,S.; Grimme,S.
     Extension and evaluation of the D4 London-dispersion model for periodic systems
     Phys. Chem. Chem. Phys., 2020 22(16)8499-8512
     doi.org/10.1039/D0CP00502A

List of suggested additional citations. These are papers that are important in the 'surrounding' of 
of this run, or papers that preceded the highly important papers. If you like your results we are grateful for a citation.

  1. Neese,F.
     The ORCA program system
     WIRES Comput. Molec. Sci., 2012 2(1)73-78
     doi.org/10.1002/wcms.81
  2. Neese,F.
     Software update: the ORCA program system, version 4.0
     WIRES Comput. Molec. Sci., 2018 8(1)1-6
     doi.org/10.1002/wcms.1327
  3. Neese,F.; Wennmohs,F.; Becker,U.; Riplinger,C.
     The ORCA quantum chemistry program package
     J. Chem. Phys., 2020 152 Art. No. L224108
     doi.org/10.1063/5.0004608

List of optional additional citations

  1. Neese,F.
     Approximate second-order SCF convergence for spin unrestricted wavefunctions
     Chem. Phys. Lett., 2000 325(1-3)93-98
     doi.org/10.1016/s0009-2614(00)00662-x

Timings for individual modules:

Sum of individual times          ...       52.259 sec (=   0.871 min)
Startup calculation              ...        1.670 sec (=   0.028 min)   3.2 %
SCF iterations                   ...       50.474 sec (=   0.841 min)  96.6 %
Property calculations            ...        0.115 sec (=   0.002 min)   0.2 %
                             ****ORCA TERMINATED NORMALLY****
TOTAL RUN TIME: 0 days 0 hours 0 minutes 53 seconds 139 msec
