5
 energy: -139.723273310860 gnorm: 0.025671102515 xtb: 6.7.1 (edcfbbe)
C           -0.74353887232948        0.00000147230000        0.00000283730000
F            0.63971239528347        0.00000302320000       -0.00000014930000
H           -1.06595459377235        0.98044250903446        0.34345589395219
H           -1.06587492347232       -0.19279567118543       -1.02081776795235
H           -1.06584352567230       -0.78772136474906        0.67733087960014
5
 energy: -139.724127667226 gnorm: 0.007371806010 xtb: 6.7.1 (edcfbbe)
C           -0.73117089061746       -0.00003078790740        0.00000145279606
F            0.67058453677913        0.00004932133886        0.00000839266026
H           -1.08032403292297        0.97680629879595        0.34218885232516
H           -1.08030500122415       -0.19207248329753       -1.01710110809112
H           -1.08028415072214       -0.78482236508115        0.67487408682312
5
 energy: -139.724168090958 gnorm: 0.003788224492 xtb: 6.7.1 (edcfbbe)
C           -0.73325816113352       -0.00003319954378        0.00001139261807
F            0.67368594504834        0.00005316784988        0.00000214200177
H           -1.08066028384458        0.97843020237073        0.34275355313442
H           -1.08063900046996       -0.19238813513704       -1.01879630820494
H           -1.08062803899668       -0.78613205189856        0.67600089685131
5
 energy: -139.724181141314 gnorm: 0.000782354812 xtb: 6.7.1 (edcfbbe)
C           -0.73617671470375       -0.00003198712064        0.00001303237792
F            0.67493697107282        0.00005324114346        0.00000406055986
H           -1.08010335930086        0.97947468870673        0.34311783553681
H           -1.08008561943455       -0.19259388663217       -1.01988403206465
H           -1.08007081681208       -0.78697207322141        0.67672078096300
5
 energy: -139.724181595614 gnorm: 0.000267664799 xtb: 6.7.1 (edcfbbe)
C           -0.73705245625143       -0.00003096802452        0.00000953491513
F            0.67483939444594        0.00005309527540        0.00000677945375
H           -1.07977810129040        0.97936096433260        0.34307941542588
H           -1.07976341540390       -0.19257316188827       -1.01976514104621
H           -1.07974496050039       -0.78687994700820        0.67664108909436
5
 energy: -139.724181595614 gnorm: 0.000267664799 xtb: 6.7.1 (edcfbbe)
C           -0.73705245625143       -0.00003096802452        0.00000953491513
F            0.67483939444594        0.00005309527540        0.00000677945375
H           -1.07977810129040        0.97936096433260        0.34307941542588
H           -1.07976341540390       -0.19257316188827       -1.01976514104621
H           -1.07974496050039       -0.78687994700820        0.67664108909436
