      -----------------------------------------------------------      
     |                   =====================                   |     
     |                           x T B                           |     
     |                   =====================                   |     
     |                         S. Grimme                         |     
     |          Mulliken Center for Theoretical Chemistry        |     
     |                    University of Bonn                     |     
      -----------------------------------------------------------      

   * xtb version 6.7.1 (edcfbbe) compiled by 'albert@albert-system' on 2024-07-22

   xtb is free software: you can redistribute it and/or modify it under
   the terms of the GNU Lesser General Public License as published by
   the Free Software Foundation, either version 3 of the License, or
   (at your option) any later version.
   
   xtb is distributed in the hope that it will be useful,
   but WITHOUT ANY WARRANTY; without even the implied warranty of
   MERCHANTABILITY or FITNESS FOR A PARTICULAR PURPOSE.  See the
   GNU Lesser General Public License for more details.
   
   Cite this work as:
   * C. Bannwarth, E. Caldeweyher, S. Ehlert, A. Hansen, P. Pracht,
     J. Seibert, S. Spicher, S. Grimme, WIREs Comput. Mol. Sci., 2020, 11,
     e01493. DOI: 10.1002/wcms.1493
   
   for GFN2-xTB:
   * C. Bannwarth, S. Ehlert and S. Grimme., J. Chem. Theory Comput., 2019,
     15, 1652-1671. DOI: 10.1021/acs.jctc.8b01176
   for GFN1-xTB:
   * S. Grimme, C. Bannwarth, P. Shushkov, J. Chem. Theory Comput., 2017,
     13, 1989-2009. DOI: 10.1021/acs.jctc.7b00118
   for GFN0-xTB:
   * P. Pracht, E. Caldeweyher, S. Ehlert, S. Grimme, ChemRxiv, 2019, preprint.
     DOI: 10.26434/chemrxiv.8326202.v1
   for GFN-FF:
   * S. Spicher and S. Grimme, Angew. Chem. Int. Ed., 2020, 59, 15665-15673.
     DOI: 10.1002/anie.202004239
   
   for ALPB and GBSA implicit solvation:
   * S. Ehlert, M. Stahn, S. Spicher, S. Grimme, J. Chem. Theory Comput.,
     2021, 17, 4250-4261. DOI: 10.1021/acs.jctc.1c00471
   
   for ddCOSMO and CPCM-X implicit solvation:
   * M. Stahn, S. Ehlert, S. Grimme, J. Phys. Chem. A,
     2023, XX, XXXX-XXXX. DOI: 10.1021/acs.jpca.3c04382
   
   for DFT-D4:
   * E. Caldeweyher, C. Bannwarth and S. Grimme, J. Chem. Phys., 2017,
     147, 034112. DOI: 10.1063/1.4993215
   * E. Caldeweyher, S. Ehlert, A. Hansen, H. Neugebauer, S. Spicher,
     C. Bannwarth and S. Grimme, J. Chem. Phys., 2019, 150, 154122.
     DOI: 10.1063/1.5090222
   * E. Caldeweyher, J.-M. Mewes, S. Ehlert and S. Grimme, Phys. Chem. Chem. Phys.
     2020, 22, 8499-8512. DOI: 10.1039/D0CP00502A
   
   for sTDA-xTB:
   * S. Grimme and C. Bannwarth, J. Chem. Phys., 2016, 145, 054103.
     DOI: 10.1063/1.4959605
   
   in the mass-spec context:
   * V. Asgeirsson, C. Bauer and S. Grimme, Chem. Sci., 2017, 8, 4879.
     DOI: 10.1039/c7sc00601b
   * J. Koopman and S. Grimme, ACS Omega 2019, 4, 12, 15120-15133.
     DOI: 10.1021/acsomega.9b02011
   
   for metadynamics refer to:
   * S. Grimme, J. Chem. Theory Comput., 2019, 155, 2847-2862
     DOI: 10.1021/acs.jctc.9b00143
   
   for SPH calculations refer to:
   * S. Spicher and S. Grimme, J. Chem. Theory Comput., 2021, 17, 1701-1714
     DOI: 10.1021/acs.jctc.0c01306
   
   for ONIOM refer to:
   * C. Plett, A. Katbashev, S. Ehlert, S. Grimme, M. Bursch,
     Phys. Chem. Chem. Phys., 2023, 25, 17860-17868. DOI: 10.1039/D3CP02178E
   
   for DIPRO refer to:
   * J. Kohn, N. Gildemeister, S. Grimme, D. Fazzi, A. Hansen,
     J. Chem. Phys., 2023, just accepted.
   
   for PTB refer to:
   * S. Grimme, M. Mueller, A. Hansen, J. Chem. Phys., 2023, 158, 124111.
     DOI: 10.1063/5.0137838
   
   with help from (in alphabetical order)
   P. Atkinson, C. Bannwarth, F. Bohle, G. Brandenburg, E. Caldeweyher
   M. Checinski, S. Dohm, S. Ehlert, S. Ehrlich, I. Gerasimov, C. Hölzer
   A. Katbashev, J. Kohn, J. Koopman, C. Lavigne, S. Lehtola, F. März, M. Müller,
   F. Musil, H. Neugebauer, J. Pisarek, C. Plett, P. Pracht, F. Pultar,
   J. Seibert, P. Shushkov, S. Spicher, M. Stahn, M. Steiner, T. Strunk,
   J. Stückrath, T. Rose, and J. Unsleber
   
 * started run on 2025/04/06 at 18:00:45.354     
   ID    Z sym.   atoms
    1    6 C      1, 2, 4, 6, 8, 10
    2    1 H      3, 5, 7, 9, 11, 18-24
    3    8 O      12-17

           -------------------------------------------------
          |                Calculation Setup                |
           -------------------------------------------------

          program call               : /srv/scratch/z5358697/.xtb/bin/xtb solv.coord --gfn2 --sp --chrg 0 --norestart --parallel 1 --alpb water reference -I xtb_sp-xcontrol-inp
          hostname                   : k155
          coordinate file            : solv.coord
          omp threads                :                     1


           -------------------------------------------------
          |                 G F N 2 - x T B                 |
           -------------------------------------------------

        Reference                      10.1021/acs.jctc.8b01176
      * Hamiltonian:
        H0-scaling (s, p, d)           1.850000    2.230000    2.230000
        zeta-weighting                 0.500000
      * Dispersion:
        s8                             2.700000
        a1                             0.520000
        a2                             5.000000
        s9                             5.000000
      * Repulsion:
        kExp                           1.500000    1.000000
        rExp                           1.000000
      * Coulomb:
        alpha                          2.000000
        third order                    shell-resolved
        anisotropic                    true
        a3                             3.000000
        a5                             4.000000
        cn-shift                       1.200000
        cn-exp                         4.000000
        max-rad                        5.000000

      * Solvation model:               ALPB
        Solvent                        water
        Parameter file                 internal GFN2-xTB/ALPB
        Dielectric constant                8.0200E+01
        Reference state                gsolv=reference [X=1]
        Free energy shift                  2.8945E-03 Eh       1.8164E+00 kcal/mol
        Temperature                        2.9815E+02 K
        Density                            1.0000E+00 kg/L
        Solvent mass                       1.8000E+01 g/mol
        Interaction kernel             P16
        Born radius scaling (c1)           1.4744E+00
        Born radii integrator          GBOBC
        Born offset                        0.0000E+00 a0       0.0000E+00 AA
        H-bond correction              true
        Ion screening                  false
        Surface tension                    1.0000E-05 Eh       1.5569E+01 dyn/cm
        Grid points                               974 per atom

          ...................................................
          :                      SETUP                      :
          :.................................................:
          :  # basis functions                  60          :
          :  # atomic orbitals                  60          :
          :  # shells                           36          :
          :  # electrons                        72          :
          :  max. iterations                   250          :
          :  Hamiltonian                  GFN2-xTB          :
          :  restarted?                      false          :
          :  GBSA solvation                   true          :
          :  PC potential                    false          :
          :  electronic temp.          300.0000000     K    :
          :  accuracy                    1.0000000          :
          :  -> integral cutoff          0.2500000E+02      :
          :  -> integral neglect         0.1000000E-07      :
          :  -> SCF convergence          0.1000000E-05 Eh   :
          :  -> wf. convergence          0.1000000E-03 e    :
          :  Broyden damping             0.4000000          :
          :  net charge                          0          :
          :  unpaired electrons                  0          :
          ...................................................

 iter      E             dE          RMSdq      gap      omega  full diag
   1    -43.6422573 -0.436423E+02  0.500E+00   10.42       0.0  T
   2    -43.6844195 -0.421622E-01  0.267E+00   10.27       1.0  T
   3    -43.6868716 -0.245212E-02  0.665E-01   10.33       1.0  T
   4    -43.6873883 -0.516682E-03  0.201E-01   10.33       1.0  T
   5    -43.6874686 -0.802637E-04  0.890E-02   10.35       1.0  T
   6    -43.6874910 -0.224652E-04  0.266E-02   10.36       1.0  T
   7    -43.6874926 -0.154694E-05  0.905E-03   10.36       2.3  T
   8    -43.6874930 -0.430228E-06  0.321E-03   10.36       6.4  T
   9    -43.6874930 -0.280966E-07  0.127E-03   10.36      16.1  T
  10    -43.6874931 -0.653365E-08  0.446E-04   10.36      45.8  T
  11    -43.6874931 -0.714131E-09  0.112E-04   10.36     181.8  T

   *** convergence criteria satisfied after 11 iterations ***

         #    Occupation            Energy/Eh            Energy/eV
      -------------------------------------------------------------
         1        2.0000           -0.7318534             -19.9147
       ...           ...                  ...                  ...
        30        2.0000           -0.4611774             -12.5493
        31        2.0000           -0.4550870             -12.3835
        32        2.0000           -0.4384938             -11.9320
        33        2.0000           -0.4249455             -11.5634
        34        2.0000           -0.4223515             -11.4928
        35        2.0000           -0.4152140             -11.2985
        36        2.0000           -0.4028045             -10.9609 (HOMO)
        37                         -0.0221490              -0.6027 (LUMO)
        38                          0.0005085               0.0138
        39                          0.0150532               0.4096
        40                          0.0378919               1.0311
        41                          0.0467844               1.2731
       ...                                ...                  ...
        60                          0.2753890               7.4937
      -------------------------------------------------------------
                  HL-Gap            0.3806555 Eh           10.3582 eV
             Fermi-level           -0.2124768 Eh           -5.7818 eV

 SCC (total)                   0 d,  0 h,  0 min,  0.024 sec
 SCC setup                      ...        0 min,  0.001 sec (  6.027%)
 Dispersion                     ...        0 min,  0.000 sec (  0.574%)
 classical contributions        ...        0 min,  0.000 sec (  0.110%)
 integral evaluation            ...        0 min,  0.003 sec ( 11.717%)
 iterations                     ...        0 min,  0.013 sec ( 51.300%)
 molecular gradient             ...        0 min,  0.007 sec ( 29.662%)
 printout                       ...        0 min,  0.000 sec (  0.552%)

         :::::::::::::::::::::::::::::::::::::::::::::::::::::
         ::                     SUMMARY                     ::
         :::::::::::::::::::::::::::::::::::::::::::::::::::::
         :: total energy             -43.383867870532 Eh    ::
         :: total w/o Gsasa/hb       -43.363750062293 Eh    ::
         :: gradient norm              0.000053305139 Eh/a0 ::
         :: HOMO-LUMO gap             10.358162906273 eV    ::
         ::.................................................::
         :: SCC energy               -43.687337109196 Eh    ::
         :: -> isotropic ES            0.172150748611 Eh    ::
         :: -> anisotropic ES         -0.006348601587 Eh    ::
         :: -> anisotropic XC         -0.010395645276 Eh    ::
         :: -> dispersion             -0.019007655371 Eh    ::
         :: -> Gsolv                  -0.039701291039 Eh    ::
         ::    -> Gelec               -0.019583482800 Eh    ::
         ::    -> Gsasa                0.004926862678 Eh    ::
         ::    -> Ghb                 -0.027939220077 Eh    ::
         ::    -> Gshift               0.002894549160 Eh    ::
         :: repulsion energy           0.303469238663 Eh    ::
         :: add. restraining           0.000000000000 Eh    ::
         :: total charge              -0.000000000000 e     ::
         :::::::::::::::::::::::::::::::::::::::::::::::::::::

           -------------------------------------------------
          |                Property Printout                |
           -------------------------------------------------

    * Orbital Energies and Occupations

         #    Occupation            Energy/Eh            Energy/eV
      -------------------------------------------------------------
         1        2.0000           -0.7318534             -19.9147
       ...           ...                  ...                  ...
        24        2.0000           -0.5136325             -13.9767
        25        2.0000           -0.5084012             -13.8343
        26        2.0000           -0.5046330             -13.7318
        27        2.0000           -0.4966195             -13.5137
        28        2.0000           -0.4820523             -13.1173
        29        2.0000           -0.4710924             -12.8191
        30        2.0000           -0.4611774             -12.5493
        31        2.0000           -0.4550870             -12.3835
        32        2.0000           -0.4384938             -11.9320
        33        2.0000           -0.4249455             -11.5634
        34        2.0000           -0.4223515             -11.4928
        35        2.0000           -0.4152140             -11.2985
        36        2.0000           -0.4028045             -10.9609 (HOMO)
        37                         -0.0221490              -0.6027 (LUMO)
        38                          0.0005085               0.0138
        39                          0.0150532               0.4096
        40                          0.0378919               1.0311
        41                          0.0467844               1.2731
        42                          0.0690650               1.8794
        43                          0.0768411               2.0910
        44                          0.0828012               2.2531
        45                          0.1065825               2.9003
        46                          0.1125340               3.0622
        47                          0.1221369               3.3235
       ...                                ...                  ...
        60                          0.2753890               7.4937
      -------------------------------------------------------------
                  HL-Gap            0.3806555 Eh           10.3582 eV
             Fermi-level           -0.2124768 Eh           -5.7818 eV

     #   Z          covCN         q      C6AA      α(0)
     1   6 C        3.676     0.073    19.574     6.339
     2   6 C        3.749     0.097    19.044     6.224
     3   1 H        0.923     0.027     2.631     2.537
     4   6 C        3.729     0.093    19.133     6.245
     5   1 H        0.924     0.072     2.067     2.248
     6   6 C        3.729     0.102    18.986     6.220
     7   1 H        0.922     0.023     2.693     2.566
     8   6 C        3.726     0.081    19.337     6.279
     9   1 H        0.923     0.036     2.502     2.473
    10   6 C        3.628     0.236    17.291     5.989
    11   1 H        0.922     0.027     2.628     2.535
    12   8 O        1.702    -0.353    19.946     6.030
    13   8 O        1.657    -0.490    22.684     6.430
    14   8 O        1.656    -0.501    22.912     6.462
    15   8 O        1.656    -0.498    22.841     6.452
    16   8 O        1.656    -0.486    22.591     6.416
    17   8 O        1.655    -0.510    23.112     6.490
    18   1 H        0.924     0.054     2.272     2.357
    19   1 H        0.924     0.050     2.317     2.381
    20   1 H        0.804     0.391     0.502     1.113
    21   1 H        0.804     0.370     0.544     1.159
    22   1 H        0.804     0.370     0.543     1.158
    23   1 H        0.804     0.357     0.572     1.188
    24   1 H        0.805     0.379     0.524     1.137

 Mol. C6AA /au·bohr⁶  :       4740.124469
 Mol. C8AA /au·bohr⁸  :     100911.870252
 Mol. α(0) /au        :         98.426249


Wiberg/Mayer (AO) data.
largest (>0.10) Wiberg bond orders for each atom

 ---------------------------------------------------------------------------
     #   Z sym  total        # sym  WBO       # sym  WBO       # sym  WBO
 ---------------------------------------------------------------------------
     1   6 C    3.959 --    17 O    1.005     2 C    0.987    19 H    0.967
                            18 H    0.966
     2   6 C    3.943 --     1 C    0.987    12 O    0.962     4 C    0.957
                             3 H    0.957
     3   1 H    0.999 --     2 C    0.957
     4   6 C    3.958 --    16 O    1.006     6 C    0.971     2 C    0.957
                             5 H    0.956
     5   1 H    0.995 --     4 C    0.956
     6   6 C    3.964 --    15 O    1.001     4 C    0.971     8 C    0.970
                             7 H    0.953
     7   1 H    0.999 --     6 C    0.953
     8   6 C    3.960 --    14 O    0.999     6 C    0.970     9 H    0.956
                            10 C    0.945
     9   1 H    0.999 --     8 C    0.956
    10   6 C    3.930 --    13 O    1.016    12 O    0.965    11 H    0.947
                             8 C    0.945
    11   1 H    0.999 --    10 C    0.947
    12   8 O    2.069 --    10 C    0.965     2 C    0.962
    13   8 O    1.940 --    10 C    1.016    20 H    0.829
    14   8 O    1.919 --     8 C    0.999    21 H    0.845
    15   8 O    1.921 --     6 C    1.001    22 H    0.846
    16   8 O    1.938 --     4 C    1.006    23 H    0.854
    17   8 O    1.904 --     1 C    1.005    24 H    0.843
    18   1 H    0.997 --     1 C    0.966
    19   1 H    0.997 --     1 C    0.967
    20   1 H    0.847 --    13 O    0.829
    21   1 H    0.863 --    14 O    0.845
    22   1 H    0.863 --    15 O    0.846
    23   1 H    0.872 --    16 O    0.854
    24   1 H    0.856 --    17 O    0.843
 ---------------------------------------------------------------------------

Topologies differ in total number of bonds
Writing topology from bond orders to xtbtopo.mol

molecular dipole:
                 x           y           z       tot (Debye)
 q only:       -0.184      -0.671       0.342
   full:       -0.125      -0.889       0.582       2.720
molecular quadrupole (traceless):
                xx          xy          yy          xz          yz          zz
 q only:        8.366       6.134      -8.470      -4.533       7.335       0.105
  q+dip:        7.098       8.760     -11.492      -4.957       8.182       4.394
   full:        8.227       8.448     -11.429      -5.139       8.666       3.201


           -------------------------------------------------
          | TOTAL ENERGY              -43.383867870532 Eh   |
          | GRADIENT NORM               0.000053305139 Eh/α |
          | HOMO-LUMO GAP              10.358162906273 eV   |
           -------------------------------------------------

------------------------------------------------------------------------
 * finished run on 2025/04/06 at 18:00:45.413     
------------------------------------------------------------------------
 total:
 * wall-time:     0 d,  0 h,  0 min,  0.059 sec
 *  cpu-time:     0 d,  0 h,  0 min,  0.029 sec
 * ratio c/w:     0.500 speedup
 SCF:
 * wall-time:     0 d,  0 h,  0 min,  0.025 sec
 *  cpu-time:     0 d,  0 h,  0 min,  0.021 sec
 * ratio c/w:     0.843 speedup

