
                                 *****************
                                 * O   R   C   A *
                                 *****************

                                            #,                                       
                                            ###                                      
                                            ####                                     
                                            #####                                    
                                            ######                                   
                                           ########,                                 
                                     ,,################,,,,,                         
                               ,,#################################,,                 
                          ,,##########################################,,             
                       ,#########################################, ''#####,          
                    ,#############################################,,   '####,        
                  ,##################################################,,,,####,       
                ,###########''''           ''''###############################       
              ,#####''   ,,,,##########,,,,          '''####'''          '####       
            ,##' ,,,,###########################,,,                        '##       
           ' ,,###''''                  '''############,,,                           
         ,,##''                                '''############,,,,        ,,,,,,###''
      ,#''                                            '''#######################'''  
     '                                                          ''''####''''         
             ,#######,   #######,   ,#######,      ##                                
            ,#'     '#,  ##    ##  ,#'     '#,    #''#        ,####,   ,####,        
            ##       ##  ##   ,#'  ##            #'  '#       #'       #'  '#        
            ##       ##  #######   ##           ,######,      #####,   #    #        
            '#,     ,#'  ##    ##  '#,     ,#' ,#      #,     #,   #   #,  ,#        
             '#######'   ##     ##  '#######'  #'      '#     '####' # '####'        



                #########################################################
                #                        -***-                          #
                #          Department of theory and spectroscopy        #
                #                                                       #
                #                      Frank Neese                      #
                #                                                       #
                #     Directorship, Architecture, Infrastructure        #
                #                    SHARK, DRIVERS                     #
                #        Core code/Algorithms in most modules           #
                #                                                       #
                #        Max Planck Institute fuer Kohlenforschung      #
                #                Kaiser Wilhelm Platz 1                 #
                #                 D-45470 Muelheim/Ruhr                 #
                #                      Germany                          #
                #                                                       #
                #                  All rights reserved                  #
                #                        -***-                          #
                #########################################################


                         Program Version 6.0.0  -   RELEASE  -


 With contributions from (in alphabetic order):
   Daniel Aravena         : Magnetic Suceptibility
   Michael Atanasov       : Ab Initio Ligand Field Theory (pilot matlab implementation)
   Alexander A. Auer      : GIAO ZORA, VPT2 properties, NMR spectrum
   Ute Becker             : All parallelization in ORCA, NUMFREQ, NUMCALC
   Giovanni Bistoni       : ED, misc. LED, open-shell LED, HFLD
   Martin Brehm           : Molecular dynamics
   Dmytro Bykov           : pre 5.0 version of the SCF Hessian
   Marcos Casanova-Páez   : Triplet and SCS-CIS(D). UHF-(DLPNO)-IP/EA/STEOM-CCSD. UHF-CVS-IP/STEOM-CCSD
   Vijay G. Chilkuri      : MRCI spin determinant printing, contributions to CSF-ICE
   Pauline Colinet        : FMM embedding
   Dipayan Datta          : RHF DLPNO-CCSD density
   Achintya Kumar Dutta   : EOM-CC, STEOM-CC
   Nicolas Foglia         : Exact transition moments, OPA infrastructure, MCD improvements
   Dmitry Ganyushin       : Spin-Orbit,Spin-Spin,Magnetic field MRCI
   Miquel Garcia          : C-PCM and meta-GGA Hessian, CCSD/C-PCM, Gaussian charge scheme
   Tiago L. C. Gouveia    : GS-ROHF, GS-ROCIS
   Yang Guo               : DLPNO-NEVPT2, F12-NEVPT2, CIM, IAO-localization
   Andreas Hansen         : Spin unrestricted coupled pair/coupled cluster methods
   Ingolf Harden          : AUTO-CI MPn and infrastructure 
   Benjamin Helmich-Paris : MC-RPA, TRAH-(SCF,CASSCF), AVAS, COSX integrals, SCF dyn. polar.
   Lee Huntington         : MR-EOM, pCC
   Robert Izsak           : Overlap fitted RIJCOSX, COSX-SCS-MP3, EOM
   Riya Kayal             : Wick's Theorem for AUTO-CI, AUTO-CI UHF-CCSDT
   Emily Kempfer          : AUTO-CI, RHF CISDT and CCSDT
   Christian Kollmar      : KDIIS, OOCD, Brueckner-CCSD(T), CCSD density, CASPT2, CASPT2-K, improved NEVPT2
   Axel Koslowski         : Symmetry handling
   Simone Kossmann        : Meta GGA functionals, TD-DFT gradient, OOMP2, (MP2 Hessian; deprecated post 5.0)
   Lucas Lang             : DCDCAS
   Marvin Lechner         : AUTO-CI (C++ implementation), FIC-MRCC
   Spencer Leger          : CASSCF response
   Dagmar Lenk            : GEPOL surface, SMD, ORCA-2-JSON
   Dimitrios Liakos       : Extrapolation schemes; Compound Job, initial MDCI parallelization
   Dimitrios Manganas     : Further ROCIS development; embedding schemes. LFT, Crystal Embedding
   Dimitrios Pantazis     : SARC Basis sets
   Anastasios Papadopoulos: AUTO-CI, single reference methods and gradients
   Taras Petrenko         : pre 6.0 DFT Hessian and TD-DFT gradient, (ASA, deprecated), ECA, 1-Electron XAS/XES, NRVS
   Peter Pinski           : DLPNO-MP2, DLPNO-MP2 Gradient
   Christoph Reimann      : Effective Core Potentials
   Marius Retegan         : Local ZFS, SOC
   Christoph Riplinger    : Optimizer, TS searches, QM/MM, DLPNO-CCSD(T), (RO)-DLPNO pert. Triples
   Michael Roemelt        : Original ROCIS implementation
   Masaaki Saitow         : Open-shell DLPNO-CCSD energy and density
   Barbara Sandhoefer     : DKH picture change effects
   Kantharuban Sivalingam : CASSCF convergence/infrastructure, NEVPT2 and variants, FIC-MRCI
   Bernardo de Souza      : ESD, SOC TD-DFT
   Georgi Stoychev        : AutoAux, RI-MP2 NMR, DLPNO-MP2 response, X2C
   Van Anh Tran           : RI-MP2 g-tensors
   Willem Van den Heuvel  : Paramagnetic NMR
   Zikuan Wang            : NOTCH, Electric field optimization 
   Frank Wennmohs         : Technical directorship and infrastructure
   Hang Xu                : AUTO-CI-Response properties 


 We gratefully acknowledge several colleagues who have allowed us to
 interface, adapt or use parts of their codes:
   Stefan Grimme, W. Hujo, H. Kruse, P. Pracht,  : VdW corrections, initial TS optimization,
                  C. Bannwarth, S. Ehlert,         DFT functionals, gCP, sTDA/sTD-DF
                  L. Wittmann, M. Mueller
   Ed Valeev, F. Pavosevic, A. Kumar             : LibInt (2-el integral package), F12 methods
   Garnet Chan, S. Sharma, J. Yang, R. Olivares  : DMRG
   Ulf Ekstrom                                   : XCFun DFT Library
   Mihaly Kallay                                 : mrcc  (arbitrary order and MRCC methods)
   Frank Weinhold                                : gennbo (NPA and NBO analysis)
   Simon Mueller                                 : openCOSMO-RS
   Christopher J. Cramer and Donald G. Truhlar   : smd solvation model
   Lars Goerigk                                  : TD-DFT with DH, B97 family of functionals
   V. Asgeirsson, H. Jonsson                     : NEB implementation
   FAccTs GmbH                                   : IRC, NEB, NEB-TS, DLPNO-Multilevel, CI-OPT
                                                   MM, QMMM, 2- and 3-layer-ONIOM, Crystal-QMMM,
                                                   LR-CPCM, SF, NACMEs, symmetry and pop. for TD-DFT,
                                                   nearIR, NL-DFT gradient (VV10), updates on ESD,
                                                   ML-optimized integration grids, MBIS, APM,
                                                   GOAT, DOCKER, SOLVATOR, interface openCOSMO-RS
   S Lehtola, MJT Oliveira, MAL Marques          : LibXC Library
   Liviu Ungur et al                             : ANISO software


 Your calculation uses the libint2 library for the computation of 2-el integrals
 For citations please refer to: http://libint.valeyev.net

 Your ORCA version has been built with support for libXC version: 6.2.2
 For citations please refer to: https://libxc.gitlab.io

 This ORCA versions uses:
   CBLAS   interface :  Fast vector & matrix operations
   LAPACKE interface :  Fast linear algebra routines
   SCALAPACK package :  Parallel linear algebra routines
   Shared memory     :  Shared parallel matrices
   BLAS/LAPACK       :  OpenBLAS 0.3.27  USE64BITINT DYNAMIC_ARCH NO_AFFINITY SkylakeX SINGLE_THREADED
        Core in use  :  SkylakeX
   Copyright (c) 2011-2014, The OpenBLAS Project


Your calculation utilizes the geometrical counterpoise correction gCP
Please cite in your paper:
H.Kruse, S. Grimme J.Chem.Phys., 136, (2012), 154101 
   

Your calculation utilizes the DFT-NL dispersion correction.
Cite in your paper:
Vydrov, O. A.; Van Voorhis, T. J. Chem. Phys. 2010, 133, 244103
Hujo, W.; Grimme, S. J. Chem. Theory Comput. 2011, 7, 3866 
   

Your calculation utilizes the SMD solvation module
Please cite in your paper:
A.V. Marenich, C.J. Cramer, D.G. Truhlar J. Phys. Chem. B, 113, (2009), 6378 

================================================================================

----- Orbital basis set information -----
Your calculation utilizes the basis: def2-TZVP
   F. Weigend and R. Ahlrichs, Phys. Chem. Chem. Phys. 7, 3297 (2005).

----- AuxJ basis set information -----
Your calculation utilizes the auxiliary basis: def2/J
   F. Weigend, Phys. Chem. Chem. Phys. 8, 1057 (2006).

================================================================================
                                        WARNINGS
                       Please study these warnings very carefully!
================================================================================


================================================================================
                                       INPUT FILE
================================================================================
NAME = sp_solv.inp
|  1> ! wb97x-v def2-tzvp def2/J RIJCOSX DEFGRID2 scfconv7 GCP(DFT/TZ) printgap
|  2> %output
|  3>     printlevel normal
|  4> end
|  5> %cpcm
|  6>     smd true
|  7>     smdsolvent "water"
|  8> end
|  9> * xyz 0 1
| 10> C -2.1857876553974904 0.3059819049478045 -0.4216380337473623
| 11> C -1.0277900439057797 0.1839809697915979 0.57622377744875
| 12> C -0.0006659393565430622 -0.8038527701138298 0.11318514553121853
| 13> C 1.2884024316314688 -0.5782156003817203 -0.16547735153994858
| 14> C 2.0315935639636455 0.7154730895520356 -0.06531253017694195
| 15> H -1.8288831008334638 0.6747164194179227 -1.3889206057729149
| 16> H -2.949462726244139 0.9983832555979465 -0.053163974900780946
| 17> H -2.6632431712928253 -0.6657676134778857 -0.5878436140158821
| 18> H -0.5812545541742591 1.1679768183479378 0.7464612179512726
| 19> H -1.4323725840144848 -0.15063653981244737 1.5413498333708575
| 20> H -0.37437103604482497 -1.819766242168404 -0.02464288003045298
| 21> H 1.883436291185052 -1.4268549231420482 -0.5037018567527509
| 22> H 1.3974305769888518 1.5506221733839243 0.23915829335411584
| 23> H 2.492159678812743 0.9691079674192922 -1.0279111535816405
| 24> H 2.854557951527406 0.6327513656148182 0.655687903703796
| 25> *
| 26> 
| 27>                          ****END OF INPUT****
================================================================================

                       ****************************
                       * Single Point Calculation *
                       ****************************

---------------------------------
CARTESIAN COORDINATES (ANGSTROEM)
---------------------------------
  C     -2.185788    0.305982   -0.421638
  C     -1.027790    0.183981    0.576224
  C     -0.000666   -0.803853    0.113185
  C      1.288402   -0.578216   -0.165477
  C      2.031594    0.715473   -0.065313
  H     -1.828883    0.674716   -1.388921
  H     -2.949463    0.998383   -0.053164
  H     -2.663243   -0.665768   -0.587844
  H     -0.581255    1.167977    0.746461
  H     -1.432373   -0.150637    1.541350
  H     -0.374371   -1.819766   -0.024643
  H      1.883436   -1.426855   -0.503702
  H      1.397431    1.550622    0.239158
  H      2.492160    0.969108   -1.027911
  H      2.854558    0.632751    0.655688

----------------------------
CARTESIAN COORDINATES (A.U.)
----------------------------
  NO LB      ZA    FRAG     MASS         X           Y           Z
   0 C     6.0000    0    12.011   -4.130540    0.578222   -0.796780
   1 C     6.0000    0    12.011   -1.942242    0.347674    1.088905
   2 C     6.0000    0    12.011   -0.001258   -1.519062    0.213889
   3 C     6.0000    0    12.011    2.434728   -1.092669   -0.312707
   4 C     6.0000    0    12.011    3.839155    1.352048   -0.123423
   5 H     1.0000    0     1.008   -3.456088    1.275029   -2.624680
   6 H     1.0000    0     1.008   -5.573677    1.886671   -0.100465
   7 H     1.0000    0     1.008   -5.032800   -1.258118   -1.110863
   8 H     1.0000    0     1.008   -1.098412    2.207156    1.410607
   9 H     1.0000    0     1.008   -2.706792   -0.284662    2.912729
  10 H     1.0000    0     1.008   -0.707459   -3.438860   -0.046568
  11 H     1.0000    0     1.008    3.559179   -2.696365   -0.951859
  12 H     1.0000    0     1.008    2.640761    2.930251    0.451944
  13 H     1.0000    0     1.008    4.709499    1.831349   -1.942471
  14 H     1.0000    0     1.008    5.394333    1.195727    1.239071

--------------------------------
INTERNAL COORDINATES (ANGSTROEM)
--------------------------------
 C      0   0   0     0.000000000000     0.00000000     0.00000000
 C      1   0   0     1.533483254112     0.00000000     0.00000000
 C      2   1   0     1.498400546746   111.65388842     0.00000000
 C      3   2   1     1.338006795469   127.84969900   118.67621626
 C      4   3   2     1.495324873423   127.64575038     0.95017843
 H      1   2   3     1.094980172138   110.82312836   297.83139209
 H      1   2   3     1.094711092598   110.98250689   177.62876426
 H      1   2   3     1.095392710918   110.93475223    57.62697795
 H      2   1   3     1.093902445246   109.75229199   123.75156115
 H      2   1   3     1.098692046624   108.52787914   240.02107252
 H      3   2   1     1.091206784539   114.71126438   299.90870786
 H      4   3   2     1.090252177286   117.33286329   180.72746100
 H      5   4   3     1.091942841295   113.06201626   357.58563956
 H      5   4   3     1.096835405701   110.48548271   236.20505735
 H      5   4   3     1.097248783306   110.58286611   118.90571364

---------------------------
INTERNAL COORDINATES (A.U.)
---------------------------
 C      0   0   0     0.000000000000     0.00000000     0.00000000
 C      1   0   0     2.897863381227     0.00000000     0.00000000
 C      2   1   0     2.831566672268   111.65388842     0.00000000
 C      3   2   1     2.528466408761   127.84969900   118.67621626
 C      4   3   2     2.825754492010   127.64575038     0.95017843
 H      1   2   3     2.069212647414   110.82312836   297.83139209
 H      1   2   3     2.068704160776   110.98250689   177.62876426
 H      1   2   3     2.069992232728   110.93475223    57.62697795
 H      2   1   3     2.067176038741   109.75229199   123.75156115
 H      2   1   3     2.076227073636   108.52787914   240.02107252
 H      3   2   1     2.062081978255   114.71126438   299.90870786
 H      4   3   2     2.060278031982   117.33286329   180.72746100
 H      5   4   3     2.063472923944   113.06201626   357.58563956
 H      5   4   3     2.072718530763   110.48548271   236.20505735
 H      5   4   3     2.073499701226   110.58286611   118.90571364

---------------------
BASIS SET INFORMATION
---------------------
There are 2 groups of distinct atoms

 Group   1 Type C   : 11s6p2d1f contracted to 5s3p2d1f pattern {62111/411/11/1}
 Group   2 Type H   : 5s1p contracted to 3s1p pattern {311/1}

Atom   0C    basis set group =>   1
Atom   1C    basis set group =>   1
Atom   2C    basis set group =>   1
Atom   3C    basis set group =>   1
Atom   4C    basis set group =>   1
Atom   5H    basis set group =>   2
Atom   6H    basis set group =>   2
Atom   7H    basis set group =>   2
Atom   8H    basis set group =>   2
Atom   9H    basis set group =>   2
Atom  10H    basis set group =>   2
Atom  11H    basis set group =>   2
Atom  12H    basis set group =>   2
Atom  13H    basis set group =>   2
Atom  14H    basis set group =>   2
---------------------------------
AUXILIARY/J BASIS SET INFORMATION
---------------------------------
There are 2 groups of distinct atoms

 Group   1 Type C   : 12s5p4d2f1g contracted to 6s4p3d1f1g pattern {711111/2111/211/2/1}
 Group   2 Type H   : 5s2p1d contracted to 3s1p1d pattern {311/2/1}

Atom   0C    basis set group =>   1
Atom   1C    basis set group =>   1
Atom   2C    basis set group =>   1
Atom   3C    basis set group =>   1
Atom   4C    basis set group =>   1
Atom   5H    basis set group =>   2
Atom   6H    basis set group =>   2
Atom   7H    basis set group =>   2
Atom   8H    basis set group =>   2
Atom   9H    basis set group =>   2
Atom  10H    basis set group =>   2
Atom  11H    basis set group =>   2
Atom  12H    basis set group =>   2
Atom  13H    basis set group =>   2
Atom  14H    basis set group =>   2

Checking for AutoStart:
The File: sp_solv.gbw exists
Trying to determine its content:
     ... Fine, the file contains calculation information
     ... Fine, the calculation information was read
     ... Fine, the file contains a basis set
     ... Fine, the basis set was read
     ... Fine, the file contains a geometry
     ... Fine, the geometry was read
     ... Fine, the file contains a set of orbitals
     ... Fine, the orbitals can be read
     => possible old guess file was deleted
     => GBW file was renamed to GES file
     => GES file is set as startup file
     => Guess is set to MORead
     ... now leaving AutoStart

------------------------------------------------------------------------------
                             ORCA STARTUP CALCULATIONS
                           -- RI-GTO INTEGRALS CHOSEN --
------------------------------------------------------------------------------
------------------------------------------------------------------------------
                   ___                                                        
                  /   \      - P O W E R E D   B Y -                         
                 /     \                                                     
                 |  |  |   _    _      __       _____    __    __             
                 |  |  |  | |  | |    /  \     |  _  \  |  |  /  |          
                  \  \/   | |  | |   /    \    | | | |  |  | /  /          
                 / \  \   | |__| |  /  /\  \   | |_| |  |  |/  /          
                |  |  |   |  __  | /  /__\  \  |    /   |      \           
                |  |  |   | |  | | |   __   |  |    \   |  |\   \          
                \     /   | |  | | |  |  |  |  | |\  \  |  | \   \       
                 \___/    |_|  |_| |__|  |__|  |_| \__\ |__|  \__/        
                                                                              
                      - O R C A' S   B I G   F R I E N D -                    
                                      &                                       
                       - I N T E G R A L  F E E D E R -                       
                                                                              
 v1 FN, 2020, v2 2021, v3 2022-2024                                           
------------------------------------------------------------------------------


----------------------
SHARK INTEGRAL PACKAGE
----------------------

Number of atoms                             ...     15
Number of basis functions                   ...    215
Number of shells                            ...     95
Maximum angular momentum                    ...      3
Integral batch strategy                     ... SHARK/LIBINT Hybrid
RI-J (if used) integral strategy            ... SPLIT-RIJ (Revised 2003 algorithm where possible)
Printlevel                                  ...      1
Contraction scheme used                     ... SEGMENTED contraction
Prescreening option                         ... SCHWARTZ
   Thresh                                   ... 3.000e-11
   Tcut                                     ... 1.000e-12
   Tpresel                                  ... 1.000e-12 
Coulomb Range Separation                    ... NOT USED
Exchange Range Separation                   ... Long Range
   Mu parameter                             ... 3.000e-01
   Scaling (regular/separated)              ... 1.670e-01 8.330e-01
Multipole approximations                    ... NOT USED
Finite Nucleus Model                        ... NOT USED
CABS basis                                  ... NOT available
Auxiliary Coulomb fitting basis             ... AVAILABLE
   # of basis functions in Aux-J            ...    355
   # of shells in Aux-J                     ...    125
   Maximum angular momentum in Aux-J        ...      4
Auxiliary J/K fitting basis                 ... NOT available
Auxiliary Correlation fitting basis         ... NOT available
Auxiliary 'external' fitting basis          ... NOT available

Checking pre-screening integrals            ... done (  0.0 sec) Dimension = 95
Check shell pair data                       ... done (  0.0 sec)
Shell pair information
Shell pair cut-off parameter TPreSel        ...   1.0e-12
Total number of shell pairs                 ...      4560
Shell pairs after pre-screening             ...      4326
Total number of primitive shell pairs       ...     13020
Primitive shell pairs kept                  ...      9814
          la=0 lb=0:   1428 shell pairs
          la=1 lb=0:   1304 shell pairs
          la=1 lb=1:    313 shell pairs
          la=2 lb=0:    530 shell pairs
          la=2 lb=1:    245 shell pairs
          la=2 lb=2:     54 shell pairs
          la=3 lb=0:    264 shell pairs
          la=3 lb=1:    123 shell pairs
          la=3 lb=2:     50 shell pairs
          la=3 lb=3:     15 shell pairs

Calculating one electron integrals          ... done (  0.0 sec)
Calculating RI/J V-Matrix + Cholesky decomp.... done (  0.0 sec)
Calculating Nuclear repulsion               ... done (  0.0 sec) ENN=    171.409735678682 Eh

Diagonalization of the overlap matrix:
Smallest eigenvalue                        ... 1.206e-04
Time for diagonalization                   ...    0.005 sec
Threshold for overlap eigenvalues          ... 1.000e-07
Number of eigenvalues below threshold      ... 0
Time for construction of square roots      ...    0.016 sec
Total time needed                          ...    0.029 sec

-------------------
DFT GRID GENERATION
-------------------

General Integration Accuracy     IntAcc      ... 4.388
Radial Grid Type                 RadialGrid  ... OptM3 with GC (2021)
Angular Grid (max. ang.)         AngularGrid ... 4 (Lebedev-302)
Angular grid pruning method      GridPruning ... 4 (adaptive)
Weight generation scheme         WeightScheme... mBecke (2022)
Basis function cutoff            BFCut       ... 1.0000e-11
Integration weight cutoff        WCut        ... 1.0000e-14
Partially contracted basis set               ... off
Rotationally invariant grid construction     ... off
Angular grids for H and He will be reduced by one unit

Total number of grid points                  ...    62453
Total number of batches                      ...      983
Average number of points per batch           ...       63
Average number of grid points per atom       ...     4164

--------------------
COSX GRID GENERATION
--------------------

GRIDX 1
-------
General Integration Accuracy     IntAcc      ... 3.816
Radial Grid Type                 RadialGrid  ... OptM3 with GC (2021)
Angular Grid (max. ang.)         AngularGrid ... 1 (Lebedev-50)
Angular grid pruning method      GridPruning ... 4 (adaptive)
Weight generation scheme         WeightScheme... mBecke (2022)
Basis function cutoff            BFCut       ... 1.0000e-11
Integration weight cutoff        WCut        ... 1.0000e-14
Partially contracted basis set               ... on
Rotationally invariant grid construction     ... off
Angular grids for H and He will be reduced by one unit

Total number of grid points                  ...     8043
Total number of batches                      ...       73
Average number of points per batch           ...      110
Average number of grid points per atom       ...      536
UseSFitting                                  ... on

GRIDX 2
-------
General Integration Accuracy     IntAcc      ... 4.020
Radial Grid Type                 RadialGrid  ... OptM3 with GC (2021)
Angular Grid (max. ang.)         AngularGrid ... 2 (Lebedev-110)
Angular grid pruning method      GridPruning ... 4 (adaptive)
Weight generation scheme         WeightScheme... mBecke (2022)
Basis function cutoff            BFCut       ... 1.0000e-11
Integration weight cutoff        WCut        ... 1.0000e-14
Partially contracted basis set               ... on
Rotationally invariant grid construction     ... off
Angular grids for H and He will be reduced by one unit

Total number of grid points                  ...    16727
Total number of batches                      ...      139
Average number of points per batch           ...      120
Average number of grid points per atom       ...     1115
UseSFitting                                  ... on

GRIDX 3
-------
General Integration Accuracy     IntAcc      ... 4.338
Radial Grid Type                 RadialGrid  ... OptM3 with GC (2021)
Angular Grid (max. ang.)         AngularGrid ... 3 (Lebedev-194)
Angular grid pruning method      GridPruning ... 4 (adaptive)
Weight generation scheme         WeightScheme... mBecke (2022)
Basis function cutoff            BFCut       ... 1.0000e-11
Integration weight cutoff        WCut        ... 1.0000e-14
Partially contracted basis set               ... on
Rotationally invariant grid construction     ... off
Angular grids for H and He will be reduced by one unit

Total number of grid points                  ...    36580
Total number of batches                      ...      293
Average number of points per batch           ...      124
Average number of grid points per atom       ...     2439
UseSFitting                                  ... on
Initializing property integral containers    ... done (  0.0 sec)

SHARK setup successfully completed in   1.6 seconds

Maximum memory used throughout the entire STARTUP-calculation: 31.2 MB
-------------------------------------------------------------------------------
                                 ORCA GUESS
                   Start orbitals & Density for SCF / CASSCF
-------------------------------------------------------------------------------

------------
SCF SETTINGS
------------
Hamiltonian:
 Density Functional     Method          .... DFT(GTOs)
 Exchange Functional    Exchange        .... WB97X-V
 Correlation Functional Correlation     .... WB97X-V
 Gradients option       PostSCFGGA      .... off
 Hybrid DFT is turned on
   Fraction HF Exchange ScalHFX         ....  0.167000
   Scaling of DF-GGA-X  ScalDFX         ....  0.000000
   Scaling of DF-GGA-C  ScalDFC         ....  1.000000
   Scaling of DF-LDA-C  ScalLDAC        ....  1.000000
   Perturbative correction              ....  0.000000
 Long-range corrected/Screened/Range-Separated Hybrid DFT is turned on
   Amount of maximum screened exact exchange              ....  0.833000
   Range separation parameter mu (erf(mu*r12)/r12)        ....  0.300000
   NL short-range parameter             ....  6.000000
   NL long-range parameter              ....  0.010000
 RI-approximation to the Coulomb term is turned on
   Number of AuxJ basis functions       .... 355
   RIJ-COSX (HFX calculated with COS-X)).... on


General Settings:
 Integral files         IntName         .... sp_solv
 Hartree-Fock type      HFTyp           .... RHF
 Total Charge           Charge          ....    0
 Multiplicity           Mult            ....    1
 Number of Electrons    NEL             ....   40
 Basis Dimension        Dim             ....  215
 Nuclear Repulsion      ENuc            ....    171.4097356787 Eh

Convergence Acceleration:
 AO-DIIS                CNVDIIS         .... on
   Start iteration      DIISMaxIt       ....    12
   Startup error        DIISStart       ....  0.200000
   # of expansion vecs  DIISMaxEq       ....     5
   Bias factor          DIISBfac        ....   1.050
   Max. coefficient     DIISMaxC        ....  10.000
 MO-DIIS                CNVKDIIS        .... off
 Trust-Rad. Augm. Hess. CNVTRAH         .... auto
   Auto Start mean grad. ratio tolernc. ....  1.125000
   Auto Start start iteration           ....     1
   Auto Start num. interpolation iter.  ....    10
   Max. Number of Micro iterations      ....    24
   Max. Number of Macro iterations      .... Maxiter - #DIIS iter
   Number of Davidson start vectors     ....     2
   Converg. threshold    (grad. norm)   ....   1.000e-04
   Grad. Scal. Fac. for Micro threshold ....   0.100
   Minimum threshold for Micro iter.    ....   1.000e-02
   NR start threshold (gradient norm)   ....   1.000e-04
   Initial trust radius                 ....   0.400
   Minimum AH scaling param. (alpha)    ....   1.000
   Maximum AH scaling param. (alpha)    .... 1000.000
   Quad. conv. algorithm                .... NR
   White noise on init. David. guess    .... on
   Maximum white noise                  ....   0.010
   Pseudo random numbers                .... off
   Inactive MOs                         .... canonical
   Orbital update algorithm             .... Taylor
   Preconditioner                       .... Diag
   Full preconditioner red. dimension   ....   250
 SOSCF                  CNVSOSCF        .... on
   Start iteration      SOSCFMaxIt      ....   150
   Startup grad/error   SOSCFStart      ....  0.003300
   Hessian update       SOSCFHessUp     .... L-BFGS
 Level Shifting         CNVShift        .... on
   Level shift para.    LevelShift      ....    0.2500
   Turn off err/grad.   ShiftErr        ....    0.0010
 Zerner damping         CNVZerner       .... off
 Static damping         CNVDamp         .... on
   Fraction old density DampFac         ....    0.7000
   Max. Damping (<1)    DampMax         ....    0.9800
   Min. Damping (>=0)   DampMin         ....    0.0000
   Turn off err/grad.   DampErr         ....    0.1000

SCF Procedure:
 Maximum # iterations   MaxIter         ....   125
 SCF integral mode      SCFMode         .... Direct
   Integral package                     .... SHARK and LIBINT hybrid scheme
 Reset frequency        DirectResetFreq ....    20
 Integral Threshold     Thresh          ....  3.000e-11 Eh
 Primitive CutOff       TCut            ....  1.000e-12 Eh

Convergence Tolerance:
 Convergence Check Mode ConvCheckMode   .... Total+1el-Energy
 Convergence forced     ConvForced      .... 0
 Energy Change          TolE            ....  1.000e-07 Eh
 1-El. energy change                    ....  1.000e-04 Eh
 Orbital Gradient       TolG            ....  1.000e-04
 Orbital Rotation angle TolX            ....  1.000e-04
 DIIS Error             TolErr          ....  1.000e-07

---------------------
INITIAL GUESS: MOREAD
---------------------
Guess MOs are being read from file: sp_solv.ges
Input Geometry matches current geometry (good)
Atom 0: N(Shells)= 11 and 9 - projection required
Input basis set needs projection
NBasis(read)= 145
NBasis(calc)= 215
Basis set overlap was calculated
Using GuessMode=FMatrix for the initial guess
C*T matrix was formed
Effective Fockian was calculated
Effective Fockian was diagonalized
Initial density was built
                      ------------------
                      INITIAL GUESS DONE (   0.1 sec)
                      ------------------
             **** ENERGY FILE WAS UPDATED (sp_solv.en.tmp) ****
Finished Guess after   0.3 sec
Maximum memory used throughout the entire GUESS-calculation: 17.0 MB

-------------------------------------------------------------------------------------------
                                      ORCA LEAN-SCF
                              memory conserving SCF solver
-------------------------------------------------------------------------------------------

--------------------
CPCM SOLVATION MODEL
--------------------
CPCM parameters:
  Epsilon                                         ...      78.3550
  Refrac                                          ...       1.3328
  Rsolv                                           ...       1.3000
  Surface type                                    ... GAUSSIAN VDW
  Discretization scheme                           ... Constant charge density
    Threshold for H atoms                         ...       5.0000 (charges/Ang^2)
    Threshold for non-H atoms                     ...       5.0000 (charges/Ang^2)
  Epsilon function type                           ...         CPCM
Solvent:                                          ... WATER
SMD-CDS solvent descriptors:
  Soln                                            ...       1.3328
  Soln25                                          ...       1.3323
  Sola                                            ...       0.0000
  Solb                                            ...       0.0000
  Solg                                            ...       0.0000
  Solc                                            ...       0.0000
  Solh                                            ...       0.0000
Radii:
  Scheme                                          ... Element-dependent radii
  Radius for C  used is    3.4960 Bohr (=   1.8500 Ang.)
  Radius for H  used is    2.2677 Bohr (=   1.2000 Ang.)
Calculating surface                               ...        done! (  0.0s)
Cavity surface points                             ...         1185
Cavity Volume                                     ...     654.7810
Cavity Surface-area                               ...     444.4113
Calculating surface distance matrix               ...        done! (  0.0s)
Performing Cholesky decomposition & store         ...        done! (  0.1s)
Overall time for CPCM initialization              ...                 0.1s

----------------------------------------D-I-I-S--------------------------------------------
Iteration    Energy (Eh)           Delta-E    RMSDP     MaxDP     DIISErr   Damp  Time(sec)
-------------------------------------------------------------------------------------------
               ***  Starting incremental Fock matrix formation  ***
    1    -196.6947706889707774     0.00e+00  9.27e-04  2.72e-02  3.26e-02  0.700   8.0
    2    -196.6973996482674920    -2.63e-03  8.03e-04  2.24e-02  2.28e-02  0.700   4.4
                               ***Turning on AO-DIIS***
    3    -196.6994213902047477    -2.02e-03  6.68e-04  1.74e-02  1.60e-02  0.700   4.3
    4    -196.7009281318372587    -1.51e-03  1.67e-03  4.24e-02  1.13e-02  0.000   4.4
                              *** Initializing SOSCF ***
---------------------------------------S-O-S-C-F--------------------------------------
Iteration    Energy (Eh)           Delta-E    RMSDP     MaxDP     MaxGrad    Time(sec)
--------------------------------------------------------------------------------------
    5    -196.7048428671747615    -3.91e-03  7.11e-05  1.93e-03  8.37e-04     4.5
               *** Restarting incremental Fock matrix formation ***
    6    -196.7048621727404907    -1.93e-05  3.28e-05  8.43e-04  3.23e-04     7.9
    7    -196.7048646904100337    -2.52e-06  1.39e-05  3.47e-04  1.07e-04     6.3
    8    -196.7048649676840455    -2.77e-07  1.49e-06  4.02e-05  1.28e-05     6.0
                  *** Gradient check signals convergence ***

               *****************************************************
               *                     SUCCESS                       *
               *           SCF CONVERGED AFTER   8 CYCLES          *
               *****************************************************


------------------
NL GRID GENERATION
------------------

General Integration Accuracy     IntAcc      ... 4.004
Radial Grid Type                 RadialGrid  ... OptM3 with GC (2021)
Angular Grid (max. ang.)         AngularGrid ... 2 (Lebedev-110)
Angular grid pruning method      GridPruning ... 4 (adaptive)
Weight generation scheme         WeightScheme... mBecke (2022)
Basis function cutoff            BFCut       ... 1.0000e-10
Integration weight cutoff        WCut        ... 1.0000e-14
Partially contracted basis set               ... off
Rotationally invariant grid construction     ... off
Angular grids for H and He will be reduced by one unit

Total number of grid points                  ...    18468
Total number of batches                      ...      294
Average number of points per batch           ...       62
Average number of grid points per atom       ...     1231
Final grid set up in    0.1 sec

-------------------------------------------------------------------------------
                    post-SCF DFT-NL dispersion correction                      
-------------------------------------------------------------------------------

SCF Energy:     -196.704864968 
NL    Energy:      0.154676550 
SC+NL Energy:   -196.550188418 
NL done in  :              1.2 sec
-------------------------------------------------------------------------------
Recomputing exchange energy using gridx3       ... done (   13.027 sec)
Old exchange energy                            :    -10.094964700 Eh
New exchange energy                            :    -10.094979570 Eh
Exchange energy change after final integration :     -0.000014870 Eh
Total energy after final integration           :   -196.550203288 Eh

SMD CDS free energy correction energy :                 3.34800     Kcal/mol
Total Energy after SMD CDS correction =              -196.544867914 Eh
             **** ENERGY FILE WAS UPDATED (sp_solv.en.tmp) ****

----------------
TOTAL SCF ENERGY
----------------

Total Energy       :       -196.54486791390417 Eh           -5348.25776 eV

Components:
Nuclear Repulsion  :        171.40973567868184 Eh            4664.29604 eV
Electronic Energy  :       -368.11025295563479 Eh          -10016.78923 eV
One Electron Energy:       -602.01989590270114 Eh          -16381.79420 eV
Two Electron Energy:        233.90964294706635 Eh            6365.00498 eV
CPCM Dielectric    :         -0.00434769073111 Eh              -0.11831 eV
SMD CDS (Gcds)     :          0.00533537412616 Eh               0.14518 eV

Virial components:
Potential Energy   :       -392.19151545132132 Eh          -10672.07369 eV
Kinetic Energy     :        195.64664753741715 Eh            5323.81594 eV
Virial Ratio       :          2.00459103382446

DFT components:
N(Alpha)           :       19.999999562428 electrons
N(Beta)            :       19.999999562428 electrons
N(Total)           :       39.999999124857 electrons
E(X)               :      -19.321684390238 Eh       
E(C)               :       -1.575773132087 Eh       
NL Energy, E(C,NL) :        0.154676549710 Eh       
E(XC)              :      -20.742780972615 Eh       

CPCM Solvation Model Properties:
Surface-charge          :         -0.04779711103254
Corrected charge        :          0.00000000000000
Outlying charge corr.   :          0.00019534115043 Eh               0.00532 eV
Free-energy (cav+disp)  :          0.00533537412616 Eh               0.14518 eV

---------------
SCF CONVERGENCE
---------------

  Last Energy change         ...    2.7727e-07  Tolerance :   1.0000e-07
  Last MAX-Density change    ...    4.0165e-05  Tolerance :   1.0000e-05
  Last RMS-Density change    ...    1.4863e-06  Tolerance :   1.0000e-06
  Last DIIS Error            ...    8.3658e-04  Tolerance :   1.0000e-07
  Last Orbital Gradient      ...    1.2794e-05  Tolerance :   1.0000e-04
  Last Orbital Rotation      ...    1.3237e-05  Tolerance :   1.0000e-04


----------------
ORBITAL ENERGIES
----------------

  NO   OCC          E(Eh)            E(eV) 
   0   2.0000     -12.040087      -327.6274 
   1   2.0000     -12.036895      -327.5406 
   2   2.0000     -12.035449      -327.5012 
   3   2.0000     -12.030617      -327.3697 
   4   2.0000     -12.027720      -327.2909 
   5   2.0000      -1.315500       -35.7966 
   6   2.0000      -1.250507       -34.0280 
   7   2.0000      -1.177597       -32.0440 
   8   2.0000      -1.098624       -29.8951 
   9   2.0000      -0.983944       -26.7745 
  10   2.0000      -0.913476       -24.8569 
  11   2.0000      -0.880151       -23.9501 
  12   2.0000      -0.849464       -23.1151 
  13   2.0000      -0.823651       -22.4127 
  14   2.0000      -0.815314       -22.1858 
  15   2.0000      -0.805390       -21.9158 
  16   2.0000      -0.792315       -21.5600 
  17   2.0000      -0.763732       -20.7822 
  18   2.0000      -0.752707       -20.4822 
  19   2.0000      -0.636041       -17.3076 
  20   0.0000      -0.191188        -5.2025 
  21   0.0000      -0.024735        -0.6731 
  22   0.0000       0.006373         0.1734 
  23   0.0000       0.010272         0.2795 
  24   0.0000       0.016931         0.4607 
  25   0.0000       0.028219         0.7679 
  26   0.0000       0.032971         0.8972 
  27   0.0000       0.056467         1.5365 
  28   0.0000       0.062915         1.7120 
  29   0.0000       0.068300         1.8586 
  30   0.0000       0.071454         1.9444 
*Only the first 10 virtual orbitals were printed.

                    ********************************
                    * MULLIKEN POPULATION ANALYSIS *
                    ********************************

-----------------------
MULLIKEN ATOMIC CHARGES
-----------------------
   0 C :   -0.385825
   1 C :   -0.123881
   2 C :   -0.232375
   3 C :   -0.181359
   4 C :   -0.345578
   5 H :    0.119868
   6 H :    0.128343
   7 H :    0.122768
   8 H :    0.108047
   9 H :    0.109583
  10 H :    0.142655
  11 H :    0.141226
  12 H :    0.128020
  13 H :    0.134070
  14 H :    0.134437
Sum of atomic charges:    0.0000000

--------------------------------
MULLIKEN REDUCED ORBITAL CHARGES
--------------------------------
  0 C s       :     3.244949  s :     3.244949
      pz      :     1.013142  p :     3.076764
      px      :     0.996813
      py      :     1.066809
      dz2     :     0.019061  d :     0.060662
      dxz     :     0.009257
      dyz     :     0.008861
      dx2y2   :     0.005337
      dxy     :     0.018146
      f0      :     0.000368  f :     0.003450
      f+1     :     0.000960
      f-1     :     0.000172
      f+2     :     0.000343
      f-2     :     0.000808
      f+3     :     0.000479
      f-3     :     0.000318

  1 C s       :     3.151379  s :     3.151379
      pz      :     0.971024  p :     2.871431
      px      :     0.936731
      py      :     0.963677
      dz2     :     0.024706  d :     0.095682
      dxz     :     0.018942
      dyz     :     0.012256
      dx2y2   :     0.017537
      dxy     :     0.022242
      f0      :     0.000462  f :     0.005389
      f+1     :     0.001290
      f-1     :     0.000365
      f+2     :     0.000494
      f-2     :     0.001099
      f+3     :     0.000956
      f-3     :     0.000723

  2 C s       :     3.210603  s :     3.210603
      pz      :     0.974513  p :     2.917917
      px      :     0.948891
      py      :     0.994513
      dz2     :     0.009890  d :     0.096853
      dxz     :     0.024697
      dyz     :     0.005097
      dx2y2   :     0.025576
      dxy     :     0.031592
      f0      :     0.000916  f :     0.007002
      f+1     :     0.001080
      f-1     :     0.000583
      f+2     :     0.000722
      f-2     :     0.000826
      f+3     :     0.001333
      f-3     :     0.001543

  3 C s       :     3.201641  s :     3.201641
      pz      :     0.981747  p :     2.872910
      px      :     0.941284
      py      :     0.949880
      dz2     :     0.004618  d :     0.099774
      dxz     :     0.022318
      dyz     :     0.012777
      dx2y2   :     0.020953
      dxy     :     0.039108
      f0      :     0.001061  f :     0.007034
      f+1     :     0.000934
      f-1     :     0.000483
      f+2     :     0.000707
      f-2     :     0.000844
      f+3     :     0.001173
      f-3     :     0.001831

  4 C s       :     3.228263  s :     3.228263
      pz      :     1.059196  p :     3.056786
      px      :     1.050888
      py      :     0.946702
      dz2     :     0.006251  d :     0.057268
      dxz     :     0.015642
      dyz     :     0.010864
      dx2y2   :     0.013532
      dxy     :     0.010978
      f0      :     0.000429  f :     0.003261
      f+1     :     0.000629
      f-1     :     0.000098
      f+2     :     0.000090
      f-2     :     0.000541
      f+3     :     0.000729
      f-3     :     0.000746

  5 H s       :     0.859439  s :     0.859439
      pz      :     0.010837  p :     0.020693
      px      :     0.004785
      py      :     0.005071

  6 H s       :     0.850816  s :     0.850816
      pz      :     0.004878  p :     0.020841
      px      :     0.008501
      py      :     0.007462

  7 H s       :     0.856529  s :     0.856529
      pz      :     0.004361  p :     0.020703
      px      :     0.005857
      py      :     0.010485

  8 H s       :     0.870098  s :     0.870098
      pz      :     0.004454  p :     0.021854
      px      :     0.005740
      py      :     0.011660

  9 H s       :     0.869360  s :     0.869360
      pz      :     0.011107  p :     0.021057
      px      :     0.005259
      py      :     0.004690

 10 H s       :     0.835811  s :     0.835811
      pz      :     0.004675  p :     0.021534
      px      :     0.004562
      py      :     0.012297

 11 H s       :     0.837169  s :     0.837169
      pz      :     0.005446  p :     0.021605
      px      :     0.006335
      py      :     0.009824

 12 H s       :     0.850231  s :     0.850231
      pz      :     0.004891  p :     0.021749
      px      :     0.007183
      py      :     0.009675

 13 H s       :     0.844957  s :     0.844957
      pz      :     0.010468  p :     0.020974
      px      :     0.005840
      py      :     0.004665

 14 H s       :     0.844598  s :     0.844598
      pz      :     0.007808  p :     0.020965
      px      :     0.009060
      py      :     0.004097


------------------------
MULLIKEN OVERLAP CHARGES
------------------------
B(  0-C ,  1-C ) :   0.6327 B(  0-C ,  2-C ) :  -0.1102 B(  0-C ,  5-H ) :   0.8105 
B(  0-C ,  6-H ) :   0.8222 B(  0-C ,  7-H ) :   0.8317 B(  0-C ,  8-H ) :  -0.0632 
B(  0-C ,  9-H ) :  -0.0887 B(  1-C ,  2-C ) :   0.5501 B(  1-C ,  3-C ) :  -0.0652 
B(  1-C ,  5-H ) :  -0.0703 B(  1-C ,  6-H ) :  -0.0815 B(  1-C ,  7-H ) :  -0.0798 
B(  1-C ,  8-H ) :   0.8778 B(  1-C ,  9-H ) :   0.8396 B(  1-C , 10-H ) :  -0.0650 
B(  2-C ,  3-C ) :   1.3019 B(  2-C ,  4-C ) :  -0.0656 B(  2-C ,  8-H ) :  -0.1284 
B(  2-C ,  9-H ) :  -0.0627 B(  2-C , 10-H ) :   0.8254 B(  2-C , 11-H ) :  -0.0964 
B(  3-C ,  4-C ) :   0.5510 B(  3-C , 10-H ) :  -0.0822 B(  3-C , 11-H ) :   0.8384 
B(  3-C , 12-H ) :  -0.1246 B(  3-C , 13-H ) :  -0.0640 B(  3-C , 14-H ) :  -0.0689 
B(  4-C , 11-H ) :  -0.0604 B(  4-C , 12-H ) :   0.8653 B(  4-C , 13-H ) :   0.8204 
B(  4-C , 14-H ) :   0.8241 B(  5-H ,  7-H ) :  -0.0521 B(  8-H ,  9-H ) :  -0.0561 
B( 13-H , 14-H ) :  -0.0587 


                     *******************************
                     * LOEWDIN POPULATION ANALYSIS *
                     *******************************

----------------------
LOEWDIN ATOMIC CHARGES
----------------------
   0 C :   -0.307265
   1 C :   -0.277781
   2 C :   -0.200026
   3 C :   -0.219125
   4 C :   -0.296520
   5 H :    0.117956
   6 H :    0.118110
   7 H :    0.119071
   8 H :    0.136441
   9 H :    0.140911
  10 H :    0.145261
  11 H :    0.142941
  12 H :    0.123053
  13 H :    0.128273
  14 H :    0.128700

-------------------------------
LOEWDIN REDUCED ORBITAL CHARGES
-------------------------------
  0 C s       :     2.832030  s :     2.832030
      pz      :     1.064522  p :     3.186913
      px      :     1.049707
      py      :     1.072685
      dz2     :     0.073767  d :     0.263963
      dxz     :     0.050490
      dyz     :     0.035537
      dx2y2   :     0.028214
      dxy     :     0.075955
      f0      :     0.002940  f :     0.024359
      f+1     :     0.005228
      f-1     :     0.002773
      f+2     :     0.002996
      f-2     :     0.004457
      f+3     :     0.003516
      f-3     :     0.002450

  1 C s       :     2.770111  s :     2.770111
      pz      :     1.025379  p :     3.072530
      px      :     1.015937
      py      :     1.031213
      dz2     :     0.088379  d :     0.396155
      dxz     :     0.086968
      dyz     :     0.049904
      dx2y2   :     0.078281
      dxy     :     0.092622
      f0      :     0.003812  f :     0.038986
      f+1     :     0.007480
      f-1     :     0.004407
      f+2     :     0.004410
      f-2     :     0.006785
      f+3     :     0.007314
      f-3     :     0.004777

  2 C s       :     2.786374  s :     2.786374
      pz      :     0.914022  p :     2.975824
      px      :     1.072550
      py      :     0.989251
      dz2     :     0.039279  d :     0.397914
      dxz     :     0.082740
      dyz     :     0.023021
      dx2y2   :     0.121105
      dxy     :     0.131768
      f0      :     0.003091  f :     0.039914
      f+1     :     0.004734
      f-1     :     0.003049
      f+2     :     0.004955
      f-2     :     0.004585
      f+3     :     0.008951
      f-3     :     0.010551

  3 C s       :     2.789532  s :     2.789532
      pz      :     0.912490  p :     2.988549
      px      :     1.073105
      py      :     1.002954
      dz2     :     0.023178  d :     0.400850
      dxz     :     0.067389
      dyz     :     0.049896
      dx2y2   :     0.101957
      dxy     :     0.158429
      f0      :     0.003732  f :     0.040195
      f+1     :     0.004181
      f-1     :     0.002342
      f+2     :     0.005447
      f-2     :     0.004093
      f+3     :     0.007688
      f-3     :     0.012712

  4 C s       :     2.819003  s :     2.819003
      pz      :     1.071189  p :     3.192803
      px      :     1.056990
      py      :     1.064624
      dz2     :     0.030387  d :     0.259760
      dxz     :     0.061246
      dyz     :     0.044558
      dx2y2   :     0.059695
      dxy     :     0.063874
      f0      :     0.002883  f :     0.024954
      f+1     :     0.002682
      f-1     :     0.002928
      f+2     :     0.003428
      f-2     :     0.002996
      f+3     :     0.004294
      f-3     :     0.005742

  5 H s       :     0.821411  s :     0.821411
      pz      :     0.029843  p :     0.060633
      px      :     0.015177
      py      :     0.015613

  6 H s       :     0.821204  s :     0.821204
      pz      :     0.015458  p :     0.060686
      px      :     0.023221
      py      :     0.022007

  7 H s       :     0.820297  s :     0.820297
      pz      :     0.013362  p :     0.060632
      px      :     0.016593
      py      :     0.030677

  8 H s       :     0.804552  s :     0.804552
      pz      :     0.013017  p :     0.059007
      px      :     0.016414
      py      :     0.029576

  9 H s       :     0.801317  s :     0.801317
      pz      :     0.027797  p :     0.057772
      px      :     0.015265
      py      :     0.014710

 10 H s       :     0.796119  s :     0.796119
      pz      :     0.013782  p :     0.058621
      px      :     0.013139
      py      :     0.031699

 11 H s       :     0.798424  s :     0.798424
      pz      :     0.015409  p :     0.058635
      px      :     0.017195
      py      :     0.026031

 12 H s       :     0.815231  s :     0.815231
      pz      :     0.015017  p :     0.061716
      px      :     0.021613
      py      :     0.025086

 13 H s       :     0.811348  s :     0.811348
      pz      :     0.030277  p :     0.060379
      px      :     0.016706
      py      :     0.013396

 14 H s       :     0.810895  s :     0.810895
      pz      :     0.022844  p :     0.060405
      px      :     0.024957
      py      :     0.012604


---------------------------------
LOEWDIN BOND ORDERS (THRESH 0.050000)
---------------------------------
B(  0-C ,  1-C ) :   1.2670 B(  0-C ,  2-C ) :   0.1587 B(  0-C ,  5-H ) :   0.9104 
B(  0-C ,  6-H ) :   0.9104 B(  0-C ,  7-H ) :   0.9082 B(  0-C ,  8-H ) :   0.0731 
B(  0-C ,  9-H ) :   0.0744 B(  1-C ,  2-C ) :   1.2299 B(  1-C ,  3-C ) :   0.2058 
B(  1-C ,  5-H ) :   0.0751 B(  1-C ,  6-H ) :   0.0782 B(  1-C ,  7-H ) :   0.0754 
B(  1-C ,  8-H ) :   0.8412 B(  1-C ,  9-H ) :   0.8377 B(  1-C , 10-H ) :   0.0750 
B(  2-C ,  3-C ) :   2.0574 B(  2-C ,  4-C ) :   0.2110 B(  2-C ,  8-H ) :   0.0764 
B(  2-C ,  9-H ) :   0.0841 B(  2-C , 10-H ) :   0.8230 B(  2-C , 11-H ) :   0.1198 
B(  3-C ,  4-C ) :   1.3052 B(  3-C , 10-H ) :   0.1186 B(  3-C , 11-H ) :   0.8286 
B(  3-C , 12-H ) :   0.0791 B(  3-C , 13-H ) :   0.0868 B(  3-C , 14-H ) :   0.0865 
B(  4-C , 11-H ) :   0.0763 B(  4-C , 12-H ) :   0.8963 B(  4-C , 13-H ) :   0.8937 
B(  4-C , 14-H ) :   0.8931 

------------------------------------------
LOEWDIN REDUCED ORBITAL POPULATIONS PER MO
-------------------------------------------
THRESHOLD FOR PRINTING IS 0.1%%
                      0         1         2         3         4         5   
                 -12.04009 -12.03689 -12.03545 -12.03062 -12.02772  -1.31550
                   2.00000   2.00000   2.00000   2.00000   2.00000   2.00000
                  --------  --------  --------  --------  --------  --------
 0 C  s               0.0       0.2       0.3       0.0      99.1       3.6
 0 C  pz              0.0       0.0       0.0       0.0       0.0       0.6
 0 C  px              0.0       0.0       0.0       0.0       0.0       1.4
 0 C  dxz             0.0       0.1       0.0       0.0       0.0       0.2
 0 C  dx2y2           0.0       0.0       0.0       0.0       0.0       0.1
 1 C  s               0.0      64.7      34.2       0.0       0.5      11.6
 1 C  pz              0.0       0.0       0.0       0.0       0.0       0.9
 1 C  px              0.0       0.0       0.0       0.0       0.0       1.0
 1 C  py              0.0       0.0       0.0       0.0       0.0       1.0
 1 C  dxz             0.0       0.0       0.0       0.0       0.1       0.0
 1 C  dx2y2           0.0       0.0       0.0       0.0       0.0       0.1
 1 C  dxy             0.0       0.0       0.1       0.0       0.0       0.5
 2 C  s               9.7      30.5      58.7       0.2       0.0      23.1
 2 C  px              0.1       0.0       0.0       0.0       0.0       1.3
 2 C  py              0.0       0.0       0.0       0.0       0.0       1.6
 2 C  dz2             0.1       0.0       0.0       0.0       0.0       0.5
 2 C  dxz             0.0       0.0       0.0       0.0       0.0       0.3
 2 C  dx2y2           0.2       0.0       0.0       0.0       0.0       0.5
 3 C  s              88.9       3.7       5.8       0.7       0.0      19.8
 3 C  pz              0.0       0.0       0.0       0.0       0.0       0.3
 3 C  px              0.0       0.0       0.1       0.0       0.0       3.3
 3 C  py              0.0       0.0       0.0       0.0       0.0       0.2
 3 C  dz2             0.0       0.0       0.0       0.0       0.0       0.4
 3 C  dxz             0.0       0.0       0.0       0.0       0.0       0.1
 3 C  dx2y2           0.0       0.1       0.1       0.0       0.0       0.4
 3 C  dxy             0.0       0.0       0.0       0.1       0.0       0.2
 3 C  f+3             0.0       0.0       0.0       0.0       0.0       0.1
 4 C  s               0.4       0.2       0.2      98.6       0.0       5.8
 4 C  px              0.0       0.0       0.0       0.0       0.0       1.1
 4 C  py              0.0       0.0       0.0       0.0       0.0       2.0
 4 C  dz2             0.0       0.0       0.0       0.0       0.0       0.2
 4 C  dxy             0.1       0.0       0.0       0.0       0.0       0.5
 5 H  s               0.0       0.0       0.0       0.0       0.0       0.6
 6 H  s               0.0       0.0       0.0       0.0       0.0       0.6
 7 H  s               0.0       0.0       0.0       0.0       0.0       0.6
 8 H  s               0.0       0.0       0.0       0.0       0.0       2.1
 8 H  py              0.0       0.0       0.0       0.0       0.0       0.2
 9 H  s               0.0       0.0       0.0       0.0       0.0       2.0
 9 H  pz              0.0       0.0       0.0       0.0       0.0       0.1
10 H  s               0.0       0.0       0.0       0.0       0.0       3.3
10 H  py              0.0       0.0       0.0       0.0       0.0       0.2
11 H  s               0.0       0.0       0.0       0.0       0.0       2.8
11 H  px              0.0       0.0       0.0       0.0       0.0       0.1
11 H  py              0.0       0.0       0.0       0.0       0.0       0.1
12 H  s               0.0       0.0       0.0       0.0       0.0       1.1
13 H  s               0.0       0.0       0.0       0.0       0.0       1.0
14 H  s               0.0       0.0       0.0       0.0       0.0       1.0

                      6         7         8         9        10        11   
                  -1.25051  -1.17760  -1.09862  -0.98394  -0.91348  -0.88015
                   2.00000   2.00000   2.00000   2.00000   2.00000   2.00000
                  --------  --------  --------  --------  --------  --------
 0 C  s              15.2       8.3      13.8       0.4       0.0       0.0
 0 C  pz              1.0       0.0       2.6       2.7       0.8       6.2
 0 C  px              1.3       0.1       3.5       0.7       0.0       0.6
 0 C  py              0.0       0.0       0.1       0.7       2.3       2.3
 0 C  dz2             0.0       0.0       0.0       0.2       0.0       0.2
 0 C  dxz             0.4       0.0       0.6       0.3       0.0       0.0
 0 C  dyz             0.0       0.0       0.0       0.0       0.1       0.1
 0 C  dx2y2           0.1       0.0       0.2       0.0       0.0       0.0
 1 C  s              15.2       0.2       8.6       2.7       0.0       0.2
 1 C  pz              0.9       0.3       3.4       3.4       0.2       6.5
 1 C  px              2.3       4.7       4.5       1.3       2.9       6.8
 1 C  py              0.0       1.3       0.3       8.2       7.4       6.3
 1 C  dxz             0.5       0.6       0.7       0.0       0.0       0.0
 1 C  dyz             0.0       0.1       0.0       0.2       0.0       0.1
 1 C  dx2y2           0.0       0.1       0.5       0.0       0.3       0.0
 1 C  dxy             0.0       0.2       0.0       0.7       0.0       0.1
 2 C  s               0.0       9.4       0.1       6.4       0.3       0.0
 2 C  pz              0.6       0.0       2.4       0.0       0.1       0.8
 2 C  px             10.7       1.0       9.6       4.7       9.5       7.3
 2 C  py              0.7       0.6       2.1       3.3      11.9       9.1
 2 C  dxz             0.0       0.1       0.1       0.3       0.1       0.0
 2 C  dyz             0.1       0.0       0.3       0.0       0.0       0.0
 2 C  dx2y2           0.1       0.0       0.5       0.6       0.1       0.0
 2 C  dxy             1.2       0.0       0.2       0.3       0.1       0.1
 3 C  s               9.5       0.2       3.7       6.0       0.5       0.2
 3 C  pz              0.0       0.1       0.1       0.5       2.3       0.0
 3 C  px              0.9      12.4       0.7       5.7      16.1       4.5
 3 C  py              0.9       7.7       3.0       0.4       6.1      10.7
 3 C  dz2             0.2       0.0       0.0       0.1       0.0       0.0
 3 C  dxz             0.0       0.1       0.0       0.0       0.0       0.0
 3 C  dx2y2           0.1       1.2       0.0       0.2       0.1       0.1
 3 C  dxy             0.5       0.3       0.0       0.9       0.1       0.2
 4 C  s              10.0      20.6       2.4       2.0       0.0       0.3
 4 C  pz              0.0       0.0       0.0       0.2       0.9       0.2
 4 C  px              0.3       0.3       0.3       1.4       4.4       4.3
 4 C  py              1.1       0.2       1.2      10.3       3.8      13.0
 4 C  dz2             0.1       0.0       0.0       0.2       0.0       0.1
 4 C  dx2y2           0.1       0.0       0.1       0.5       0.4       0.1
 4 C  dxy             0.2       0.1       0.2       0.3       0.0       0.3
 5 H  s               3.0       2.2       5.9       0.7       0.7       1.4
 5 H  pz              0.3       0.2       0.4       0.0       0.0       0.0
 5 H  px              0.0       0.0       0.2       0.0       0.0       0.0
 6 H  s               3.1       2.3       5.9       0.1       0.3       1.7
 6 H  pz              0.0       0.0       0.1       0.0       0.0       0.0
 6 H  px              0.2       0.1       0.2       0.0       0.0       0.1
 6 H  py              0.1       0.1       0.2       0.0       0.0       0.0
 7 H  s               3.0       2.2       5.8       1.0       0.2       0.8
 7 H  py              0.2       0.2       0.5       0.1       0.0       0.0
 8 H  s               2.8       0.1       3.7       4.8       2.9       1.8
 8 H  px              0.1       0.0       0.0       0.2       0.0       0.2
 8 H  py              0.2       0.0       0.4       0.2       0.1       0.0
 9 H  s               3.2       0.0       3.9       2.7       1.3       3.4
 9 H  pz              0.3       0.0       0.2       0.1       0.1       0.1
 9 H  px              0.0       0.0       0.2       0.0       0.0       0.0
 9 H  py              0.0       0.0       0.0       0.2       0.0       0.2
10 H  s               0.0       2.4       0.0       8.3       7.8       1.4
10 H  px              0.0       0.1       0.1       0.0       0.0       0.2
10 H  py              0.0       0.2       0.0       0.5       0.3       0.0
11 H  s               1.7       0.0       1.8       6.6      10.0       0.3
11 H  px              0.0       0.1       0.1       0.0       0.0       0.2
11 H  py              0.1       0.0       0.1       0.4       0.4       0.0
12 H  s               1.9       5.4       1.3       3.1       3.0       2.2
12 H  px              0.0       0.2       0.1       0.3       0.0       0.2
12 H  py              0.1       0.3       0.0       0.0       0.1       0.0
13 H  s               2.0       5.9       1.0       1.9       0.5       1.5
13 H  pz              0.1       0.5       0.1       0.2       0.0       0.1
13 H  px              0.0       0.1       0.0       0.0       0.0       0.0
13 H  py              0.0       0.0       0.0       0.0       0.1       0.1
14 H  s               2.1       5.8       1.1       1.9       0.4       1.9
14 H  pz              0.1       0.3       0.1       0.1       0.1       0.1
14 H  px              0.1       0.3       0.0       0.0       0.0       0.0
14 H  py              0.0       0.0       0.0       0.1       0.0       0.2

                     12        13        14        15        16        17   
                  -0.84946  -0.82365  -0.81531  -0.80539  -0.79232  -0.76373
                   2.00000   2.00000   2.00000   2.00000   2.00000   2.00000
                  --------  --------  --------  --------  --------  --------
 0 C  s               0.0       0.1       0.2       0.0       0.1       0.0
 0 C  pz              3.7       5.3       1.9       5.4      12.2      10.1
 0 C  px             15.9       5.2      12.3       0.3       0.1       9.2
 0 C  py              6.8       6.2       7.0      13.9       2.1       0.6
 0 C  dz2             0.0       0.0       0.0       0.0       0.2       2.8
 0 C  dxz             0.0       0.3       0.3       0.0       0.0       0.0
 0 C  dyz             0.0       0.0       0.0       0.0       0.0       0.6
 0 C  dx2y2           0.3       0.0       0.0       0.1       0.1       0.2
 0 C  dxy             0.0       0.0       0.2       0.7       0.4       0.1
 0 C  f+1             0.0       0.0       0.0       0.0       0.0       0.1
 1 C  pz             12.3       3.7       6.1       1.1       3.6       7.4
 1 C  px              2.0       7.8       6.7       2.4       1.5       6.3
 1 C  py              8.6       0.3       0.1       0.4       0.1       0.5
 1 C  dz2             0.0       0.1       0.1       0.2       0.3       2.2
 1 C  dxz             0.3       0.0       0.2       0.0       0.0       0.0
 1 C  dyz             0.0       0.0       0.0       0.1       0.0       0.5
 1 C  dx2y2           0.7       0.3       0.2       0.2       0.6       0.1
 1 C  dxy             0.0       0.1       0.1       0.5       0.6       0.0
 1 C  f+1             0.0       0.0       0.0       0.0       0.0       0.2
 1 C  f-3             0.0       0.0       0.0       0.1       0.0       0.0
 2 C  s               0.0       0.1       0.2       0.1       0.4       0.0
 2 C  pz              2.3       3.9       0.6       0.3       0.3       0.1
 2 C  px              0.5       0.4       0.8       2.4       0.5       2.6
 2 C  py              0.2       0.0       0.0       7.0       1.5       2.8
 2 C  dz2             0.1       0.0       0.2       0.2       0.0       0.0
 2 C  dxz             0.1       0.0       0.3       0.2       0.1       0.0
 2 C  dyz             0.0       0.2       0.1       0.1       0.2       0.0
 2 C  dx2y2           0.4       0.3       0.6       0.5       0.0       0.1
 2 C  dxy             0.6       0.0       0.1       1.4       0.1       1.0
 3 C  s               0.1       0.1       0.0       0.0       0.1       0.1
 3 C  pz              1.9       4.4       2.2       0.1       0.4       1.1
 3 C  px              0.5       1.7       0.2       1.8       2.0       1.3
 3 C  py              3.5       0.5       0.4       5.2       3.2       3.5
 3 C  dxz             0.0       0.0       0.6       0.2       0.0       0.0
 3 C  dyz             0.0       0.4       0.7       0.0       0.2       0.3
 3 C  dx2y2           0.1       0.3       0.0       0.6       1.6       0.0
 3 C  dxy             0.1       0.0       0.0       0.6       0.9       2.0
 3 C  f-3             0.0       0.1       0.0       0.2       0.2       0.0
 4 C  s               0.0       0.0       0.0       0.1       0.0       0.1
 4 C  pz              1.5      19.2      26.0       1.7       1.3       0.7
 4 C  px              3.9       5.7       0.1      16.2      14.5       0.1
 4 C  py              0.4       3.7       0.0       1.3       8.5       2.8
 4 C  dz2             0.1       0.0       0.1       0.2       0.3       0.0
 4 C  dxz             0.0       0.6       0.6       0.0       0.1       0.0
 4 C  dyz             0.0       0.0       0.0       0.1       0.4       0.2
 4 C  dx2y2           0.0       0.1       0.0       0.2       0.9       0.1
 4 C  dxy             0.0       0.0       0.1       0.1       1.0       0.3
 5 H  s               5.6       2.5       0.6       0.2       4.1      11.8
 5 H  pz              0.3       0.0       0.0       0.0       0.0       0.1
 5 H  px              0.0       0.2       0.2       0.0       0.0       0.0
 5 H  py              0.0       0.0       0.1       0.2       0.1       0.0
 6 H  s               1.6       3.4       7.6       4.3       2.9       5.1
 6 H  pz              0.0       0.2       0.2       0.0       0.1       0.0
 6 H  px              0.0       0.0       0.0       0.2       0.1       0.0
 6 H  py              0.3       0.0       0.0       0.0       0.0       0.2
 7 H  s               6.4       0.3       0.2       8.2       1.8       1.6
 7 H  pz              0.1       0.1       0.0       0.0       0.1       0.2
 7 H  px              0.0       0.1       0.2       0.1       0.0       0.1
 7 H  py              0.2       0.0       0.0       0.1       0.0       0.0
 8 H  s               3.5       1.5       1.2       0.1       1.6       1.2
 8 H  pz              0.2       0.0       0.1       0.0       0.0       0.1
 9 H  s               8.3       0.1       0.5       0.4       1.1       9.5
 9 H  pz              0.2       0.0       0.0       0.0       0.0       0.1
 9 H  px              0.0       0.2       0.2       0.1       0.1       0.0
10 H  s               0.4       0.2       0.4       7.7       0.6       0.6
10 H  py              0.0       0.0       0.0       0.1       0.0       0.0
11 H  s               2.2       0.1       0.0       0.9       5.2       5.3
12 H  s               0.3       1.2       0.8       1.9      14.6       2.3
12 H  pz              0.0       0.3       0.2       0.0       0.0       0.0
12 H  py              0.1       0.0       0.0       0.2       0.2       0.0
13 H  s               2.0       5.4       9.6       5.2       2.2       0.3
13 H  pz              0.1       0.0       0.1       0.2       0.1       0.0
13 H  px              0.0       0.3       0.2       0.0       0.1       0.0
13 H  py              0.0       0.0       0.1       0.0       0.2       0.1
14 H  s               0.2      11.3       6.9       2.3       3.3       0.0
14 H  pz              0.0       0.0       0.0       0.2       0.2       0.0
14 H  px              0.0       0.3       0.3       0.0       0.0       0.0

                     18        19        20        21        22        23   
                  -0.75271  -0.63604  -0.19119  -0.02473   0.00637   0.01027
                   2.00000   2.00000   0.00000   0.00000   0.00000   0.00000
                  --------  --------  --------  --------  --------  --------
 0 C  s               0.0       0.2       0.8       0.3       4.0       5.7
 0 C  pz              0.0       0.5       0.5       2.4       0.2       2.7
 0 C  px              0.8       1.0       0.9       2.2       0.5       4.5
 0 C  py             11.4       0.1       0.1       0.1       1.6       1.3
 0 C  dz2             0.2       0.0       0.0       0.0       0.0       0.3
 0 C  dxz             0.2       0.0       0.0       2.6       0.0       6.1
 0 C  dyz             0.8       0.0       0.0       0.1       0.6       0.0
 0 C  dx2y2           0.1       0.0       0.1       1.4       0.0       0.4
 0 C  dxy             1.9       0.1       0.3       0.4       0.8       0.7
 0 C  f+1             0.0       0.0       0.0       0.0       0.0       0.3
 0 C  f+2             0.0       0.0       0.0       0.1       0.0       0.3
 0 C  f-2             0.1       0.0       0.0       0.0       0.1       0.0
 1 C  s               0.1       0.0       0.0       9.2       0.4       4.4
 1 C  pz              0.1       1.3       0.1       0.8       1.5       1.9
 1 C  px              0.6       0.1       0.1       0.6       2.9       6.7
 1 C  py             16.8       0.1       0.0       0.8       5.9       3.2
 1 C  dz2             0.4       0.8       1.0       0.1       1.6       0.9
 1 C  dxz             0.2       1.7       3.0       0.1       0.4       4.5
 1 C  dyz             1.1       0.3       0.8       0.0       0.2       0.0
 1 C  dx2y2           0.8       0.0       0.1       0.5       3.9       1.2
 1 C  dxy             1.6       0.2       0.4       0.5       1.6       1.1
 1 C  f+1             0.0       0.1       0.1       0.1       0.0       0.1
 1 C  f-1             0.0       0.1       0.2       0.0       0.0       0.1
 1 C  f+2             0.0       0.0       0.1       0.0       0.1       0.2
 1 C  f-2             0.1       0.1       0.1       0.1       0.0       0.0
 2 C  s               0.1       0.0       0.0       0.8       0.1       0.1
 2 C  pz              1.1      33.2      30.0       0.4       0.2       1.6
 2 C  px              0.2       1.9       1.7       1.2       0.2       0.7
 2 C  py              6.9       1.6       1.4       5.2       3.0       0.6
 2 C  dz2             0.1       0.6       0.5       0.4       0.0       1.1
 2 C  dxz             0.5       2.1       3.6       1.5       0.3       0.1
 2 C  dyz             0.0       0.0       0.5       0.5       0.8       0.6
 2 C  dx2y2           2.0       0.1       0.5       0.6       4.4       0.2
 2 C  dxy             1.3       0.2       0.1       8.1       0.2       0.9
 2 C  f0              0.0       0.0       0.2       0.0       0.0       0.0
 2 C  f+1             0.0       0.0       0.3       0.0       0.0       0.0
 2 C  f+2             0.0       0.1       0.4       0.0       0.0       0.0
 2 C  f+3             0.0       0.0       0.1       0.1       0.0       0.0
 2 C  f-3             0.0       0.0       0.0       0.0       0.0       0.1
 3 C  s               0.1       0.0       0.0       0.7       2.4       3.3
 3 C  pz              0.1      32.2      31.0       0.4       0.2       0.0
 3 C  px              0.2       2.2       1.9       0.5       0.2       0.2
 3 C  py              3.3       1.6       1.6       4.9       2.1       1.8
 3 C  dz2             0.0       0.1       0.8       0.8       0.9       0.8
 3 C  dxz             0.1       2.0       3.7       0.2       0.1       0.0
 3 C  dyz             0.1       0.7       0.0       0.1       1.1       0.2
 3 C  dx2y2           0.0       0.3       0.3       1.2       0.7       0.0
 3 C  dxy             2.0       0.0       0.2       8.3       0.9       1.7
 3 C  f0              0.0       0.0       0.2       0.0       0.0       0.0
 3 C  f+1             0.0       0.1       0.2       0.0       0.0       0.0
 3 C  f+2             0.0       0.1       0.3       0.0       0.0       0.0
 3 C  f-2             0.0       0.0       0.1       0.0       0.0       0.0
 3 C  f+3             0.0       0.0       0.1       0.0       0.3       0.1
 3 C  f-3             0.0       0.0       0.0       0.1       0.0       0.0
 4 C  s               0.0       0.0       0.0       7.6       2.9       0.1
 4 C  pz              0.1       1.8       0.1       0.0       0.5       0.2
 4 C  px              0.0       0.1       0.0       0.8       1.5       0.6
 4 C  py              4.9       0.1       0.0       1.3       2.4       7.6
 4 C  dz2             0.0       0.0       0.0       0.2       0.5       0.7
 4 C  dxz             0.0       1.6       2.0       0.0       0.0       0.9
 4 C  dyz             0.0       1.4       2.4       0.0       0.4       0.0
 4 C  dx2y2           0.1       0.3       0.5       0.0       0.4       0.5
 4 C  dxy             0.1       0.0       0.0       0.6       0.4       4.8
 4 C  f0              0.0       0.1       0.1       0.0       0.0       0.0
 4 C  f+2             0.0       0.1       0.2       0.0       0.0       0.0
 4 C  f-2             0.0       0.1       0.1       0.0       0.0       0.0
 4 C  f+3             0.0       0.0       0.0       0.1       0.2       0.1
 5 H  s               1.5       0.2       0.1       1.1       2.7       0.8
 5 H  pz              0.1       0.0       0.0       0.1       0.9       0.5
 5 H  px              0.0       0.0       0.0       0.3       0.0       0.2
 5 H  py              0.1       0.0       0.0       0.1       0.1       0.2
 6 H  s               1.9       0.2       0.3       0.2       2.7       0.5
 6 H  pz              0.0       0.0       0.0       0.3       0.0       0.1
 6 H  px              0.1       0.0       0.1       0.1       0.7       0.1
 6 H  py              0.0       0.0       0.0       0.0       0.3       0.0
 7 H  s               8.9       0.0       0.1       1.2       0.3       3.8
 7 H  pz              0.0       0.0       0.0       0.1       0.0       0.3
 7 H  px              0.0       0.0       0.0       0.0       0.0       1.0
 7 H  py              0.0       0.0       0.0       0.4       0.1       0.5
 8 H  s              12.7       0.0       0.0       2.4      10.2       3.0
 8 H  pz              0.0       0.0       0.0       0.1       0.0       0.3
 8 H  px              0.1       0.0       0.0       0.1       0.3       1.8
 8 H  py              0.1       0.0       0.0       0.9       3.1       0.5
 9 H  s               1.6       2.0       0.9       3.0       0.2       1.1
 9 H  pz              0.1       0.0       0.0       0.8       0.1       0.7
 9 H  px              0.0       0.0       0.0       0.3       0.1       0.1
 9 H  py              0.2       0.0       0.0       0.0       0.3       0.2
10 H  s               6.9       0.0       0.0       3.2       3.2       0.6
10 H  pz              0.0       0.6       0.9       0.0       0.1       0.1
10 H  px              0.0       0.0       0.1       0.8       0.0       0.3
10 H  py              0.0       0.0       0.0       0.3       0.8       0.1
11 H  s               2.9       0.0       0.0       3.0       5.8       0.4
11 H  pz              0.0       0.5       1.0       0.1       0.2       0.0
11 H  px              0.0       0.0       0.1       0.9       0.4       0.0
11 H  py              0.0       0.0       0.0       0.1       1.3       0.2
12 H  s               1.6       0.0       0.0       2.4       7.9       2.7
12 H  pz              0.0       0.0       0.0       0.1       0.2       0.2
12 H  px              0.1       0.0       0.0       0.2       1.0       1.2
12 H  py              0.0       0.0       0.0       0.7       1.9       0.1
13 H  s               0.0       2.0       1.1       2.7       0.2       0.3
13 H  pz              0.0       0.0       0.0       0.5       0.1       0.1
13 H  px              0.0       0.0       0.0       0.3       0.1       0.0
13 H  py              0.1       0.0       0.0       0.2       0.0       0.4
14 H  s               0.0       2.2       1.2       2.4       0.5       0.1
14 H  pz              0.0       0.0       0.0       0.2       0.0       0.0
14 H  px              0.0       0.0       0.0       0.6       0.3       0.0
14 H  py              0.1       0.0       0.0       0.0       0.1       0.5

                     24        25        26        27        28        29   
                   0.01693   0.02822   0.03297   0.05647   0.06292   0.06830
                   0.00000   0.00000   0.00000   0.00000   0.00000   0.00000
                  --------  --------  --------  --------  --------  --------
 0 C  s               4.8       5.1       0.1       1.6       0.7       0.0
 0 C  pz              0.1       0.6       1.0       7.1       0.0       3.4
 0 C  px              1.3       0.3       5.2       0.5       3.3       1.4
 0 C  py              0.0       0.0       0.4       0.9       4.1       3.5
 0 C  dz2             1.5       0.1       2.7       1.6       0.0       1.6
 0 C  dxz             0.0       0.3       1.7       2.3       2.3       2.4
 0 C  dyz             0.1       0.1       1.0       0.7       2.0       0.6
 0 C  dx2y2           0.3       0.1       0.6       0.9       0.0       0.3
 0 C  dxy             0.5       1.4       0.0       0.2       1.1       0.1
 0 C  f0              0.1       0.0       0.0       0.0       0.0       0.0
 0 C  f+1             0.0       0.0       0.1       0.1       0.0       0.0
[...]
 1 C  f0              0.2       0.1       2.6       0.0       0.9       0.0
 1 C  f+1             0.6       0.4       0.3       2.7       1.2       0.1
 1 C  f-1             0.9       2.3       0.3       0.1       0.1       0.0
 1 C  f+2             0.4       2.2       0.1       2.5       0.9       0.1
 1 C  f-2             0.2       0.0       5.6       0.1       1.2       0.1
 1 C  f+3             0.8       0.2       3.4       5.3       0.0       1.3
 1 C  f-3             3.9       0.3       0.0       0.3       3.3       0.0
 2 C  s               6.7       0.7       1.3       1.4       3.1       6.6
 2 C  pz              0.7       1.5       0.1       0.0       0.0       0.5
 2 C  px              1.8       3.6       3.4       4.2       0.2       5.3
 2 C  py              0.9       1.6       1.8       0.8       1.8       1.6
 2 C  dz2             1.3       0.3       0.2       0.6       0.9       1.1
 2 C  dxz             0.5       1.0       1.0       0.2       2.4       0.0
 2 C  dyz             0.4       0.5       0.6       0.1       0.6       0.0
 2 C  dx2y2           1.3       3.0       0.2       4.0       3.8       0.1
 2 C  dxy             0.5       1.3       9.1       1.3       7.5       1.8
 2 C  f0              1.9       1.8       0.7       0.0       0.0       0.5
 2 C  f+1             0.3       0.0       1.3       3.6       0.1       0.4
 2 C  f-1             0.6       2.0       2.1       0.3       0.1       0.0
 2 C  f+2             3.3       3.0       0.3       0.2       2.8       0.9
 2 C  f-2             0.7       1.5       0.0       0.0       0.0       3.4
 2 C  f+3            15.9       1.0       2.3       2.7       6.3       1.1
 2 C  f-3             1.2       0.6       2.1       1.1       3.9      13.0
 3 C  s               4.2       1.7       4.4       1.0       2.7       5.4
 3 C  pz              0.6       0.0       0.0       0.6       0.2       0.0
 3 C  px              2.9       4.7       0.9       4.1       0.5       2.8
 3 C  py              1.5       0.5       0.6       0.1       1.4       2.8
 3 C  dz2             0.2       1.4       1.7       0.1       2.2       0.5
 3 C  dxz             0.2       0.0       0.0       1.2       0.0       0.7
 3 C  dyz             0.4       0.0       0.1       0.1       0.2       0.2
 3 C  dx2y2           5.3       3.9       0.1       4.9       0.3       1.0
 3 C  dxy             0.0       1.5       5.4       0.3      11.6       1.2
 3 C  f0              1.7       0.0       0.3       1.5       0.4       0.1
 3 C  f+1             0.1       2.2       0.3       0.9       0.6       1.1
 3 C  f-1             0.7       0.0       0.6       0.0       0.1       1.0
 3 C  f+2             0.2       0.1       0.1       1.1       0.5       0.6
 3 C  f-2             0.3       6.0       0.1       0.3       0.5       0.3
 3 C  f+3             1.6       0.0       1.7       0.1       0.0      12.6
 3 C  f-3             1.0       0.4       2.9       2.1      10.3       1.9
 4 C  s               5.7       0.9       4.7       0.1       2.5       2.6
 4 C  pz              0.1       0.1       0.0       0.1       0.0       0.0
 4 C  px              0.1       0.4       0.7       0.1       1.0       0.6
 4 C  py              0.5       0.3       1.1       0.7       0.8       1.5
 4 C  dz2             0.3       0.1       1.1       0.0       0.3       1.0
 4 C  dxz             0.0       0.2       0.1       0.1       0.0       0.0
 4 C  dyz             0.1       0.6       0.1       0.0       0.2       0.2
 4 C  dx2y2           0.2       0.0       1.8       0.0       0.3       1.9
 4 C  dxy             1.5       0.5       0.7       1.1       3.4       1.5
 4 C  f0              1.3       0.0       0.1       0.1       0.0       0.0
 4 C  f+1             4.2       0.1       0.6       0.1       1.1       0.0
 4 C  f-1             0.7       0.3       0.8       0.1       0.7       0.0
 4 C  f+2             0.0       1.3       0.0       0.0       0.0       0.0
 4 C  f-2             0.5       0.5       0.5       0.1       0.0       0.1
 4 C  f+3             1.3       0.9       2.9       0.2       1.8       0.4
 4 C  f-3             0.8       0.3       1.4       0.9       1.5       0.4
 5 H  s               0.0       0.5       0.0       0.1       0.0       0.0
 6 H  s               0.0       1.2       0.8       0.2       0.0       0.1
 6 H  px              0.0       0.0       0.1       0.0       0.0       0.0
 7 H  s               0.4       0.5       0.0       0.3       0.0       0.0
 8 H  s               0.1       0.3       0.7       2.4       0.1       0.3
 8 H  px              0.1       0.0       0.0       0.0       0.0       0.0
 8 H  py              0.3       0.3       0.2       0.6       0.1       0.0
 9 H  s               0.5       0.2       0.6       0.0       0.3       0.1
 9 H  pz              0.1       0.2       0.0       0.0       0.0       0.1
10 H  s               4.2       1.0       0.8       0.5       0.1       1.9
10 H  px              0.1       0.0       0.0       0.1       0.4       0.1
10 H  py              1.2       0.2       0.3       0.2       0.1       0.4
11 H  s               0.0       1.3       0.1       0.6       0.1       2.2
11 H  px              0.0       0.0       0.1       0.0       0.5       0.2
11 H  py              0.1       0.4       0.1       0.1       0.0       0.3
12 H  s               0.2       1.1       0.9       0.4       0.1       0.2
12 H  py              0.0       0.4       0.1       0.4       0.1       0.0
13 H  s               1.8       0.1       0.2       0.0       0.2       0.0
14 H  s               0.6       0.5       0.0       0.1       0.1       0.0

                    210       211       212       213       214   
                  20.60291  20.71614  20.73433  20.90595  21.28373
                   0.00000   0.00000   0.00000   0.00000   0.00000
                  --------  --------  --------  --------  --------
 0 C  s               3.7      52.7      40.5       1.6       0.1
 1 C  s               0.6      10.7       5.0      82.2       0.0
 2 C  s              43.5       3.8       0.5       0.3      50.4
 2 C  px              0.1       0.0       0.0       0.1       0.4
 3 C  s              44.9       5.6       0.1       0.1      47.6
 3 C  px              0.1       0.0       0.0       0.1       0.4
 4 C  s               5.8      25.8      52.5      14.3       0.0
 5 H  s               0.0       0.1       0.1       0.0       0.0
 6 H  s               0.0       0.1       0.1       0.0       0.0
 7 H  s               0.0       0.1       0.1       0.0       0.0
 8 H  s               0.0       0.0       0.0       0.2       0.0
 9 H  s               0.0       0.0       0.0       0.2       0.0
10 H  s               0.2       0.0       0.0       0.0       0.1
11 H  s               0.2       0.0       0.0       0.0       0.1
12 H  s               0.0       0.0       0.1       0.0       0.0
13 H  s               0.0       0.1       0.1       0.0       0.0
14 H  s               0.0       0.0       0.1       0.0       0.0


                      *****************************
                      * MAYER POPULATION ANALYSIS *
                      *****************************

  NA   - Mulliken gross atomic population
  ZA   - Total nuclear charge
  QA   - Mulliken gross atomic charge
  VA   - Mayer's total valence
  BVA  - Mayer's bonded valence
  FA   - Mayer's free valence

  ATOM       NA         ZA         QA         VA         BVA        FA
  0 C      6.3858     6.0000    -0.3858     3.8931     3.8931    -0.0000
  1 C      6.1239     6.0000    -0.1239     3.8542     3.8542    -0.0000
  2 C      6.2324     6.0000    -0.2324     3.8934     3.8934    -0.0000
  3 C      6.1814     6.0000    -0.1814     3.8724     3.8724    -0.0000
  4 C      6.3456     6.0000    -0.3456     3.8936     3.8936     0.0000
  5 H      0.8801     1.0000     0.1199     0.9748     0.9748    -0.0000
  6 H      0.8717     1.0000     0.1283     0.9692     0.9692     0.0000
  7 H      0.8772     1.0000     0.1228     0.9726     0.9726     0.0000
  8 H      0.8920     1.0000     0.1080     0.9779     0.9779     0.0000
  9 H      0.8904     1.0000     0.1096     0.9699     0.9699    -0.0000
 10 H      0.8573     1.0000     0.1427     0.9657     0.9657    -0.0000
 11 H      0.8588     1.0000     0.1412     0.9650     0.9650    -0.0000
 12 H      0.8720     1.0000     0.1280     0.9776     0.9776     0.0000
 13 H      0.8659     1.0000     0.1341     0.9656     0.9656    -0.0000
 14 H      0.8656     1.0000     0.1344     0.9648     0.9648     0.0000

  Mayer bond orders larger than 0.100000
B(  0-C ,  1-C ) :   0.9634 B(  0-C ,  5-H ) :   0.9764 B(  0-C ,  6-H ) :   0.9770 
B(  0-C ,  7-H ) :   0.9804 B(  1-C ,  2-C ) :   0.9563 B(  1-C ,  8-H ) :   0.9834 
B(  1-C ,  9-H ) :   0.9657 B(  2-C ,  3-C ) :   1.9470 B(  2-C , 10-H ) :   0.9592 
B(  3-C ,  4-C ) :   0.9564 B(  3-C , 11-H ) :   0.9650 B(  4-C , 12-H ) :   0.9868 
B(  4-C , 13-H ) :   0.9668 B(  4-C , 14-H ) :   0.9657 

-------
TIMINGS
-------

Total SCF time: 0 days 0 hours 1 min 0 sec 

Total time                  ....      60.797 sec
Sum of individual times     ....      58.864 sec  ( 96.8%)

SCF preparation             ....       0.296 sec  (  0.5%)
Fock matrix formation       ....      57.706 sec  ( 94.9%)
  Startup                   ....       0.052 sec  (  0.1% of F)
  Split-RI-J                ....       1.922 sec  (  3.3% of F)
  Chain of spheres X        ....      45.976 sec  ( 79.7% of F)
  XC integration            ....       7.783 sec  ( 13.5% of F)
    Basis function eval.    ....       1.797 sec  ( 23.1% of XC)
    Density eval.           ....       1.364 sec  ( 17.5% of XC)
    XC-Functional eval.     ....       1.853 sec  ( 23.8% of XC)
    XC-Potential eval.      ....       2.093 sec  ( 26.9% of XC)
  CPCM terms                ....       2.767 sec  (  4.8% of F)
Diagonalization             ....       0.000 sec  (  0.0%)
Density matrix formation    ....       0.158 sec  (  0.3%)
Total Energy calculation    ....       0.045 sec  (  0.1%)
Population analysis         ....       0.109 sec  (  0.2%)
Orbital Transformation      ....       0.051 sec  (  0.1%)
Orbital Orthonormalization  ....       0.000 sec  (  0.0%)
DIIS solution               ....       0.264 sec  (  0.4%)
  MO trafo                  ....       0.000 sec  (  0.0 % of DIIS)
  Orb grad                  ....       0.000 sec  (  0.0 % of DIIS)
  Energy W gradient         ....       0.000 sec  (  0.0 % of DIIS)
  DIIS error                ....       0.005 sec  (  2.0 % of DIIS)
  DIIS work                 ....       0.221 sec  ( 84.0 % of DIIS)
  Form Q                    ....       0.000 sec  (  0.0 % of DIIS)
  Form QpQm                 ....       0.000 sec  (  0.0 % of DIIS)
  Exp/Cayley                ....       0.000 sec  (  0.0 % of DIIS)
  Orb update                ....       0.000 sec  (  0.0 % of DIIS)
  Wake-sleep                ....       0.012 sec  (  4.5 % of DIIS)
SOSCF solution              ....       0.114 sec  (  0.2%)
  MO trafo                  ....       0.053 sec  ( 46.0 % of SOSCF)
  Orb grad                  ....       0.002 sec  (  1.3 % of SOSCF)
  Rot update                ....       0.027 sec  ( 23.9 % of SOSCF)
  Step                      ....       0.033 sec  ( 28.7 % of SOSCF)
Grid generation             ....       0.122 sec  (  0.2%)
Finished LeanSCF after  60.9 sec

Maximum memory used throughout the entire LEANSCF-calculation: 25.2 MB
------------------   -----------------
gCP correction             0.009620685
------------------   -----------------

-------------------------   --------------------
FINAL SINGLE POINT ENERGY      -196.535247228904
-------------------------   --------------------


------------------------------------------------------------------------------
                              ORCA PROPERTY CALCULATIONS
------------------------------------------------------------------------------

GBWName                                 ... sp_solv.gbw
Number of atoms                         ...     15
Number of basis functions               ...    215
Max core memory                         ...   1024 MB

Electric properties:
Dipole moment                           ... YES
Quadrupole moment                       ...  NO
Static polarizability (Dipole/Dipole)   ...  NO
Static polarizability (Dipole/Quad.)    ...  NO
Static polarizability (Quad./Quad.)     ...  NO
Static polarizability (Velocity)        ...  NO

Atomic electric properties:
Dipole moment                           ...  NO
Quadrupole moment                       ...  NO
Static polarizability                   ...  NO

Choice of electric origin               ... Center of mass
Position of electric origin             ...     0.001578    -0.004730     0.001008

General magnetic properties:
Magnetizability                         ...  NO

EPR properties:
g-Tensor (aka g-matrix)                 ...  NO
Zero-Field splitting spin-orbit         ...  NO
Zero-field splitting spin-spin          ...  NO
Hyperfine couplings                     ...  NO (   0 nuclei)
Quadrupole couplings                    ...  NO (   0 nuclei)
Contact density                         ...  NO (   0 nuclei)

NMR properties:
Chemical shifts                         ...  NO (   0 nuclei)
Spin-rotation constants                 ...  NO (   0 nuclei)
Spin-spin couplings                     ...  NO (   0 nuclei,    0 pairs)

Choice of magnetic origin               ... GIAO
Position of magnetic origin             ...     0.000000     0.000000     0.000000

Properties with geometric perturbations:
SCF Hessian                             ...  NO
IR spectrum                             ...  NO
VCD spectrum                            ...  NO
X-ray spectroscopy properties:
SCF XES/XAS/RIXS spectra                ...  NO


-------------
DIPOLE MOMENT
-------------

Method             : SCF
Type of density    : Electron Density
Multiplicity       :   1
Irrep              :   0
Energy             :  -196.5448679139041701 Eh
Relativity type    : 
Basis              : AO
                                X                 Y                 Z
Electronic contribution:      1.133050929      -1.683906469       0.430669794
Nuclear contribution   :     -1.135525690       1.834663722      -0.383585443
                        -----------------------------------------
Total Dipole Moment    :     -0.002474761       0.150757253       0.047084351
                        -----------------------------------------
Magnitude (a.u.)       :      0.157958254
Magnitude (Debye)      :      0.401497974



--------------------
Rotational spectrum 
--------------------
 
Rotational constants in cm-1:             0.369281             0.086377             0.079005 
Rotational constants in MHz :         11070.760902          2589.521910          2368.523702 

Dipole components along the rotational axes: 
x,y,z [a.u.] :    -0.002702     0.150274     0.048591 
x,y,z [Debye]:    -0.006869     0.381967     0.123510 

 

Dipole moment calculation done in   0.0 sec 

Maximum memory used throughout the entire PROP-calculation: 14.4 MB

--------------------------------
SUGGESTED CITATIONS FOR THIS RUN
--------------------------------

Below you find a list of papers that are relevant to this ORCA run
We neither can nor want to force you to cite these papers, but we appreciate if you do
You receive ORCA, which is the product of decades of hard work by many enthusiastic individuals, for free
The only thing we kindly ask in return is that you cite our papers,
We deeply appreciate it, if you show your appreciation for ORCA by not just citing the generic ORCA reference.

Please note that relegating all ORCA citations to the supporting information does *not* help us.
SI sections are not indexed - citations you put there will not count into any citation statistics
But we need these citations in order to attract the funding resources that allow us to do what we are doing

Therefore, if you are a happy ORCA user, please consider citing a few of the papers listed below in the main body of your paper

In addition to the list printed below, the program has created the file sp_solv.bibtex that contains the list in bibtex format
You can import this file easily into all common literature databanks and citation aid programs


List of essential papers. We consider these as the minimum necessary citations

  1. Neese,F.
     Software update: the ORCA program system, version 5.0
     WIRES Comput. Molec. Sci., 2022 12(1)e1606
     doi.org/10.1002/wcms.1606

List of papers to cite with high priority. The work reported in these papers was absolutely
necessary for this run to complete.
Our perspective: the developers of density functionals and basis sets usually get cited in chemistry papers
Good! But without the algorithms to do something with them, the functionals or basis sets would not do anything.
Hence, in our opinion, the algorithm design and method developments papers are equally worthy of getting cited

  1. Neese,F.
     An improvement of the resolution of the identity approximation for the formation of the Coulomb matrix
     J. Comp. Chem., 2003 24(14)1740-1747
     doi.org/10.1002/jcc.10318
  2. Neese,F.; Wennmohs,F.; Hansen,A.; Becker,U.
     Efficient, approximate and parallel Hartree-Fock and hybrid DFT calculations. A 'chain-of-spheres' algorithm for the Hartree-Fock exchange
     Chem. Phys., 2009 356(1-3)98-109
     doi.org/10.1016/j.chemphys.2008.10.036
  3. Garcia-Rates,M.; Neese,F.
     Effect of the Solute Cavity on the Solvation Energy and its Derivatives within the Framework of the Gaussian Charge Scheme
     J. Comput. Chem., 2020 41 922-939
     doi.org/10.1002/jcc.26139
  4. Helmich-Paris,B.; de Souza,B.; Neese,F.; Izsák,R.
     An improved chain of spheres for exchange algorithm
     J. Chem. Phys., 2021 155 104109
     doi.org/doi: 10.1063/5.0058766.
  5. Neese,F.
     The SHARK Integral Generation and Digestion System
     J. Comp. Chem., 2022  1-16
     doi.org/10.1002/jcc.26942

List of suggested additional citations. These are papers that are important in the 'surrounding' of 
of this run, or papers that preceded the highly important papers. If you like your results we are grateful for a citation.

  1. Izsak,R.; Neese,F.
     An overlap fitted chain of spheres exchange method
     J. Chem. Phys., 2011 135 144105
     doi.org/10.1063/1.3646921
  2. Izsak,R.; Hansen,A.; Neese,F.
     The resolution of identity and chain of spheres approximations for the LPNO-CCSD singles Fock term
     Molec. Phys., 2012 110 2413-2417
     doi.org/10.1080/00268976.2012.687466
  3. Neese,F.
     The ORCA program system
     WIRES Comput. Molec. Sci., 2012 2(1)73-78
     doi.org/10.1002/wcms.81
  4. Izsak,R.; Neese,F.; Klopper,W.
     Robust fitting techniques in the chain of spheres approximation to the Fock exchange: The role of the complementary space
     J. Chem. Phys., 2013 139 
     doi.org/10.1063/1.4819264
  5. Neese,F.
     Software update: the ORCA program system, version 4.0
     WIRES Comput. Molec. Sci., 2018 8(1)1-6
     doi.org/10.1002/wcms.1327
  6. Neese,F.; Wennmohs,F.; Becker,U.; Riplinger,C.
     The ORCA quantum chemistry program package
     J. Chem. Phys., 2020 152 Art. No. L224108
     doi.org/10.1063/5.0004608

List of optional additional citations

  1. Neese,F.
     Approximate second-order SCF convergence for spin unrestricted wavefunctions
     Chem. Phys. Lett., 2000 325(1-3)93-98
     doi.org/10.1016/s0009-2614(00)00662-x

Timings for individual modules:

Sum of individual times          ...       62.976 sec (=   1.050 min)
Startup calculation              ...        1.605 sec (=   0.027 min)   2.5 %
SCF iterations                   ...       61.282 sec (=   1.021 min)  97.3 %
Property calculations            ...        0.089 sec (=   0.001 min)   0.1 %
                             ****ORCA TERMINATED NORMALLY****
TOTAL RUN TIME: 0 days 0 hours 1 minutes 3 seconds 619 msec
