12
 energy: -211.319421064124 gnorm: 0.038505775684 xtb: 6.7.1 (edcfbbe)
C           -2.41319048266935        0.01297773750575       -0.00026779730012
C           -0.98697384453735       -0.52237063753148        0.00028546250013
C            0.02771303801228        0.63070631887948        0.00015929690007
C            1.37490262900926        0.13905316896162        0.00005509800002
N            2.44548185398366       -0.27001902041965       -0.00020704240009
H           -2.59441858234966        0.62113928817524       -0.88337950629145
H           -3.12165740478329       -0.81092585455934       -0.00001933290001
H           -2.59478700854982        0.62201316937563        0.88216582299091
H           -0.82497938436557       -1.14497917310737        0.88246478469104
H           -0.82453312366537       -1.14554372470762       -0.88141272779058
H           -0.10986473644868        1.25404327405570        0.88743637629325
H           -0.11002990864876        1.25397569235567       -0.88714353629312
12
 energy: -211.320084405323 gnorm: 0.008588689650 xtb: 6.7.1 (edcfbbe)
C           -2.41793828745160        0.01242022715584       -0.00023536608576
C           -0.99211983954850       -0.52653857533807        0.00025258732467
C            0.02694410596702        0.62661580115001        0.00009147639579
C            1.38527568741241        0.14091798908327       -0.00032649676344
N            2.47030442094323       -0.27035537412716        0.00025844585892
H           -2.60242450393712        0.62581607520884       -0.88631682820903
H           -3.13559756076070       -0.81085351181656        0.00001281152375
H           -2.60275441626927        0.62665183326258        0.88519759023750
H           -0.82188534104893       -1.15020920435289        0.88283629225045
H           -0.82153469527670       -1.15075647608764       -0.88187540285750
H           -0.11012316702413        1.25817622814588        0.88434444507636
H           -0.11048344419239        1.25818519376549       -0.88410264628202
12
 energy: -211.320120139212 gnorm: 0.002544563576 xtb: 6.7.1 (edcfbbe)
C           -2.41829864365545        0.01193751880951       -0.00028990660917
C           -0.99353174050484       -0.52871098473081        0.00028623204898
C            0.02683276343296        0.62501140531782        0.00021754179528
C            1.38980623328106        0.14233500945097        0.00075726977059
N            2.47411070553286       -0.26760982910708       -0.00084787466523
H           -2.60391852660104        0.62711021398908       -0.88682876159201
H           -3.14039910169448       -0.80946951487881       -0.00005523214162
H           -2.60432018186466        0.62794678166409        0.88558657192465
H           -0.82228073495642       -1.15313516896423        0.88291779480919
H           -0.82177261156972       -1.15374335007354       -0.88181910864972
H           -0.10937950388994        1.25933334569383        0.88372577645765
H           -0.10918574731802        1.25906476121902       -0.88351338472329
12
 energy: -211.320121692080 gnorm: 0.000849359576 xtb: 6.7.1 (edcfbbe)
C           -2.41792844808944        0.01175191931446       -0.00009556422081
C           -0.99397746353959       -0.52953143582030        0.00015766552504
C            0.02630881636928        0.62450871995210       -0.00020320267087
C            1.39137644609939        0.14341150467459       -0.00236380961954
N            2.47518545061733       -0.26640900370678        0.00251153989433
H           -2.60390681794599        0.62754015620492       -0.88652788079813
H           -3.14190120625309       -0.80840762301726        0.00014365705547
H           -2.60404958348460        0.62825166414281        0.88580453500224
H           -0.82246205144328       -1.15437650680560        0.88260530674005
H           -0.82248774851567       -1.15477339465656       -0.88200420955978
H           -0.10859635616295        1.25882768857325        0.88373698770050
H           -0.10989810508436        1.25927653669620       -0.88362808708369
12
 energy: -211.320121692080 gnorm: 0.000849359576 xtb: 6.7.1 (edcfbbe)
C           -2.41792844808944        0.01175191931446       -0.00009556422081
C           -0.99397746353959       -0.52953143582030        0.00015766552504
C            0.02630881636928        0.62450871995210       -0.00020320267087
C            1.39137644609939        0.14341150467459       -0.00236380961954
N            2.47518545061733       -0.26640900370678        0.00251153989433
H           -2.60390681794599        0.62754015620492       -0.88652788079813
H           -3.14190120625309       -0.80840762301726        0.00014365705547
H           -2.60404958348460        0.62825166414281        0.88580453500224
H           -0.82246205144328       -1.15437650680560        0.88260530674005
H           -0.82248774851567       -1.15477339465656       -0.88200420955978
H           -0.10859635616295        1.25882768857325        0.88373698770050
H           -0.10989810508436        1.25927653669620       -0.88362808708369
