 Entering Gaussian System
 *********************************************
 Gaussian 98:
 frequency output generated by the xtb code
 *********************************************
                         Standard orientation:
 --------------------------------------------------------------------
  Center     Atomic     Atomic              Coordinates (Angstroms)
  Number     Number      Type              X           Y           Z
 --------------------------------------------------------------------
    1          6             0       -1.450193    0.555134    1.369741
    2          6             0       -0.983620   -0.330896    0.218222
    3          1             0       -1.076119   -1.397158    0.478702
    4          6             0        0.503597   -0.095979   -0.044672
    5          9             0        0.789736    1.174373   -0.360943
    6          9             0        1.258473   -0.394204    1.030316
    7          9             0        0.977141   -0.854017   -1.047539
    8          8             0       -1.618514   -0.054918   -1.002683
    9          1             0       -0.848296    0.361688    2.252890
   10          1             0       -2.489392    0.341232    1.598144
   11          1             0       -1.351133    1.601493    1.090731
   12          1             0       -2.579208   -0.126683   -0.890948
 --------------------------------------------------------------------
     1 basis functions        1 primitive gaussians
     1 alpha electrons        1 beta electrons
 
 Harmonic frequencies (cm**-1), IR intensities (km*mol⁻¹),
 Raman scattering activities (A**4/amu), Raman depolarization ratios,
 reduced masses (AMU), force constants (mDyne/A) and normal coordinates:
                      1                      2                      3
                        a                      a                      a 
 Frequencies --    63.7326               190.7570               198.9247
 Red. masses --    14.2615                14.8580                 3.8196
 Frc consts  --     0.0000                 0.0000                 0.0000
 IR Inten    --     0.9104                 2.2712                 3.6702
 Raman Activ --     0.0000                 0.0000                 0.0000
 Depolar     --     0.0000                 0.0000                 0.0000
 Atom AN      X      Y      Z        X      Y      Z        X      Y      Z
   1   6     0.02  -0.39   0.20     0.39   0.05  -0.02    -0.15  -0.11   0.04
   2   6    -0.01  -0.03  -0.09    -0.02  -0.04  -0.15     0.02   0.06  -0.03
   3   1    -0.02  -0.03  -0.13     0.00  -0.01  -0.02     0.05   0.01  -0.03
   4   6    -0.00  -0.02  -0.03    -0.02  -0.02  -0.13     0.02   0.07  -0.02
   5   9    -0.08  -0.09  -0.38     0.02   0.01   0.00     0.31   0.01  -0.06
   6   9    -0.06   0.33   0.09    -0.44  -0.05   0.14    -0.06  -0.00   0.02
   7   9     0.12  -0.28   0.21     0.49   0.10   0.00    -0.06  -0.05   0.03
   8   8     0.02   0.49  -0.01    -0.46  -0.08   0.07    -0.08   0.10   0.02
   9   1    -0.02  -0.23   0.05     0.19   0.02  -0.06     0.27   0.33  -0.12
  10   1    -0.01  -0.10   0.01     0.13   0.04   0.10     0.11  -0.43   0.32
  11   1     0.05  -0.09   0.17     0.11   0.01  -0.03    -0.53  -0.03  -0.15
  12   1     0.00   0.14  -0.01    -0.11   0.07   0.13    -0.01  -0.14  -0.01
                      4                      5                      6
                        a                      a                      a 
 Frequencies --   224.1031               253.0364               326.9479
 Red. masses --    10.3016                 5.1626                13.9965
 Frc consts  --     0.0000                 0.0000                 0.0000
 IR Inten    --    36.2540               194.1914                 9.3741
 Raman Activ --     0.0000                 0.0000                 0.0000
 Depolar     --     0.0000                 0.0000                 0.0000
 Atom AN      X      Y      Z        X      Y      Z        X      Y      Z
   1   6     0.13   0.13  -0.09     0.23   0.10   0.03    -0.38   0.11  -0.15
   2   6    -0.03  -0.09   0.02    -0.03  -0.02  -0.02    -0.01   0.01   0.06
   3   1    -0.10  -0.02  -0.00    -0.05   0.00  -0.01    -0.02   0.00   0.01
   4   6    -0.03  -0.16   0.06    -0.05  -0.07   0.02     0.08  -0.09  -0.01
   5   9    -0.58  -0.08   0.11    -0.31  -0.04   0.05    -0.09  -0.09  -0.03
   6   9     0.17  -0.05  -0.03    -0.03  -0.05   0.01     0.31  -0.16  -0.16
   7   9     0.11  -0.04   0.03     0.05  -0.03   0.02     0.46  -0.03   0.04
   8   8     0.24   0.13  -0.09     0.13   0.27  -0.04    -0.34   0.28   0.28
   9   1     0.20   0.23  -0.09     0.12   0.05  -0.03    -0.22   0.10   0.04
  10   1     0.11  -0.08   0.17     0.08   0.06   0.08    -0.13   0.01  -0.17
  11   1    -0.14   0.02  -0.17     0.06   0.02  -0.04    -0.11   0.02  -0.09
  12   1     0.03   0.48   0.03     0.07  -0.78  -0.27    -0.07  -0.12   0.10
                      7                      8                      9
                        a                      a                      a 
 Frequencies --   380.4707               444.4184               499.1258
 Red. masses --    16.6389                15.5247                14.1731
 Frc consts  --     0.0000                 0.0000                 0.0000
 IR Inten    --     4.6236                23.9804                30.4998
 Raman Activ --     0.0000                 0.0000                 0.0000
 Depolar     --     0.0000                 0.0000                 0.0000
 Atom AN      X      Y      Z        X      Y      Z        X      Y      Z
   1   6    -0.15   0.07   0.20     0.03  -0.04  -0.26    -0.09   0.09   0.27
   2   6     0.07   0.06   0.24     0.09  -0.30   0.04    -0.36   0.10   0.01
   3   1     0.02   0.02   0.10     0.00  -0.09  -0.02    -0.19   0.05   0.03
   4   6    -0.00  -0.00  -0.01     0.04  -0.19   0.03    -0.12  -0.19   0.11
   5   9    -0.09  -0.10  -0.49     0.11  -0.30   0.07     0.16  -0.43  -0.01
   6   9    -0.35  -0.30   0.12    -0.08   0.37   0.33     0.26   0.21   0.03
   7   9     0.19   0.30  -0.18    -0.18   0.17  -0.41     0.17   0.30  -0.12
   8   8     0.38  -0.03   0.16     0.03   0.20   0.25    -0.11  -0.11  -0.29
   9   1    -0.08   0.04   0.09    -0.05   0.11  -0.01     0.07  -0.06  -0.00
  10   1    -0.05  -0.03   0.00    -0.01   0.04  -0.12    -0.00   0.04   0.18
  11   1    -0.08   0.03   0.06     0.03  -0.05  -0.22    -0.02   0.05   0.16
  12   1     0.08   0.04  -0.03     0.01  -0.02   0.07    -0.04   0.01  -0.15
                     10                     11                     12
                        a                      a                      a 
 Frequencies --   520.7965               607.8762               768.9427
 Red. masses --    16.6885                14.3336                13.9954
 Frc consts  --     0.0000                 0.0000                 0.0000
 IR Inten    --     4.2309                31.6256                 6.3001
 Raman Activ --     0.0000                 0.0000                 0.0000
 Depolar     --     0.0000                 0.0000                 0.0000
 Atom AN      X      Y      Z        X      Y      Z        X      Y      Z
   1   6     0.13  -0.10  -0.21     0.03  -0.06  -0.07     0.12  -0.02  -0.14
   2   6    -0.01  -0.11  -0.13    -0.23  -0.39   0.15     0.36   0.31  -0.11
   3   1     0.02  -0.04  -0.09    -0.05  -0.12  -0.01     0.13   0.09   0.03
   4   6     0.03   0.11   0.29    -0.31   0.06   0.00    -0.13  -0.01   0.02
   5   9    -0.02  -0.01  -0.40     0.28  -0.01  -0.01    -0.10  -0.50   0.12
   6   9     0.29  -0.32   0.26    -0.13   0.06  -0.48    -0.13   0.10  -0.30
   7   9    -0.24   0.39   0.30     0.07   0.17   0.34    -0.09   0.25   0.28
   8   8    -0.19   0.04  -0.08     0.18   0.07   0.15     0.03  -0.02   0.05
   9   1     0.06  -0.02  -0.07     0.03   0.08  -0.02    -0.04  -0.07  -0.00
  10   1     0.03   0.04  -0.01    -0.01   0.14   0.05     0.04  -0.20  -0.18
  11   1     0.08  -0.04  -0.11     0.11  -0.07  -0.20    -0.09   0.05   0.12
  12   1    -0.04  -0.01   0.03     0.03   0.05  -0.10     0.03  -0.05   0.17
                     13                     14                     15
                        a                      a                      a 
 Frequencies --   937.8277               991.0898              1023.2223
 Red. masses --     8.1982                 8.6192                12.5863
 Frc consts  --     0.0000                 0.0000                 0.0000
 IR Inten    --    32.5984               214.1824               494.6289
 Raman Activ --     0.0000                 0.0000                 0.0000
 Depolar     --     0.0000                 0.0000                 0.0000
 Atom AN      X      Y      Z        X      Y      Z        X      Y      Z
   1   6    -0.01  -0.07  -0.45    -0.24  -0.06  -0.02     0.07  -0.01  -0.00
   2   6    -0.30   0.19  -0.04    -0.02   0.11  -0.09    -0.09  -0.01   0.06
   3   1    -0.18   0.10   0.20     0.30  -0.03  -0.15     0.09  -0.00   0.06
   4   6    -0.07  -0.08   0.02    -0.03   0.55   0.08    -0.23   0.22  -0.76
   5   9     0.03   0.12  -0.03    -0.09  -0.32   0.07    -0.02  -0.14   0.07
   6   9     0.05  -0.01   0.05     0.02  -0.03   0.02     0.23  -0.09   0.32
   7   9     0.04  -0.03  -0.05     0.09  -0.13  -0.16    -0.04   0.07   0.15
   8   8     0.17  -0.05   0.40     0.08  -0.02   0.10     0.02  -0.00   0.07
   9   1     0.18  -0.37  -0.32     0.17  -0.07  -0.17    -0.05   0.03   0.05
  10   1     0.06  -0.13   0.06    -0.05   0.29   0.32     0.01  -0.07  -0.10
  11   1    -0.02   0.07   0.23     0.18  -0.06  -0.10    -0.03  -0.00  -0.01
  12   1     0.03  -0.01  -0.02     0.03  -0.01   0.10    -0.03   0.06  -0.22
                     16                     17                     18
                        a                      a                      a 
 Frequencies --  1043.8312              1105.9153              1131.2734
 Red. masses --     9.1450                 8.1280                 8.7821
 Frc consts  --     0.0000                 0.0000                 0.0000
 IR Inten    --   184.7752                20.2304               115.0389
 Raman Activ --     0.0000                 0.0000                 0.0000
 Depolar     --     0.0000                 0.0000                 0.0000
 Atom AN      X      Y      Z        X      Y      Z        X      Y      Z
   1   6    -0.32   0.11   0.08     0.02  -0.42  -0.04     0.09  -0.03   0.15
   2   6     0.15  -0.08  -0.19    -0.09   0.55   0.18    -0.14   0.16  -0.38
   3   1     0.02  -0.03  -0.09     0.00   0.11  -0.05    -0.08  -0.00  -0.26
   4   6     0.20  -0.42  -0.38     0.14  -0.26  -0.06    -0.51  -0.10   0.05
   5   9    -0.00   0.08   0.00    -0.02   0.04   0.00     0.06   0.13  -0.04
   6   9    -0.02   0.02   0.01    -0.03   0.03  -0.03     0.14  -0.03   0.12
   7   9    -0.13   0.18   0.24    -0.01   0.06   0.05     0.07  -0.06  -0.09
   8   8     0.08   0.01   0.02    -0.02  -0.08   0.05     0.22  -0.09   0.14
   9   1     0.14  -0.09  -0.15     0.03   0.17   0.03    -0.09   0.17   0.15
  10   1    -0.05   0.23   0.33    -0.05   0.18   0.00    -0.02   0.01  -0.11
  11   1     0.10   0.02   0.06     0.17  -0.22  -0.42    -0.03  -0.04  -0.11
  12   1     0.06  -0.08   0.30    -0.03   0.03  -0.17     0.10  -0.11   0.43
                     19                     20                     21
                        a                      a                      a 
 Frequencies --  1154.7819              1202.8094              1283.6282
 Red. masses --     9.5188                 6.2066                 3.6448
 Frc consts  --     0.0000                 0.0000                 0.0000
 IR Inten    --   184.1883                83.0545                12.1150
 Raman Activ --     0.0000                 0.0000                 0.0000
 Depolar     --     0.0000                 0.0000                 0.0000
 Atom AN      X      Y      Z        X      Y      Z        X      Y      Z
   1   6     0.03   0.13   0.16     0.07  -0.09   0.02    -0.04  -0.16   0.11
   2   6    -0.19  -0.02  -0.52    -0.19  -0.03  -0.02     0.08  -0.08  -0.41
   3   1     0.12  -0.06  -0.22    -0.65   0.06  -0.01     0.01   0.20   0.81
   4   6     0.33  -0.03   0.06     0.43   0.36  -0.14    -0.05   0.03   0.05
   5   9    -0.04  -0.06   0.01    -0.04  -0.17   0.04     0.00   0.00  -0.00
   6   9    -0.05   0.02  -0.08    -0.07  -0.00  -0.05     0.02  -0.00   0.01
   7   9    -0.07   0.05   0.07    -0.05   0.02   0.06    -0.01  -0.01  -0.01
   8   8     0.06  -0.13   0.41     0.09  -0.05  -0.00     0.00   0.08   0.01
   9   1    -0.07   0.08   0.10    -0.06   0.07   0.08    -0.02   0.15   0.07
  10   1    -0.01  -0.01  -0.07    -0.00  -0.00  -0.05    -0.04   0.16   0.06
  11   1    -0.08   0.04   0.04    -0.03  -0.03  -0.06     0.02  -0.07  -0.08
  12   1    -0.06   0.11  -0.44     0.06  -0.09   0.31    -0.00   0.02  -0.01
                     22                     23                     24
                        a                      a                      a 
 Frequencies --  1321.9780              1398.5453              1464.9670
 Red. masses --     6.4822                 3.1484                 1.5125
 Frc consts  --     0.0000                 0.0000                 0.0000
 IR Inten    --    30.3486                14.7553                 8.8805
 Raman Activ --     0.0000                 0.0000                 0.0000
 Depolar     --     0.0000                 0.0000                 0.0000
 Atom AN      X      Y      Z        X      Y      Z        X      Y      Z
   1   6     0.15   0.02  -0.02     0.12  -0.24  -0.34     0.03   0.16  -0.12
   2   6    -0.57  -0.01   0.08    -0.01   0.02   0.06     0.02   0.04  -0.05
   3   1     0.56  -0.05   0.16     0.03  -0.02  -0.08    -0.02   0.02   0.03
   4   6     0.28  -0.07  -0.04    -0.01  -0.02  -0.01    -0.01  -0.00  -0.00
   5   9    -0.03  -0.03   0.01     0.00   0.00  -0.00    -0.00   0.00   0.00
   6   9    -0.03   0.01  -0.04     0.00  -0.00   0.00     0.00  -0.00   0.00
   7   9    -0.02   0.03   0.03     0.00  -0.00  -0.00    -0.00   0.00   0.00
   8   8     0.09   0.08  -0.15    -0.00  -0.01   0.00     0.00  -0.00   0.01
   9   1    -0.08  -0.03   0.07    -0.26   0.40   0.24    -0.50  -0.26   0.27
  10   1     0.02  -0.07  -0.10     0.03   0.31   0.34     0.19  -0.33   0.54
  11   1    -0.10   0.01  -0.02    -0.14   0.13   0.51     0.18  -0.07  -0.28
  12   1     0.07  -0.08   0.35    -0.00  -0.00  -0.02    -0.00  -0.00  -0.02
                     25                     26                     27
                        a                      a                      a 
 Frequencies --  1468.8712              2867.6816              3049.0500
 Red. masses --     1.6159                 1.7270                 1.7242
 Frc consts  --     0.0000                 0.0000                 0.0000
 IR Inten    --    10.9036                46.3033                11.8161
 Raman Activ --     0.0000                 0.0000                 0.0000
 Depolar     --     0.0000                 0.0000                 0.0000
 Atom AN      X      Y      Z        X      Y      Z        X      Y      Z
   1   6     0.21  -0.00   0.04    -0.00  -0.00   0.00     0.02   0.24  -0.07
   2   6     0.08   0.00   0.02     0.03   0.25  -0.05     0.00   0.01  -0.00
   3   1    -0.03   0.00  -0.02    -0.10  -0.93   0.23    -0.00  -0.03   0.01
   4   6    -0.03  -0.01  -0.00     0.00   0.01  -0.00    -0.00   0.00   0.00
   5   9     0.00   0.01  -0.00    -0.00  -0.00   0.00    -0.00  -0.00  -0.00
   6   9     0.00   0.00   0.00     0.00  -0.00   0.00    -0.00  -0.00  -0.00
   7   9     0.00  -0.00  -0.00     0.00  -0.00  -0.00     0.00  -0.00  -0.00
   8   8    -0.01  -0.00   0.00    -0.00   0.01  -0.01     0.00  -0.00  -0.00
   9   1    -0.13  -0.45   0.01    -0.01   0.00  -0.01     0.01   0.03  -0.01
  10   1    -0.06   0.46   0.06     0.01  -0.00  -0.00     0.01   0.03  -0.01
  11   1    -0.67   0.00  -0.24     0.00   0.03  -0.01    -0.09  -0.93   0.25
  12   1    -0.01   0.02  -0.02    -0.00  -0.00   0.00    -0.00   0.00   0.00
                     28                     29                     30
                        a                      a                      a 
 Frequencies --  3057.4718              3062.2438              3451.0429
 Red. masses --     1.7769                 1.6810                 1.8742
 Frc consts  --     0.0000                 0.0000                 0.0000
 IR Inten    --    11.1094                 9.2277               130.0228
 Raman Activ --     0.0000                 0.0000                 0.0000
 Depolar     --     0.0000                 0.0000                 0.0000
 Atom AN      X      Y      Z        X      Y      Z        X      Y      Z
   1   6    -0.17   0.04  -0.20     0.23   0.06  -0.08     0.00  -0.00   0.00
   2   6    -0.00   0.00  -0.01     0.01   0.00  -0.00     0.00  -0.00   0.00
   3   1    -0.00  -0.01   0.00    -0.00  -0.01   0.00    -0.00   0.00  -0.00
   4   6     0.00  -0.00  -0.00    -0.00  -0.00  -0.00     0.00  -0.00   0.00
   5   9     0.00   0.00  -0.00    -0.00   0.00   0.00    -0.00  -0.00   0.00
   6   9     0.00   0.00   0.00    -0.00  -0.00   0.00    -0.00   0.00  -0.00
   7   9    -0.00  -0.00   0.00     0.00  -0.00  -0.00    -0.00   0.00   0.00
   8   8     0.00  -0.00  -0.00    -0.00   0.00   0.00     0.24   0.02  -0.03
   9   1     0.53  -0.18   0.78     0.09  -0.01   0.08    -0.00   0.00  -0.00
  10   1     0.09   0.03  -0.05    -0.92  -0.19   0.19    -0.00   0.00   0.00
  11   1    -0.02   0.01  -0.02     0.03   0.00  -0.00     0.00   0.00   0.00
  12   1    -0.00  -0.00   0.00     0.00  -0.00  -0.00    -0.96  -0.07   0.10
