      -----------------------------------------------------------      
     |                   =====================                   |     
     |                           x T B                           |     
     |                   =====================                   |     
     |                         S. Grimme                         |     
     |          Mulliken Center for Theoretical Chemistry        |     
     |                    University of Bonn                     |     
      -----------------------------------------------------------      

   * xtb version 6.7.1 (edcfbbe) compiled by 'albert@albert-system' on 2024-07-22

   xtb is free software: you can redistribute it and/or modify it under
   the terms of the GNU Lesser General Public License as published by
   the Free Software Foundation, either version 3 of the License, or
   (at your option) any later version.
   
   xtb is distributed in the hope that it will be useful,
   but WITHOUT ANY WARRANTY; without even the implied warranty of
   MERCHANTABILITY or FITNESS FOR A PARTICULAR PURPOSE.  See the
   GNU Lesser General Public License for more details.
   
   Cite this work as:
   * C. Bannwarth, E. Caldeweyher, S. Ehlert, A. Hansen, P. Pracht,
     J. Seibert, S. Spicher, S. Grimme, WIREs Comput. Mol. Sci., 2020, 11,
     e01493. DOI: 10.1002/wcms.1493
   
   for GFN2-xTB:
   * C. Bannwarth, S. Ehlert and S. Grimme., J. Chem. Theory Comput., 2019,
     15, 1652-1671. DOI: 10.1021/acs.jctc.8b01176
   for GFN1-xTB:
   * S. Grimme, C. Bannwarth, P. Shushkov, J. Chem. Theory Comput., 2017,
     13, 1989-2009. DOI: 10.1021/acs.jctc.7b00118
   for GFN0-xTB:
   * P. Pracht, E. Caldeweyher, S. Ehlert, S. Grimme, ChemRxiv, 2019, preprint.
     DOI: 10.26434/chemrxiv.8326202.v1
   for GFN-FF:
   * S. Spicher and S. Grimme, Angew. Chem. Int. Ed., 2020, 59, 15665-15673.
     DOI: 10.1002/anie.202004239
   
   for ALPB and GBSA implicit solvation:
   * S. Ehlert, M. Stahn, S. Spicher, S. Grimme, J. Chem. Theory Comput.,
     2021, 17, 4250-4261. DOI: 10.1021/acs.jctc.1c00471
   
   for ddCOSMO and CPCM-X implicit solvation:
   * M. Stahn, S. Ehlert, S. Grimme, J. Phys. Chem. A,
     2023, XX, XXXX-XXXX. DOI: 10.1021/acs.jpca.3c04382
   
   for DFT-D4:
   * E. Caldeweyher, C. Bannwarth and S. Grimme, J. Chem. Phys., 2017,
     147, 034112. DOI: 10.1063/1.4993215
   * E. Caldeweyher, S. Ehlert, A. Hansen, H. Neugebauer, S. Spicher,
     C. Bannwarth and S. Grimme, J. Chem. Phys., 2019, 150, 154122.
     DOI: 10.1063/1.5090222
   * E. Caldeweyher, J.-M. Mewes, S. Ehlert and S. Grimme, Phys. Chem. Chem. Phys.
     2020, 22, 8499-8512. DOI: 10.1039/D0CP00502A
   
   for sTDA-xTB:
   * S. Grimme and C. Bannwarth, J. Chem. Phys., 2016, 145, 054103.
     DOI: 10.1063/1.4959605
   
   in the mass-spec context:
   * V. Asgeirsson, C. Bauer and S. Grimme, Chem. Sci., 2017, 8, 4879.
     DOI: 10.1039/c7sc00601b
   * J. Koopman and S. Grimme, ACS Omega 2019, 4, 12, 15120-15133.
     DOI: 10.1021/acsomega.9b02011
   
   for metadynamics refer to:
   * S. Grimme, J. Chem. Theory Comput., 2019, 155, 2847-2862
     DOI: 10.1021/acs.jctc.9b00143
   
   for SPH calculations refer to:
   * S. Spicher and S. Grimme, J. Chem. Theory Comput., 2021, 17, 1701-1714
     DOI: 10.1021/acs.jctc.0c01306
   
   for ONIOM refer to:
   * C. Plett, A. Katbashev, S. Ehlert, S. Grimme, M. Bursch,
     Phys. Chem. Chem. Phys., 2023, 25, 17860-17868. DOI: 10.1039/D3CP02178E
   
   for DIPRO refer to:
   * J. Kohn, N. Gildemeister, S. Grimme, D. Fazzi, A. Hansen,
     J. Chem. Phys., 2023, just accepted.
   
   for PTB refer to:
   * S. Grimme, M. Mueller, A. Hansen, J. Chem. Phys., 2023, 158, 124111.
     DOI: 10.1063/5.0137838
   
   with help from (in alphabetical order)
   P. Atkinson, C. Bannwarth, F. Bohle, G. Brandenburg, E. Caldeweyher
   M. Checinski, S. Dohm, S. Ehlert, S. Ehrlich, I. Gerasimov, C. Hölzer
   A. Katbashev, J. Kohn, J. Koopman, C. Lavigne, S. Lehtola, F. März, M. Müller,
   F. Musil, H. Neugebauer, J. Pisarek, C. Plett, P. Pracht, F. Pultar,
   J. Seibert, P. Shushkov, S. Spicher, M. Stahn, M. Steiner, T. Strunk,
   J. Stückrath, T. Rose, and J. Unsleber
   
 * started run on 2025/04/06 at 18:00:45.108     
   ID    Z sym.   atoms
    1    6 C      1, 2, 4, 6, 8, 10
    2    1 H      3, 5, 7, 9, 11, 18-24
    3    8 O      12-17

           -------------------------------------------------
          |                Calculation Setup                |
           -------------------------------------------------

          program call               : /srv/scratch/z5358697/.xtb/bin/xtb solv.coord --gfn2 --sp --chrg 0 --norestart --parallel 1 --alpb water reference -I xtb_sp-xcontrol-inp
          hostname                   : k155
          coordinate file            : solv.coord
          omp threads                :                     1


           -------------------------------------------------
          |                 G F N 2 - x T B                 |
           -------------------------------------------------

        Reference                      10.1021/acs.jctc.8b01176
      * Hamiltonian:
        H0-scaling (s, p, d)           1.850000    2.230000    2.230000
        zeta-weighting                 0.500000
      * Dispersion:
        s8                             2.700000
        a1                             0.520000
        a2                             5.000000
        s9                             5.000000
      * Repulsion:
        kExp                           1.500000    1.000000
        rExp                           1.000000
      * Coulomb:
        alpha                          2.000000
        third order                    shell-resolved
        anisotropic                    true
        a3                             3.000000
        a5                             4.000000
        cn-shift                       1.200000
        cn-exp                         4.000000
        max-rad                        5.000000

      * Solvation model:               ALPB
        Solvent                        water
        Parameter file                 internal GFN2-xTB/ALPB
        Dielectric constant                8.0200E+01
        Reference state                gsolv=reference [X=1]
        Free energy shift                  2.8945E-03 Eh       1.8164E+00 kcal/mol
        Temperature                        2.9815E+02 K
        Density                            1.0000E+00 kg/L
        Solvent mass                       1.8000E+01 g/mol
        Interaction kernel             P16
        Born radius scaling (c1)           1.4744E+00
        Born radii integrator          GBOBC
        Born offset                        0.0000E+00 a0       0.0000E+00 AA
        H-bond correction              true
        Ion screening                  false
        Surface tension                    1.0000E-05 Eh       1.5569E+01 dyn/cm
        Grid points                               974 per atom

          ...................................................
          :                      SETUP                      :
          :.................................................:
          :  # basis functions                  60          :
          :  # atomic orbitals                  60          :
          :  # shells                           36          :
          :  # electrons                        72          :
          :  max. iterations                   250          :
          :  Hamiltonian                  GFN2-xTB          :
          :  restarted?                      false          :
          :  GBSA solvation                   true          :
          :  PC potential                    false          :
          :  electronic temp.          300.0000000     K    :
          :  accuracy                    1.0000000          :
          :  -> integral cutoff          0.2500000E+02      :
          :  -> integral neglect         0.1000000E-07      :
          :  -> SCF convergence          0.1000000E-05 Eh   :
          :  -> wf. convergence          0.1000000E-03 e    :
          :  Broyden damping             0.4000000          :
          :  net charge                          0          :
          :  unpaired electrons                  0          :
          ...................................................

 iter      E             dE          RMSdq      gap      omega  full diag
   1    -43.6530559 -0.436531E+02  0.481E+00   10.24       0.0  T
   2    -43.6839449 -0.308890E-01  0.260E+00   10.05       1.0  T
   3    -43.6859501 -0.200525E-02  0.593E-01   10.11       1.0  T
   4    -43.6863298 -0.379675E-03  0.177E-01   10.11       1.0  T
   5    -43.6863843 -0.544747E-04  0.674E-02   10.12       1.0  T
   6    -43.6864005 -0.162007E-04  0.210E-02   10.13       1.0  T
   7    -43.6864012 -0.759345E-06  0.566E-03   10.12       3.6  T
   8    -43.6864015 -0.222578E-06  0.208E-03   10.13       9.8  T
   9    -43.6864015 -0.923450E-08  0.907E-04   10.13      22.5  T
  10    -43.6864015 -0.396080E-08  0.307E-04   10.13      66.5  T

   *** convergence criteria satisfied after 10 iterations ***

         #    Occupation            Energy/Eh            Energy/eV
      -------------------------------------------------------------
         1        2.0000           -0.7254516             -19.7405
       ...           ...                  ...                  ...
        30        2.0000           -0.4545136             -12.3679
        31        2.0000           -0.4496595             -12.2359
        32        2.0000           -0.4443116             -12.0903
        33        2.0000           -0.4308081             -11.7229
        34        2.0000           -0.4224184             -11.4946
        35        2.0000           -0.4177771             -11.3683
        36        2.0000           -0.3983300             -10.8391 (HOMO)
        37                         -0.0262303              -0.7138 (LUMO)
        38                         -0.0071242              -0.1939
        39                          0.0090660               0.2467
        40                          0.0358282               0.9749
        41                          0.0435072               1.1839
       ...                                ...                  ...
        60                          0.3133452               8.5266
      -------------------------------------------------------------
                  HL-Gap            0.3720997 Eh           10.1253 eV
             Fermi-level           -0.2122801 Eh           -5.7764 eV

 SCC (total)                   0 d,  0 h,  0 min,  0.021 sec
 SCC setup                      ...        0 min,  0.001 sec (  7.114%)
 Dispersion                     ...        0 min,  0.000 sec (  0.673%)
 classical contributions        ...        0 min,  0.000 sec (  0.119%)
 integral evaluation            ...        0 min,  0.003 sec ( 12.722%)
 iterations                     ...        0 min,  0.009 sec ( 43.412%)
 molecular gradient             ...        0 min,  0.007 sec ( 35.245%)
 printout                       ...        0 min,  0.000 sec (  0.648%)

         :::::::::::::::::::::::::::::::::::::::::::::::::::::
         ::                     SUMMARY                     ::
         :::::::::::::::::::::::::::::::::::::::::::::::::::::
         :: total energy             -43.383968462330 Eh    ::
         :: total w/o Gsasa/hb       -43.364711762697 Eh    ::
         :: gradient norm              0.000148108321 Eh/a0 ::
         :: HOMO-LUMO gap             10.125347986959 eV    ::
         ::.................................................::
         :: SCC energy               -43.686204453303 Eh    ::
         :: -> isotropic ES            0.169869879256 Eh    ::
         :: -> anisotropic ES         -0.010127843655 Eh    ::
         :: -> anisotropic XC         -0.009944502825 Eh    ::
         :: -> dispersion             -0.020176841707 Eh    ::
         :: -> Gsolv                  -0.035841241923 Eh    ::
         ::    -> Gelec               -0.016584542290 Eh    ::
         ::    -> Gsasa                0.004628175185 Eh    ::
         ::    -> Ghb                 -0.026779423978 Eh    ::
         ::    -> Gshift               0.002894549160 Eh    ::
         :: repulsion energy           0.302235990973 Eh    ::
         :: add. restraining           0.000000000000 Eh    ::
         :: total charge              -0.000000000000 e     ::
         :::::::::::::::::::::::::::::::::::::::::::::::::::::

           -------------------------------------------------
          |                Property Printout                |
           -------------------------------------------------

    * Orbital Energies and Occupations

         #    Occupation            Energy/Eh            Energy/eV
      -------------------------------------------------------------
         1        2.0000           -0.7254516             -19.7405
       ...           ...                  ...                  ...
        24        2.0000           -0.5157428             -14.0341
        25        2.0000           -0.5138530             -13.9827
        26        2.0000           -0.5084333             -13.8352
        27        2.0000           -0.4930867             -13.4176
        28        2.0000           -0.4806027             -13.0779
        29        2.0000           -0.4607840             -12.5386
        30        2.0000           -0.4545136             -12.3679
        31        2.0000           -0.4496595             -12.2359
        32        2.0000           -0.4443116             -12.0903
        33        2.0000           -0.4308081             -11.7229
        34        2.0000           -0.4224184             -11.4946
        35        2.0000           -0.4177771             -11.3683
        36        2.0000           -0.3983300             -10.8391 (HOMO)
        37                         -0.0262303              -0.7138 (LUMO)
        38                         -0.0071242              -0.1939
        39                          0.0090660               0.2467
        40                          0.0358282               0.9749
        41                          0.0435072               1.1839
        42                          0.0614751               1.6728
        43                          0.0743462               2.0231
        44                          0.0827865               2.2527
        45                          0.0933931               2.5414
        46                          0.1047263               2.8497
        47                          0.1223775               3.3301
       ...                                ...                  ...
        60                          0.3133452               8.5266
      -------------------------------------------------------------
                  HL-Gap            0.3720997 Eh           10.1253 eV
             Fermi-level           -0.2122801 Eh           -5.7764 eV

     #   Z          covCN         q      C6AA      α(0)
     1   6 C        3.673     0.064    19.741     6.368
     2   6 C        3.734     0.081    19.310     6.271
     3   1 H        0.924     0.061     2.190     2.315
     4   6 C        3.726     0.099    19.047     6.231
     5   1 H        0.923     0.057     2.240     2.340
     6   6 C        3.728     0.102    18.993     6.222
     7   1 H        0.923     0.057     2.238     2.340
     8   6 C        3.725     0.094    19.122     6.244
     9   1 H        0.923     0.038     2.474     2.460
    10   6 C        3.613     0.241    17.287     6.001
    11   1 H        0.922     0.020     2.729     2.584
    12   8 O        1.699    -0.369    20.241     6.074
    13   8 O        1.657    -0.503    22.958     6.468
    14   8 O        1.656    -0.502    22.931     6.464
    15   8 O        1.656    -0.504    22.969     6.470
    16   8 O        1.656    -0.513    23.172     6.498
    17   8 O        1.655    -0.492    22.721     6.435
    18   1 H        0.924     0.064     2.148     2.292
    19   1 H        0.924     0.038     2.474     2.460
    20   1 H        0.804     0.392     0.500     1.110
    21   1 H        0.804     0.368     0.547     1.162
    22   1 H        0.805     0.378     0.526     1.140
    23   1 H        0.804     0.375     0.533     1.147
    24   1 H        0.804     0.353     0.582     1.198

 Mol. C6AA /au·bohr⁶  :       4728.858047
 Mol. C8AA /au·bohr⁸  :     100811.704580
 Mol. α(0) /au        :         98.294153


Wiberg/Mayer (AO) data.
largest (>0.10) Wiberg bond orders for each atom

 ---------------------------------------------------------------------------
     #   Z sym  total        # sym  WBO       # sym  WBO       # sym  WBO
 ---------------------------------------------------------------------------
     1   6 C    3.957 --    17 O    1.013    18 H    0.971    19 H    0.967
                             2 C    0.963
     2   6 C    3.939 --     4 C    0.973     1 C    0.963     3 H    0.959
                            12 O    0.956
     3   1 H    0.996 --     2 C    0.959
     4   6 C    3.958 --    16 O    0.995     6 C    0.974     2 C    0.973
                             5 H    0.954
     5   1 H    0.997 --     4 C    0.954
     6   6 C    3.958 --    15 O    0.998     4 C    0.974     8 C    0.968
                             7 H    0.956
     7   1 H    0.997 --     6 C    0.956
     8   6 C    3.960 --    14 O    1.000     6 C    0.968    10 C    0.958
                             9 H    0.952
     9   1 H    0.999 --     8 C    0.952
    10   6 C    3.927 --    13 O    1.009     8 C    0.958    12 O    0.958
                            11 H    0.946
    11   1 H    1.000 --    10 C    0.946
    12   8 O    2.054 --    10 C    0.958     2 C    0.956
    13   8 O    1.929 --    10 C    1.009    20 H    0.828
    14   8 O    1.919 --     8 C    1.000    21 H    0.846
    15   8 O    1.926 --     6 C    0.998    22 H    0.841
    16   8 O    1.913 --     4 C    0.995    23 H    0.844
    17   8 O    1.932 --     1 C    1.013    24 H    0.849
    18   1 H    0.996 --     1 C    0.971
    19   1 H    0.999 --     1 C    0.967
    20   1 H    0.846 --    13 O    0.828
    21   1 H    0.864 --    14 O    0.846
    22   1 H    0.857 --    15 O    0.841
    23   1 H    0.859 --    16 O    0.844
    24   1 H    0.876 --    17 O    0.849
 ---------------------------------------------------------------------------

Topologies differ in total number of bonds
Writing topology from bond orders to xtbtopo.mol

molecular dipole:
                 x           y           z       tot (Debye)
 q only:        0.215      -0.062       0.165
   full:        0.339      -0.156       0.296       1.211
molecular quadrupole (traceless):
                xx          xy          yy          xz          yz          zz
 q only:       -5.210      -3.887       3.033      -7.453      -5.003       2.177
  q+dip:       -8.708      -2.858       4.081     -10.466      -5.211       4.627
   full:       -7.924      -3.504       4.032     -10.257      -5.877       3.892


           -------------------------------------------------
          | TOTAL ENERGY              -43.383968462330 Eh   |
          | GRADIENT NORM               0.000148108321 Eh/α |
          | HOMO-LUMO GAP              10.125347986959 eV   |
           -------------------------------------------------

------------------------------------------------------------------------
 * finished run on 2025/04/06 at 18:00:45.158     
------------------------------------------------------------------------
 total:
 * wall-time:     0 d,  0 h,  0 min,  0.050 sec
 *  cpu-time:     0 d,  0 h,  0 min,  0.028 sec
 * ratio c/w:     0.573 speedup
 SCF:
 * wall-time:     0 d,  0 h,  0 min,  0.021 sec
 *  cpu-time:     0 d,  0 h,  0 min,  0.020 sec
 * ratio c/w:     0.953 speedup

