16
 energy: -19.879999777840 gnorm: 0.029758098628 xtb: 6.7.1 (edcfbbe)
C           -1.43808346958292        0.76672420616132       -0.14242978862702
C           -1.27896767121772       -0.73362062782060       -0.46645000730827
C           -0.13736676702455       -1.18593349757310        0.45180005338115
C            0.84155013480837       -0.01983188145310        0.39983700324747
C           -0.05979422668504        1.22483675606432        0.41096532718709
O            1.57213143474448       -0.13506667361041       -0.84867878553332
H           -2.20948339720605        0.90468133399345        0.62214678930629
H           -1.74709502042549        1.34378875655221       -1.01867544336620
H           -2.20132252297295       -1.29838985585029       -0.30279141474734
H           -0.98917909279664       -0.87264354120682       -1.51344875833679
H           -0.49963489287815       -1.29030053539981        1.48148355354836
H            0.32785546061579       -2.13136086364588        0.15607974169611
H            1.55696365111173       -0.02569482969487        1.23255665924028
H           -0.15576452674185        1.59505347358795        1.43713387182205
H            0.39164142542351        2.02921322707599       -0.17963708807535
H            2.08069483489139        0.67919764480223       -0.95663009469169
16
 energy: -19.881162213595 gnorm: 0.014601854286 xtb: 6.7.1 (edcfbbe)
C           -1.43590212016315        0.76380535416068       -0.13322738934049
C           -1.27544933756536       -0.72736176802839       -0.45975776402196
C           -0.14355851255112       -1.18467412894755        0.45604429717339
C            0.83654099509094       -0.01912922319467        0.38732341609868
C           -0.06614559762953        1.22278678505525        0.40698006856082
O            1.57832432171150       -0.13823222341763       -0.83520271430929
H           -2.20292654924730        0.90124703582032        0.63041939015118
H           -1.73225126058681        1.33461871106594       -1.01250278869153
H           -2.19446159363253       -1.28892686905233       -0.29479237048717
H           -0.97172222384292       -0.85802168347870       -1.50014372551099
H           -0.50377241569525       -1.29658561038339        1.48153004083379
H            0.31861489793214       -2.11791949160926        0.13599345742566
H            1.55118375746368       -0.02457819004811        1.21954557326178
H           -0.16190406384929        1.59089891997795        1.42955468403789
H            0.36114732026244        2.02400965826299       -0.19777835571498
H            2.09642773636647        0.66871581579948       -0.95072420072396
16
 energy: -19.881405352861 gnorm: 0.005266976391 xtb: 6.7.1 (edcfbbe)
C           -1.43966865688550        0.76324290994142       -0.12851225106857
C           -1.27882764681940       -0.72470483058547       -0.45644829399583
C           -0.14448702168646       -1.18295211788077        0.45368532121135
C            0.83770363035758       -0.01650973775463        0.38450781802371
C           -0.06897477985389        1.22316317764471        0.40186142137782
O            1.58015791201622       -0.14189747640523       -0.82129302397012
H           -2.20395446827319        0.89891623663937        0.63548631258556
H           -1.73876376035437        1.32908926965396       -1.00803747967101
H           -2.19580303157924       -1.28708148419055       -0.29491252165779
H           -0.96858338660261       -0.84870506351528       -1.49374862017505
H           -0.49555180461848       -1.30128995134069        1.47837982801842
H            0.31904092667878       -2.10809802870396        0.11897799404565
H            1.54425802355126       -0.01987920548167        1.22609870131832
H           -0.15460684836699        1.59180653567360        1.42279139255637
H            0.35164991855063        2.01957392678271       -0.21010535659605
H            2.11055634794956        0.65597893150508       -0.94546962325996
16
 energy: -19.881469887003 gnorm: 0.001676655350 xtb: 6.7.1 (edcfbbe)
C           -1.44307615812068        0.76358669920259       -0.12498237149980
C           -1.28036994077345       -0.72417054366620       -0.45616642891274
C           -0.14379680717728       -1.18488230727113        0.45101602451155
C            0.83777715874058       -0.01524327959793        0.38235048298780
C           -0.06987243949678        1.22618062368168        0.39721233145809
O            1.58407827976689       -0.14425167355772       -0.81394889526620
H           -2.20238360623947        0.89811604593196        0.64425244954468
H           -1.74959114703006        1.33014571856558       -1.00175542580328
H           -2.19609383963008       -1.28862679394939       -0.29612772440046
H           -0.97029336904611       -0.84488858266231       -1.49384693835547
H           -0.49050806332204       -1.30864895736530        1.47591535797838
H            0.32160380974696       -2.10667625444159        0.10982478154568
H            1.53419637940346       -0.01583187303712        1.23451090205396
H           -0.15087870332519        1.60007406312357        1.41655370888605
H            0.34919094294092        2.01883860083335       -0.22057855174328
H            2.12416285762623        0.64693160619255       -0.94096808424215
16
 energy: -19.881506929115 gnorm: 0.002781227560 xtb: 6.7.1 (edcfbbe)
C           -1.44782054917260        0.76297842640083       -0.11998036429398
C           -1.28323362191711       -0.72387654518105       -0.45747101178878
C           -0.14315631663368       -1.18552227847348        0.44651737662693
C            0.83964026471532       -0.01433121382623        0.38297500305906
C           -0.06986795051297        1.22880507909327        0.39031295982498
O            1.59240162478791       -0.14531554876500       -0.80571345370414
H           -2.19954463192136        0.89182250347601        0.65879603861902
H           -1.76791682489073        1.33199777830492       -0.99146706022837
H           -2.19850888337315       -1.29050345815238       -0.29846683893120
H           -0.97613267789214       -0.83994151662168       -1.49723794477888
H           -0.48779586639677       -1.31662018771339        1.47157310672118
H            0.32415595760383       -2.10494054141900        0.10026754598073
H            1.52503291400737       -0.01195949258953        1.24591925385842
H           -0.14507815802173        1.61516585441472        1.40621210021585
H            0.34873287653471        2.01417115128849       -0.23829779090797
H            2.14323719714701        0.63872308174608       -0.93067730153004
16
 energy: -19.881528535973 gnorm: 0.002331129290 xtb: 6.7.1 (edcfbbe)
C           -1.44928154156924        0.76243925497997       -0.11728006880800
C           -1.28333681346831       -0.72338051860459       -0.45860520078113
C           -0.14331177072707       -1.18611178091023        0.44470672771520
C            0.83880098250434       -0.01428695988303        0.38401968213759
C           -0.06982452660290        1.23009780705430        0.38712987009236
O            1.59548134171827       -0.14551916814022       -0.80288270268354
H           -2.19694895945203        0.88723247654544        0.66634792399275
H           -1.77568489409850        1.33359319249809       -0.98522128388988
H           -2.19822139422610       -1.29119569020660       -0.30033189751235
H           -0.97698265276849       -0.83739125289801       -1.49904707062458
H           -0.48867905626287       -1.31927702374993        1.46948983997666
H            0.32474222643034       -2.10510461058368        0.09772142499030
H            1.52155837530248       -0.01165542511579        1.24859628311735
H           -0.14214320196498        1.62380359061136        1.40064161368527
H            0.34837273256072        2.01081682818983       -0.24795855454482
H            2.14960450668824        0.63659237219567       -0.92406496812036
16
 energy: -19.881577661162 gnorm: 0.001439606303 xtb: 6.7.1 (edcfbbe)
C           -1.45236069566893        0.76062010183414       -0.11039991073960
C           -1.28280097098466       -0.72182306300159       -0.46198008937466
C           -0.14463095390519       -1.18618704561603        0.44196744047084
C            0.83693526028357       -0.01446212303060        0.38684331248948
C           -0.06969099173478        1.23177749753280        0.38048531802855
O            1.60119190373485       -0.14640011488189       -0.79771023471505
H           -2.19082481119180        0.87456881608479        0.68392017589797
H           -1.79277441888782        1.33683486898971       -0.96970164314668
H           -2.19702371103745       -1.29240523792396       -0.30818630576505
H           -0.97485534722109       -0.82965287054674       -1.50290387309653
H           -0.49299757068579       -1.32237519797855        1.46571892218918
H            0.32493409987744       -2.10441392551082        0.09469711043672
H            1.51587216777997       -0.01162683511933        1.25291984956449
H           -0.13481789241712        1.64276950847784        1.38790364497129
H            0.34705337392880        2.00080185273879       -0.27016835578845
H            2.16093591219391        0.63262685993402       -0.91014374267967
16
 energy: -19.881686123150 gnorm: 0.005124461947 xtb: 6.7.1 (edcfbbe)
C           -1.46248477047106        0.75508948395248       -0.08813426198874
C           -1.28088572075593       -0.71642919492375       -0.47200778002820
C           -0.14890966240124       -1.18675798069536        0.43438234518824
C            0.83101399215350       -0.01453855105857        0.39398210784840
C           -0.06936845315527        1.23717778085078        0.35876737792248
O            1.61823677929748       -0.15171392060540       -0.78025348174164
H           -2.17111566732595        0.83591597632324        0.73940590255263
H           -1.84703297311144        1.34576517681207       -0.92038928462047
H           -2.19251710070901       -1.29653213341427       -0.33629331679789
H           -0.96336274337897       -0.80172441035756       -1.51272840488452
H           -0.50583735137358       -1.33032305684857        1.45464605872204
H            0.32481247649766       -2.10237992414251        0.08559348551221
H            1.49735477811041       -0.01005834302928        1.26692696639822
H           -0.11166487767829        1.69825597961868        1.34746119622899
H            0.34039844788568        1.97135524200671       -0.33838865995593
H            2.19550820047991        0.61755096749389       -0.86970863161300
16
 energy: -19.881753071236 gnorm: 0.005738922324 xtb: 6.7.1 (edcfbbe)
C           -1.46774130802040        0.75213730532804       -0.07655507761111
C           -1.28120738903472       -0.71355761193880       -0.47649811072329
C           -0.15079995198257       -1.18685989926810        0.42990313321165
C            0.82887001284396       -0.01406220319596        0.39646506860762
C           -0.06952878694476        1.23936130784420        0.34627998430249
O            1.62917339587369       -0.15501452932590       -0.76964988134543
H           -2.15895857905524        0.81793042106122        0.76737496142731
H           -1.87502145552019        1.34890852264737       -0.89379761948045
H           -2.19129808236416       -1.29828697328090       -0.35042292601995
H           -0.95895215552030       -0.78610066142674       -1.51676401826750
H           -0.51061128164400       -1.33420105035345        1.44866287474418
H            0.32476388791385       -2.10092019080055        0.07946543781707
H            1.48642934113282       -0.00739940759816        1.27578494343623
H           -0.10066131682018        1.72381061602752        1.32417973723927
H            0.33479857372072        1.95601924890190       -0.37212649783086
H            2.21489044948538        0.60888819736089       -0.84904039076440
16
 energy: -19.881880016753 gnorm: 0.004776696746 xtb: 6.7.1 (edcfbbe)
C           -1.47590677097513        0.74779451911203       -0.05843896938055
C           -1.28323293599141       -0.70876318552511       -0.48224017391171
C           -0.15342242928842       -1.18689435534459        0.42229958690536
C            0.82614456268617       -0.01264780613248        0.39907825939704
C           -0.07007854670745        1.24232031973402        0.32591553939875
O            1.64780211863341       -0.16000985490797       -0.75097825352790
H           -2.13882149650618        0.79253410545640        0.80881335793789
H           -1.91672901699834        1.35122412419891       -0.85236893565953
H           -2.19038398637473       -1.30036138426187       -0.37049281583614
H           -0.95430844431602       -0.76095917365065       -1.52136847903242
H           -0.51556296488730       -1.34105499598631        1.43903008441532
H            0.32461568396934       -2.09773243974515        0.06699446324259
H            1.46769340669949       -0.00185125456099        1.29091501864535
H           -0.08319452897210        1.76018307759905        1.28606218799825
H            0.32357557645067        1.93138845347234       -0.42391623354173
H            2.24595512664192        0.59548294252495       -0.81604301830772
16
 energy: -19.882036924322 gnorm: 0.004800341989 xtb: 6.7.1 (edcfbbe)
C           -1.48832990293828        0.74182474655665       -0.03087986186013
C           -1.28806044442258       -0.70150556257216       -0.48966966020002
C           -0.15664571587234       -1.18741200957997        0.40914955320433
C            0.82243215189529       -0.01010819433510        0.40288307116328
C           -0.07109376700328        1.24657861945155        0.29396271617061
O            1.67821772938104       -0.16662019492263       -0.71906401289552
H           -2.10699284379551        0.75663495749964        0.87053484512961
H           -1.97798368394042        1.35364602820849       -0.78968591343664
H           -2.19030687364677       -1.30287017078443       -0.39657442281996
H           -0.95244723783914       -0.72369561280181       -1.52753453131212
H           -0.51995349804075       -1.35556353647736        1.42301057288674
H            0.32553347774219       -2.09156467368978        0.04269575596763
H            1.43637898752752        0.00736143042416        1.31603160566991
H           -0.05572588193994        1.81616373555042        1.22553319290433
H            0.30497776174036        1.89110154273090       -0.50511804789760
H            2.29414509521653        0.57668198672399       -0.76201324393162
16
 energy: -19.882185934184 gnorm: 0.004037611090 xtb: 6.7.1 (edcfbbe)
C           -1.49825774200246        0.73708412366721       -0.00638660057392
C           -1.29749664212652       -0.69511022370486       -0.49235162758044
C           -0.15739504411584       -1.18879496345817        0.39248174789473
C            0.81953032449929       -0.00665851648794        0.40547307468660
C           -0.07271676948425        1.24929225910353        0.26043258780478
O            1.71327426340162       -0.17006555054654       -0.68307848969609
H           -2.07227647863918        0.73099761089631        0.92255039843371
H           -2.02871707630292        1.35293235677385       -0.73144882613066
H           -2.19481524091950       -1.30290590577344       -0.40808569163870
H           -0.96522025913245       -0.69209847915036       -1.53023690318687
H           -0.51639774119304       -1.37598265320132        1.40439594292933
H            0.32917017845925       -2.08387629334370        0.00921366210362
H            1.40157691870533        0.01849303559275        1.34201755840648
H           -0.03296003742498        1.86472192931500        1.16027079510217
H            0.28414978527695        1.84941653345260       -0.57984528685269
H            2.34269691506263        0.56320782884764       -0.70214072295918
16
 energy: -19.882293126389 gnorm: 0.004116111524 xtb: 6.7.1 (edcfbbe)
C           -1.50217912373638        0.73515146014922        0.00842396723088
C           -1.30539967295339       -0.69191550498656       -0.49247988331323
C           -0.15684101110770       -1.19038181811240        0.37969817907619
C            0.81695173488923       -0.00400991528491        0.40838102811524
C           -0.07334773713548        1.25050062089622        0.23772383910691
O            1.73724547425280       -0.16904524665138       -0.65471954656801
H           -2.04678430023992        0.71995346352466        0.95234411382637
H           -2.05489647616774        1.35225421635815       -0.69551600982602
H           -2.19997527480136       -1.30253235050370       -0.40590238002701
H           -0.98275710154766       -0.67721096342383       -1.53261612591442
H           -0.51019294075593       -1.39664018183511        1.39011219633581
H            0.33346222937669       -2.07640886065911       -0.01961459137096
H            1.37486525233545        0.02645840742449        1.35949930483150
H           -0.01695236706890        1.89665448448798        1.11335170877344
H            0.27120420179196        1.81703167830024       -0.62908685022559
H            2.36974246693224        0.56079360229860       -0.65633733130824
16
 energy: -19.882280800841 gnorm: 0.011031262791 xtb: 6.7.1 (edcfbbe)
C           -1.51281375243783        0.73117302191424        0.04308620348228
C           -1.31945567564051       -0.68359057222369       -0.49563629689843
C           -0.15637880906552       -1.19342259681828        0.35177051215129
C            0.81018394964030        0.00105252984093        0.41683635907765
C           -0.07388565695213        1.25424437538199        0.18600531827149
O            1.79100699414472       -0.16902297301053       -0.59271296039418
H           -1.99100626072375        0.68484938355767        1.02865913514273
H           -2.12476124637364        1.35694442853175       -0.61140380994851
H           -2.20885796077406       -1.30194355031745       -0.40643847492492
H           -1.01511960948155       -0.64281914059833       -1.54154738940403
H           -0.50194840162156       -1.44064189960489        1.35706765030400
H            0.34311798583004       -2.05999232048329       -0.07924390511077
H            1.31447349989717        0.04151961910645        1.39922119912660
H            0.02168872516410        1.97597999861450        1.00742327967501
H            0.24569407106553        1.74278608596280       -0.74606733958646
H            2.43220750139261        0.55353670212866       -0.55375786222085
16
 energy: -19.882533936242 gnorm: 0.003903953018 xtb: 6.7.1 (edcfbbe)
C           -1.50697992662704        0.73633972232491        0.03616916250375
C           -1.32484250929029       -0.68516408316277       -0.48797357821037
C           -0.15142052150662       -1.19418877847678        0.34506344587149
C            0.80977942677365        0.00251751493929        0.41756374909977
C           -0.07315105025682        1.25165000972449        0.18312043074719
O            1.79851138080792       -0.16230828136308       -0.58283083365660
H           -1.98722027797455        0.70000278911870        1.01390379136692
H           -2.10760761263669        1.35873588316887       -0.62262698052340
H           -2.21646051120989       -1.29765949620571       -0.37236446515503
H           -1.04359144479291       -0.66207621045645       -1.54043547590813
H           -0.48900987748953       -1.45550435544702        1.34908332935870
H            0.35009810829964       -2.05327069331308       -0.09671140881136
H            1.30392120697873        0.04220822462458        1.39951321241626
H            0.01738063474201        1.96566646048357        0.99687557106715
H            0.24764623365423        1.73467229295951       -0.73682935911624
H            2.42709209459208        0.56903209306349       -0.53825897230718
16
 energy: -19.882631060216 gnorm: 0.004826071007 xtb: 6.7.1 (edcfbbe)
C           -1.50796749406522        0.73527484812854        0.05228265152697
C           -1.33731189278489       -0.68351838785568       -0.48275206266728
C           -0.14849277695597       -1.19785075570697        0.32600096302153
C            0.80531745503474        0.00515572692221        0.42452165751311
C           -0.07190628366318        1.25240791942785        0.15733521645104
O            1.82822896516934       -0.15518183405951       -0.54438577806782
H           -1.96064451713706        0.69607589855295        1.04061606182922
H           -2.12484544959426        1.35801134396455       -0.58757486438983
H           -2.22784949972736       -1.29630441285690       -0.35267470542710
H           -1.07823829181677       -0.65559227803221       -1.54212656726887
H           -0.47509727671628       -1.49065427826569        1.32616819460848
H            0.35885873595701       -2.04116647706597       -0.14239781594466
H            1.26731039087000        0.04961264216884        1.42189440270230
H            0.03851099623520        2.00591594286927        0.93837500156989
H            0.23535092647489        1.68993470343545       -0.79617988256904
H            2.45292136678374        0.57853249035579       -0.47584085414501
16
 energy: -19.882647036733 gnorm: 0.006963037220 xtb: 6.7.1 (edcfbbe)
C           -1.51030890116316        0.73535795439366        0.06746444231415
C           -1.34963093840982       -0.68054348501904       -0.47892079235599
C           -0.14523667065074       -1.19972934466078        0.30430522553494
C            0.80122742093002        0.00851440232308        0.43053331674306
C           -0.07026403340873        1.25216447215473        0.12387321675171
O            1.86550076054439       -0.15051576453081       -0.49956872948401
H           -1.92626736649342        0.68853522794097        1.07729129204826
H           -2.15515229170301        1.36167751014124       -0.54828332608803
H           -2.23746994281473       -1.29411086744420       -0.32989426410939
H           -1.11672430164666       -0.65013960030069       -1.54543143143077
H           -0.45943214471612       -1.52427458045502        1.29913741153672
H            0.36702724518608       -2.02565433412257       -0.18993718920259
H            1.22410755761487        0.05943553863677        1.44683186341142
H            0.05916896078042        2.04153739381608        0.86871808422078
H            0.22253376563734        1.64278726651220       -0.85704246956973
H            2.48506623437719        0.58561130259691       -0.40581503157759
16
 energy: -19.882721724507 gnorm: 0.002443640902 xtb: 6.7.1 (edcfbbe)
C           -1.50806439087171        0.73617927771014        0.06174084455969
C           -1.34749367409244       -0.68246975928326       -0.47697748875906
C           -0.14492320501343       -1.19938888934732        0.30798107523317
C            0.80167818403431        0.00750351978143        0.43043743125211
C           -0.06909269058203        1.25094359911246        0.13155394698847
O            1.85535987766478       -0.14965354669100       -0.50584669412090
H           -1.93657916001858        0.69753596203675        1.06481405887468
H           -2.14246872803899        1.36165177046973       -0.56410702835344
H           -2.23524308910143       -1.29527014185701       -0.32704289371599
H           -1.11334562891700       -0.65760344419971       -1.54276874158886
H           -0.45753471603637       -1.52003414581233        1.30175215407774
H            0.36527484531417       -2.02545455292133       -0.18415836773941
H            1.23155231299175        0.05733886554406        1.44081052886138
H            0.05528036363497        2.02870849939010        0.88369332616000
H            0.22761067114938        1.65234915031697       -0.83914548235107
H            2.47213438194654        0.58831692773284       -0.41947505063557
16
 energy: -19.882766843232 gnorm: 0.002925093450 xtb: 6.7.1 (edcfbbe)
C           -1.50867214420411        0.73829966372815        0.06573770186187
C           -1.35417591709457       -0.68158917279493       -0.46923862435957
C           -0.14125067415903       -1.20143413699258        0.29891867703525
C            0.79953214620113        0.00906611174031        0.43282799028723
C           -0.06912485304969        1.24905337888070        0.12088891784949
O            1.86899710701036       -0.14730741484855       -0.48487135002343
H           -1.93106042369594        0.70589978377374        1.06933006416600
H           -2.14369793746560        1.36193488260843       -0.55823919436732
H           -2.24002883042268       -1.29414227541042       -0.30807927542184
H           -1.13465765242708       -0.65737682027409       -1.53837533630610
H           -0.44246777999356       -1.54295168084085        1.28974832040888
H            0.37202538390753       -2.01500544709594       -0.21249227554275
H            1.21198245098797        0.06170166596308        1.45004977271715
H            0.06290648471269        2.04025720197160        0.85777793638511
H            0.22255043415304        1.63094983143361       -0.85908235503042
H            2.48128755960346        0.59329752014026       -0.39163935091660
16
 energy: -19.882822583041 gnorm: 0.003162628829 xtb: 6.7.1 (edcfbbe)
C           -1.50922437430092        0.74062436261400        0.07610768588121
C           -1.36815891594039       -0.68090297672960       -0.45757789837660
C           -0.13555467488681       -1.20415772366788        0.27890879553277
C            0.79560112716875        0.01246697216609        0.43806060624162
C           -0.06721647511315        1.24662800488149        0.09425311595037
O            1.89915143356134       -0.14188646822399       -0.43974800866163
H           -1.91121415796473        0.71693050635192        1.08954334431518
H           -2.15543697250232        1.36243603368310       -0.53926917503792
H           -2.24972838517913       -1.29325211964639       -0.27438709404833
H           -1.17688995457375       -0.65718539684678       -1.53231135731958
H           -0.41622440339094       -1.58515163375310        1.26216933589924
H            0.38176181516095       -1.99341433629806       -0.26698638989510
H            1.17059725191582        0.07141435028749        1.47057082080162
H            0.08078381109123        2.06476762673054        0.79850384549258
H            0.21208656749941        1.58796593399769       -0.90502160711342
H            2.50381166151855        0.60336995643601       -0.32955440091905
16
 energy: -19.882849278279 gnorm: 0.002351252727 xtb: 6.7.1 (edcfbbe)
C           -1.50915150170937        0.74272420481968        0.08174048939847
C           -1.37639371632075       -0.68086420139420       -0.44967716208336
C           -0.13117694363745       -1.20598932868245        0.26581777774111
C            0.79373053636293        0.01431349916646        0.44155999997941
C           -0.06568216833862        1.24411296515911        0.07706340606612
O            1.91792861053519       -0.13944718857731       -0.40870231461712
H           -1.89930318754230        0.72557813425830        1.10170937607941
H           -2.16317585416574        1.36335481620226       -0.52971526532662
H           -2.25467972734104       -1.29219687502731       -0.25091990693976
H           -1.20422427046013       -0.65743856552676       -1.52707669372915
H           -0.39758842013404       -1.61173696243590        1.24208965892963
H            0.38720171640243       -1.97786804959770       -0.30171790057401
H            1.14372662399678        0.07774062509413        1.48334172429268
H            0.09166737022794        2.07763332634395        0.76056586721522
H            0.20593467837971        1.56058132621907       -0.93222027658251
H            2.51533160780840        0.61015536596120       -0.29059716110651
16
 energy: -19.882857542596 gnorm: 0.000914896122 xtb: 6.7.1 (edcfbbe)
C           -1.50807217224872        0.74265847040153        0.08142046824330
C           -1.37658126013793       -0.68136861711337       -0.44979180547300
C           -0.13149991733647       -1.20598290729401        0.26548857095799
C            0.79297294840869        0.01430580158183        0.44169784124898
C           -0.06528427055252        1.24421819933212        0.07570068986443
O            1.91764961426293       -0.13983953540064       -0.40629370221974
H           -1.89548943558094        0.72488028643412        1.10147562481622
H           -2.16304595373650        1.36289851497764       -0.52824960155899
H           -2.25478793882671       -1.29218013687327       -0.24975992276634
H           -1.20528713282383       -0.65798989776444       -1.52675678211871
H           -0.39755321565681       -1.61216617164000        1.24088028405520
H            0.38681308519819       -1.97652977582164       -0.30262618599329
H            1.14163571749212        0.07848030333029        1.48301671523680
H            0.09195306883041        2.07687777445236        0.75943591772635
H            0.20710001860619        1.56099943123529       -0.93274120405988
H            2.51362219816583        0.61139135214471       -0.28963528921634
16
 energy: -19.882859959260 gnorm: 0.000663846886 xtb: 6.7.1 (edcfbbe)
C           -1.50767323317337        0.74318696583185        0.08141706996748
C           -1.37676961067120       -0.68133122748354       -0.44973126139786
C           -0.13140264828869       -1.20612584718040        0.26472462824529
C            0.79285013882323        0.01415181299551        0.44210989029559
C           -0.06504575767739        1.24382501629560        0.07381182205303
O            1.91899517470102       -0.14113300583344       -0.40217781727966
H           -1.89171458044431        0.72436746612576        1.10208204654671
H           -2.16417599677140        1.36279676562617       -0.52642580989409
H           -2.25521324569384       -1.29105490044804       -0.24803686691668
H           -1.20683076059862       -0.65829634678892       -1.52644366524687
H           -0.39682744614560       -1.61377525901151        1.23905827051025