      -----------------------------------------------------------      
     |                   =====================                   |     
     |                           x T B                           |     
     |                   =====================                   |     
     |                         S. Grimme                         |     
     |          Mulliken Center for Theoretical Chemistry        |     
     |                    University of Bonn                     |     
      -----------------------------------------------------------      

   * xtb version 6.7.1 (edcfbbe) compiled by 'albert@albert-system' on 2024-07-22

   xtb is free software: you can redistribute it and/or modify it under
   the terms of the GNU Lesser General Public License as published by
   the Free Software Foundation, either version 3 of the License, or
   (at your option) any later version.
   
   xtb is distributed in the hope that it will be useful,
   but WITHOUT ANY WARRANTY; without even the implied warranty of
   MERCHANTABILITY or FITNESS FOR A PARTICULAR PURPOSE.  See the
   GNU Lesser General Public License for more details.
   
   Cite this work as:
   * C. Bannwarth, E. Caldeweyher, S. Ehlert, A. Hansen, P. Pracht,
     J. Seibert, S. Spicher, S. Grimme, WIREs Comput. Mol. Sci., 2020, 11,
     e01493. DOI: 10.1002/wcms.1493
   
   for GFN2-xTB:
   * C. Bannwarth, S. Ehlert and S. Grimme., J. Chem. Theory Comput., 2019,
     15, 1652-1671. DOI: 10.1021/acs.jctc.8b01176
   for GFN1-xTB:
   * S. Grimme, C. Bannwarth, P. Shushkov, J. Chem. Theory Comput., 2017,
     13, 1989-2009. DOI: 10.1021/acs.jctc.7b00118
   for GFN0-xTB:
   * P. Pracht, E. Caldeweyher, S. Ehlert, S. Grimme, ChemRxiv, 2019, preprint.
     DOI: 10.26434/chemrxiv.8326202.v1
   for GFN-FF:
   * S. Spicher and S. Grimme, Angew. Chem. Int. Ed., 2020, 59, 15665-15673.
     DOI: 10.1002/anie.202004239
   
   for ALPB and GBSA implicit solvation:
   * S. Ehlert, M. Stahn, S. Spicher, S. Grimme, J. Chem. Theory Comput.,
     2021, 17, 4250-4261. DOI: 10.1021/acs.jctc.1c00471
   
   for ddCOSMO and CPCM-X implicit solvation:
   * M. Stahn, S. Ehlert, S. Grimme, J. Phys. Chem. A,
     2023, XX, XXXX-XXXX. DOI: 10.1021/acs.jpca.3c04382
   
   for DFT-D4:
   * E. Caldeweyher, C. Bannwarth and S. Grimme, J. Chem. Phys., 2017,
     147, 034112. DOI: 10.1063/1.4993215
   * E. Caldeweyher, S. Ehlert, A. Hansen, H. Neugebauer, S. Spicher,
     C. Bannwarth and S. Grimme, J. Chem. Phys., 2019, 150, 154122.
     DOI: 10.1063/1.5090222
   * E. Caldeweyher, J.-M. Mewes, S. Ehlert and S. Grimme, Phys. Chem. Chem. Phys.
     2020, 22, 8499-8512. DOI: 10.1039/D0CP00502A
   
   for sTDA-xTB:
   * S. Grimme and C. Bannwarth, J. Chem. Phys., 2016, 145, 054103.
     DOI: 10.1063/1.4959605
   
   in the mass-spec context:
   * V. Asgeirsson, C. Bauer and S. Grimme, Chem. Sci., 2017, 8, 4879.
     DOI: 10.1039/c7sc00601b
   * J. Koopman and S. Grimme, ACS Omega 2019, 4, 12, 15120-15133.
     DOI: 10.1021/acsomega.9b02011
   
   for metadynamics refer to:
   * S. Grimme, J. Chem. Theory Comput., 2019, 155, 2847-2862
     DOI: 10.1021/acs.jctc.9b00143
   
   for SPH calculations refer to:
   * S. Spicher and S. Grimme, J. Chem. Theory Comput., 2021, 17, 1701-1714
     DOI: 10.1021/acs.jctc.0c01306
   
   for ONIOM refer to:
   * C. Plett, A. Katbashev, S. Ehlert, S. Grimme, M. Bursch,
     Phys. Chem. Chem. Phys., 2023, 25, 17860-17868. DOI: 10.1039/D3CP02178E
   
   for DIPRO refer to:
   * J. Kohn, N. Gildemeister, S. Grimme, D. Fazzi, A. Hansen,
     J. Chem. Phys., 2023, just accepted.
   
   for PTB refer to:
   * S. Grimme, M. Mueller, A. Hansen, J. Chem. Phys., 2023, 158, 124111.
     DOI: 10.1063/5.0137838
   
   with help from (in alphabetical order)
   P. Atkinson, C. Bannwarth, F. Bohle, G. Brandenburg, E. Caldeweyher
   M. Checinski, S. Dohm, S. Ehlert, S. Ehrlich, I. Gerasimov, C. Hölzer
   A. Katbashev, J. Kohn, J. Koopman, C. Lavigne, S. Lehtola, F. März, M. Müller,
   F. Musil, H. Neugebauer, J. Pisarek, C. Plett, P. Pracht, F. Pultar,
   J. Seibert, P. Shushkov, S. Spicher, M. Stahn, M. Steiner, T. Strunk,
   J. Stückrath, T. Rose, and J. Unsleber
   
 * started run on 2025/04/06 at 18:00:49.166     
   ID    Z sym.   atoms
    1    6 C      1, 2, 4, 6, 8, 10
    2    1 H      3, 5, 7, 9, 11, 18-24
    3    8 O      12-17

           -------------------------------------------------
          |                Calculation Setup                |
           -------------------------------------------------

          program call               : /srv/scratch/z5358697/.xtb/bin/xtb solv.coord --gfn2 --sp --chrg 0 --norestart --parallel 1 --alpb water reference -I xtb_sp-xcontrol-inp
          hostname                   : k155
          coordinate file            : solv.coord
          omp threads                :                     1


           -------------------------------------------------
          |                 G F N 2 - x T B                 |
           -------------------------------------------------

        Reference                      10.1021/acs.jctc.8b01176
      * Hamiltonian:
        H0-scaling (s, p, d)           1.850000    2.230000    2.230000
        zeta-weighting                 0.500000
      * Dispersion:
        s8                             2.700000
        a1                             0.520000
        a2                             5.000000
        s9                             5.000000
      * Repulsion:
        kExp                           1.500000    1.000000
        rExp                           1.000000
      * Coulomb:
        alpha                          2.000000
        third order                    shell-resolved
        anisotropic                    true
        a3                             3.000000
        a5                             4.000000
        cn-shift                       1.200000
        cn-exp                         4.000000
        max-rad                        5.000000

      * Solvation model:               ALPB
        Solvent                        water
        Parameter file                 internal GFN2-xTB/ALPB
        Dielectric constant                8.0200E+01
        Reference state                gsolv=reference [X=1]
        Free energy shift                  2.8945E-03 Eh       1.8164E+00 kcal/mol
        Temperature                        2.9815E+02 K
        Density                            1.0000E+00 kg/L
        Solvent mass                       1.8000E+01 g/mol
        Interaction kernel             P16
        Born radius scaling (c1)           1.4744E+00
        Born radii integrator          GBOBC
        Born offset                        0.0000E+00 a0       0.0000E+00 AA
        H-bond correction              true
        Ion screening                  false
        Surface tension                    1.0000E-05 Eh       1.5569E+01 dyn/cm
        Grid points                               974 per atom

          ...................................................
          :                      SETUP                      :
          :.................................................:
          :  # basis functions                  60          :
          :  # atomic orbitals                  60          :
          :  # shells                           36          :
          :  # electrons                        72          :
          :  max. iterations                   250          :
          :  Hamiltonian                  GFN2-xTB          :
          :  restarted?                      false          :
          :  GBSA solvation                   true          :
          :  PC potential                    false          :
          :  electronic temp.          300.0000000     K    :
          :  accuracy                    1.0000000          :
          :  -> integral cutoff          0.2500000E+02      :
          :  -> integral neglect         0.1000000E-07      :
          :  -> SCF convergence          0.1000000E-05 Eh   :
          :  -> wf. convergence          0.1000000E-03 e    :
          :  Broyden damping             0.4000000          :
          :  net charge                          0          :
          :  unpaired electrons                  0          :
          ...................................................

 iter      E             dE          RMSdq      gap      omega  full diag
   1    -43.6477209 -0.436477E+02  0.474E+00   10.63       0.0  T
   2    -43.6776474 -0.299265E-01  0.256E+00   10.62       1.0  T
   3    -43.6796429 -0.199552E-02  0.570E-01   10.55       1.0  T
   4    -43.6800171 -0.374208E-03  0.174E-01   10.55       1.0  T
   5    -43.6800807 -0.636229E-04  0.681E-02   10.57       1.0  T
   6    -43.6800966 -0.158681E-04  0.225E-02   10.57       1.0  T
   7    -43.6800974 -0.835326E-06  0.635E-03   10.57       3.2  T
   8    -43.6800977 -0.231437E-06  0.222E-03   10.57       9.2  T
   9    -43.6800977 -0.157491E-07  0.100E-03   10.57      20.4  T
  10    -43.6800977 -0.333995E-08  0.365E-04   10.57      55.9  T
  11    -43.6800977 -0.764878E-09  0.114E-04   10.57     179.5  T

   *** convergence criteria satisfied after 11 iterations ***

         #    Occupation            Energy/Eh            Energy/eV
      -------------------------------------------------------------
         1        2.0000           -0.7304011             -19.8752
       ...           ...                  ...                  ...
        30        2.0000           -0.4565504             -12.4234
        31        2.0000           -0.4431111             -12.0577
        32        2.0000           -0.4403684             -11.9830
        33        2.0000           -0.4335481             -11.7974
        34        2.0000           -0.4180486             -11.3757
        35        2.0000           -0.4117216             -11.2035
        36        2.0000           -0.4074217             -11.0865 (HOMO)
        37                         -0.0189603              -0.5159 (LUMO)
        38                         -0.0087458              -0.2380
        39                          0.0143883               0.3915
        40                          0.0332336               0.9043
        41                          0.0362966               0.9877
       ...                                ...                  ...
        60                          0.3046695               8.2905
      -------------------------------------------------------------
                  HL-Gap            0.3884613 Eh           10.5706 eV
             Fermi-level           -0.2131910 Eh           -5.8012 eV

 SCC (total)                   0 d,  0 h,  0 min,  0.032 sec
 SCC setup                      ...        0 min,  0.002 sec (  4.687%)
 Dispersion                     ...        0 min,  0.000 sec (  0.427%)
 classical contributions        ...        0 min,  0.000 sec (  0.088%)
 integral evaluation            ...        0 min,  0.003 sec (  8.509%)
 iterations                     ...        0 min,  0.020 sec ( 62.582%)
 molecular gradient             ...        0 min,  0.007 sec ( 23.249%)
 printout                       ...        0 min,  0.000 sec (  0.418%)

         :::::::::::::::::::::::::::::::::::::::::::::::::::::
         ::                     SUMMARY                     ::
         :::::::::::::::::::::::::::::::::::::::::::::::::::::
         :: total energy             -43.382251019164 Eh    ::
         :: total w/o Gsasa/hb       -43.368532958346 Eh    ::
         :: gradient norm              0.000147673116 Eh/a0 ::
         :: HOMO-LUMO gap             10.570570518043 eV    ::
         ::.................................................::
         :: SCC energy               -43.679904073192 Eh    ::
         :: -> isotropic ES            0.171260134182 Eh    ::
         :: -> anisotropic ES         -0.006052999343 Eh    ::
         :: -> anisotropic XC         -0.009427844214 Eh    ::
         :: -> dispersion             -0.020677977473 Eh    ::
         :: -> Gsolv                  -0.032414322466 Eh    ::
         ::    -> Gelec               -0.018696261648 Eh    ::
         ::    -> Gsasa                0.004693323194 Eh    ::
         ::    -> Ghb                 -0.021305933172 Eh    ::
         ::    -> Gshift               0.002894549160 Eh    ::
         :: repulsion energy           0.297653054028 Eh    ::
         :: add. restraining           0.000000000000 Eh    ::
         :: total charge              -0.000000000000 e     ::
         :::::::::::::::::::::::::::::::::::::::::::::::::::::

           -------------------------------------------------
          |                Property Printout                |
           -------------------------------------------------

    * Orbital Energies and Occupations

         #    Occupation            Energy/Eh            Energy/eV
      -------------------------------------------------------------
         1        2.0000           -0.7304011             -19.8752
       ...           ...                  ...                  ...
        24        2.0000           -0.5176383             -14.0857
        25        2.0000           -0.4992105             -13.5842
        26        2.0000           -0.4910352             -13.3617
        27        2.0000           -0.4893257             -13.3152
        28        2.0000           -0.4792938             -13.0422
        29        2.0000           -0.4765979             -12.9689
        30        2.0000           -0.4565504             -12.4234
        31        2.0000           -0.4431111             -12.0577
        32        2.0000           -0.4403684             -11.9830
        33        2.0000           -0.4335481             -11.7974
        34        2.0000           -0.4180486             -11.3757
        35        2.0000           -0.4117216             -11.2035
        36        2.0000           -0.4074217             -11.0865 (HOMO)
        37                         -0.0189603              -0.5159 (LUMO)
        38                         -0.0087458              -0.2380
        39                          0.0143883               0.3915
        40                          0.0332336               0.9043
        41                          0.0362966               0.9877
        42                          0.0478867               1.3031
        43                          0.0617984               1.6816
        44                          0.0756083               2.0574
        45                          0.0899378               2.4473
        46                          0.1105375               3.0079
        47                          0.1256663               3.4196
       ...                                ...                  ...
        60                          0.3046695               8.2905
      -------------------------------------------------------------
                  HL-Gap            0.3884613 Eh           10.5706 eV
             Fermi-level           -0.2131910 Eh           -5.8012 eV

     #   Z          covCN         q      C6AA      α(0)
     1   6 C        3.673     0.059    19.814     6.379
     2   6 C        3.734     0.089    19.184     6.251
     3   1 H        0.924     0.078     1.997     2.210
     4   6 C        3.723     0.096    19.092     6.240
     5   1 H        0.923     0.037     2.489     2.467
     6   6 C        3.724     0.103    18.984     6.222
     7   1 H        0.923     0.058     2.219     2.330
     8   6 C        3.722     0.090    19.192     6.257
     9   1 H        0.923     0.049     2.327     2.386
    10   6 C        3.610     0.235    17.394     6.023
    11   1 H        0.923     0.047     2.362     2.403
    12   8 O        1.700    -0.354    19.956     6.031
    13   8 O        1.655    -0.512    23.150     6.495
    14   8 O        1.656    -0.508    23.057     6.482
    15   8 O        1.654    -0.510    23.119     6.491
    16   8 O        1.656    -0.503    22.954     6.468
    17   8 O        1.653    -0.495    22.793     6.445
    18   1 H        0.924     0.063     2.169     2.303
    19   1 H        0.924     0.052     2.294     2.368
    20   1 H        0.804     0.388     0.506     1.118
    21   1 H        0.805     0.369     0.545     1.160
    22   1 H        0.802     0.351     0.585     1.202
    23   1 H        0.805     0.361     0.563     1.179
    24   1 H        0.803     0.355     0.578     1.194

 Mol. C6AA /au·bohr⁶  :       4711.787450
 Mol. C8AA /au·bohr⁸  :     100561.609912
 Mol. α(0) /au        :         98.103185


Wiberg/Mayer (AO) data.
largest (>0.10) Wiberg bond orders for each atom

 ---------------------------------------------------------------------------
     #   Z sym  total        # sym  WBO       # sym  WBO       # sym  WBO
 ---------------------------------------------------------------------------
     1   6 C    3.955 --    17 O    1.002     2 C    0.974    18 H    0.970
                            19 H    0.968
     2   6 C    3.942 --     1 C    0.974     4 C    0.973    12 O    0.957
                             3 H    0.953
     3   1 H    0.994 --     2 C    0.953
     4   6 C    3.959 --    16 O    0.996     2 C    0.973     6 C    0.964
                             5 H    0.955
     5   1 H    0.999 --     4 C    0.955
     6   6 C    3.960 --    15 O    1.011     4 C    0.964     8 C    0.962
                             7 H    0.954
     7   1 H    0.997 --     6 C    0.954
     8   6 C    3.956 --    14 O    0.999     6 C    0.962     9 H    0.957
                            10 C    0.956
     9   1 H    0.998 --     8 C    0.957
    10   6 C    3.926 --    12 O    0.981    13 O    0.979     8 C    0.956
                            11 H    0.949
    11   1 H    0.998 --    10 C    0.949
    12   8 O    2.089 --    10 C    0.981     2 C    0.957
    13   8 O    1.963 --    10 C    0.979    20 H    0.834
    14   8 O    1.917 --     8 C    0.999    21 H    0.847
    15   8 O    1.922 --     6 C    1.011    22 H    0.810
    16   8 O    1.920 --     4 C    0.996    23 H    0.852
    17   8 O    1.972 --     1 C    1.002    24 H    0.817
    18   1 H    0.996 --     1 C    0.970
    19   1 H    0.997 --     1 C    0.968
    20   1 H    0.849 --    13 O    0.834
    21   1 H    0.864 --    14 O    0.847
    22   1 H    0.877 --    15 O    0.810
    23   1 H    0.869 --    16 O    0.852
    24   1 H    0.874 --    17 O    0.817
 ---------------------------------------------------------------------------

Topologies differ in total number of bonds
Writing topology from bond orders to xtbtopo.mol

molecular dipole:
                 x           y           z       tot (Debye)
 q only:        0.351      -1.101       0.124
   full:        0.506      -1.393       0.207       3.804
molecular quadrupole (traceless):
                xx          xy          yy          xz          yz          zz
 q only:        6.335      -4.343       6.954      -0.028       5.010     -13.289
  q+dip:        8.379      -5.973      10.961      -0.665       4.417     -19.340
   full:        8.039      -5.876      10.295      -0.358       5.057     -18.334


           -------------------------------------------------
          | TOTAL ENERGY              -43.382251019164 Eh   |
          | GRADIENT NORM               0.000147673116 Eh/α |
          | HOMO-LUMO GAP              10.570570518043 eV   |
           -------------------------------------------------

------------------------------------------------------------------------
 * finished run on 2025/04/06 at 18:00:49.232     
------------------------------------------------------------------------
 total:
 * wall-time:     0 d,  0 h,  0 min,  0.065 sec
 *  cpu-time:     0 d,  0 h,  0 min,  0.030 sec
 * ratio c/w:     0.454 speedup
 SCF:
 * wall-time:     0 d,  0 h,  0 min,  0.032 sec
 *  cpu-time:     0 d,  0 h,  0 min,  0.021 sec
 * ratio c/w:     0.647 speedup

