11
 energy: -566.068142065590 gnorm: 0.002006321201 xtb: 6.7.1 (edcfbbe)
C           -2.80335673352841       -0.12232060939344       -0.50579115367432
O           -1.36063219046009       -0.29265948973031       -0.67433119678475
C           -0.61973254322931        0.09699378672306        0.34688403009063
O           -0.98709009479107        0.56655465132450        1.39665827462419
C            0.88064515960463       -0.09062723714428        0.00952627177051
F            1.29058682494097        0.91517417878131       -0.79440726616987
F            1.61679987758684       -0.05971356182337        1.12695942522039
F            1.11944045731971       -1.25284285035146       -0.62312516904563
H           -3.13237553955712       -0.67029557373360        0.37885460076394
H           -3.24248602978334       -0.53831071776366       -1.41010441901357
H           -3.03171587082202        0.94123630586972       -0.41220334355411
11
 energy: -566.068146173917 gnorm: 0.000787626206 xtb: 6.7.1 (edcfbbe)
C           -2.80347430534814       -0.12240092257485       -0.50558365646632
O           -1.36094451561800       -0.29284826950298       -0.67417568452117
C           -0.61979871244180        0.09659365631942        0.34606661001202
O           -0.98706516520245        0.56727157988214        1.39566159212080
C            0.88064095657572       -0.09044110517244        0.00920387794151
F            1.29190444412113        0.91386404501343       -0.79545986460787
F            1.61602451514876       -0.05789095152712        1.12718377472257
F            1.11973420212586       -1.25322688732156       -0.62162243197958
H           -3.13295765061408       -0.67241247085936        0.37751056384127
H           -3.24266386821280       -0.53610831236871       -1.41077213927044
H           -3.03131656354447        0.94078843115885       -0.40909238264679
11
 energy: -566.068146173917 gnorm: 0.000787626206 xtb: 6.7.1 (edcfbbe)
C           -2.80347430534814       -0.12240092257485       -0.50558365646632
O           -1.36094451561800       -0.29284826950298       -0.67417568452117
C           -0.61979871244180        0.09659365631942        0.34606661001202
O           -0.98706516520245        0.56727157988214        1.39566159212080
C            0.88064095657572       -0.09044110517244        0.00920387794151
F            1.29190444412113        0.91386404501343       -0.79545986460787
F            1.61602451514876       -0.05789095152712        1.12718377472257
F            1.11973420212586       -1.25322688732156       -0.62162243197958
H           -3.13295765061408       -0.67241247085936        0.37751056384127
H           -3.24266386821280       -0.53610831236871       -1.41077213927044
H           -3.03131656354447        0.94078843115885       -0.40909238264679
