
                                 *****************
                                 * O   R   C   A *
                                 *****************

                                            #,                                       
                                            ###                                      
                                            ####                                     
                                            #####                                    
                                            ######                                   
                                           ########,                                 
                                     ,,################,,,,,                         
                               ,,#################################,,                 
                          ,,##########################################,,             
                       ,#########################################, ''#####,          
                    ,#############################################,,   '####,        
                  ,##################################################,,,,####,       
                ,###########''''           ''''###############################       
              ,#####''   ,,,,##########,,,,          '''####'''          '####       
            ,##' ,,,,###########################,,,                        '##       
           ' ,,###''''                  '''############,,,                           
         ,,##''                                '''############,,,,        ,,,,,,###''
      ,#''                                            '''#######################'''  
     '                                                          ''''####''''         
             ,#######,   #######,   ,#######,      ##                                
            ,#'     '#,  ##    ##  ,#'     '#,    #''#        ,####,   ,####,        
            ##       ##  ##   ,#'  ##            #'  '#       #'       #'  '#        
            ##       ##  #######   ##           ,######,      #####,   #    #        
            '#,     ,#'  ##    ##  '#,     ,#' ,#      #,     #,   #   #,  ,#        
             '#######'   ##     ##  '#######'  #'      '#     '####' # '####'        



                #########################################################
                #                        -***-                          #
                #          Department of theory and spectroscopy        #
                #                                                       #
                #                      Frank Neese                      #
                #                                                       #
                #     Directorship, Architecture, Infrastructure        #
                #                    SHARK, DRIVERS                     #
                #        Core code/Algorithms in most modules           #
                #                                                       #
                #        Max Planck Institute fuer Kohlenforschung      #
                #                Kaiser Wilhelm Platz 1                 #
                #                 D-45470 Muelheim/Ruhr                 #
                #                      Germany                          #
                #                                                       #
                #                  All rights reserved                  #
                #                        -***-                          #
                #########################################################


                         Program Version 6.0.0  -   RELEASE  -


 With contributions from (in alphabetic order):
   Daniel Aravena         : Magnetic Suceptibility
   Michael Atanasov       : Ab Initio Ligand Field Theory (pilot matlab implementation)
   Alexander A. Auer      : GIAO ZORA, VPT2 properties, NMR spectrum
   Ute Becker             : All parallelization in ORCA, NUMFREQ, NUMCALC
   Giovanni Bistoni       : ED, misc. LED, open-shell LED, HFLD
   Martin Brehm           : Molecular dynamics
   Dmytro Bykov           : pre 5.0 version of the SCF Hessian
   Marcos Casanova-Páez   : Triplet and SCS-CIS(D). UHF-(DLPNO)-IP/EA/STEOM-CCSD. UHF-CVS-IP/STEOM-CCSD
   Vijay G. Chilkuri      : MRCI spin determinant printing, contributions to CSF-ICE
   Pauline Colinet        : FMM embedding
   Dipayan Datta          : RHF DLPNO-CCSD density
   Achintya Kumar Dutta   : EOM-CC, STEOM-CC
   Nicolas Foglia         : Exact transition moments, OPA infrastructure, MCD improvements
   Dmitry Ganyushin       : Spin-Orbit,Spin-Spin,Magnetic field MRCI
   Miquel Garcia          : C-PCM and meta-GGA Hessian, CCSD/C-PCM, Gaussian charge scheme
   Tiago L. C. Gouveia    : GS-ROHF, GS-ROCIS
   Yang Guo               : DLPNO-NEVPT2, F12-NEVPT2, CIM, IAO-localization
   Andreas Hansen         : Spin unrestricted coupled pair/coupled cluster methods
   Ingolf Harden          : AUTO-CI MPn and infrastructure 
   Benjamin Helmich-Paris : MC-RPA, TRAH-(SCF,CASSCF), AVAS, COSX integrals, SCF dyn. polar.
   Lee Huntington         : MR-EOM, pCC
   Robert Izsak           : Overlap fitted RIJCOSX, COSX-SCS-MP3, EOM
   Riya Kayal             : Wick's Theorem for AUTO-CI, AUTO-CI UHF-CCSDT
   Emily Kempfer          : AUTO-CI, RHF CISDT and CCSDT
   Christian Kollmar      : KDIIS, OOCD, Brueckner-CCSD(T), CCSD density, CASPT2, CASPT2-K, improved NEVPT2
   Axel Koslowski         : Symmetry handling
   Simone Kossmann        : Meta GGA functionals, TD-DFT gradient, OOMP2, (MP2 Hessian; deprecated post 5.0)
   Lucas Lang             : DCDCAS
   Marvin Lechner         : AUTO-CI (C++ implementation), FIC-MRCC
   Spencer Leger          : CASSCF response
   Dagmar Lenk            : GEPOL surface, SMD, ORCA-2-JSON
   Dimitrios Liakos       : Extrapolation schemes; Compound Job, initial MDCI parallelization
   Dimitrios Manganas     : Further ROCIS development; embedding schemes. LFT, Crystal Embedding
   Dimitrios Pantazis     : SARC Basis sets
   Anastasios Papadopoulos: AUTO-CI, single reference methods and gradients
   Taras Petrenko         : pre 6.0 DFT Hessian and TD-DFT gradient, (ASA, deprecated), ECA, 1-Electron XAS/XES, NRVS
   Peter Pinski           : DLPNO-MP2, DLPNO-MP2 Gradient
   Christoph Reimann      : Effective Core Potentials
   Marius Retegan         : Local ZFS, SOC
   Christoph Riplinger    : Optimizer, TS searches, QM/MM, DLPNO-CCSD(T), (RO)-DLPNO pert. Triples
   Michael Roemelt        : Original ROCIS implementation
   Masaaki Saitow         : Open-shell DLPNO-CCSD energy and density
   Barbara Sandhoefer     : DKH picture change effects
   Kantharuban Sivalingam : CASSCF convergence/infrastructure, NEVPT2 and variants, FIC-MRCI
   Bernardo de Souza      : ESD, SOC TD-DFT
   Georgi Stoychev        : AutoAux, RI-MP2 NMR, DLPNO-MP2 response, X2C
   Van Anh Tran           : RI-MP2 g-tensors
   Willem Van den Heuvel  : Paramagnetic NMR
   Zikuan Wang            : NOTCH, Electric field optimization 
   Frank Wennmohs         : Technical directorship and infrastructure
   Hang Xu                : AUTO-CI-Response properties 


 We gratefully acknowledge several colleagues who have allowed us to
 interface, adapt or use parts of their codes:
   Stefan Grimme, W. Hujo, H. Kruse, P. Pracht,  : VdW corrections, initial TS optimization,
                  C. Bannwarth, S. Ehlert,         DFT functionals, gCP, sTDA/sTD-DF
                  L. Wittmann, M. Mueller
   Ed Valeev, F. Pavosevic, A. Kumar             : LibInt (2-el integral package), F12 methods
   Garnet Chan, S. Sharma, J. Yang, R. Olivares  : DMRG
   Ulf Ekstrom                                   : XCFun DFT Library
   Mihaly Kallay                                 : mrcc  (arbitrary order and MRCC methods)
   Frank Weinhold                                : gennbo (NPA and NBO analysis)
   Simon Mueller                                 : openCOSMO-RS
   Christopher J. Cramer and Donald G. Truhlar   : smd solvation model
   Lars Goerigk                                  : TD-DFT with DH, B97 family of functionals
   V. Asgeirsson, H. Jonsson                     : NEB implementation
   FAccTs GmbH                                   : IRC, NEB, NEB-TS, DLPNO-Multilevel, CI-OPT
                                                   MM, QMMM, 2- and 3-layer-ONIOM, Crystal-QMMM,
                                                   LR-CPCM, SF, NACMEs, symmetry and pop. for TD-DFT,
                                                   nearIR, NL-DFT gradient (VV10), updates on ESD,
                                                   ML-optimized integration grids, MBIS, APM,
                                                   GOAT, DOCKER, SOLVATOR, interface openCOSMO-RS
   S Lehtola, MJT Oliveira, MAL Marques          : LibXC Library
   Liviu Ungur et al                             : ANISO software


 Your calculation uses the libint2 library for the computation of 2-el integrals
 For citations please refer to: http://libint.valeyev.net

 Your ORCA version has been built with support for libXC version: 6.2.2
 For citations please refer to: https://libxc.gitlab.io

 This ORCA versions uses:
   CBLAS   interface :  Fast vector & matrix operations
   LAPACKE interface :  Fast linear algebra routines
   SCALAPACK package :  Parallel linear algebra routines
   Shared memory     :  Shared parallel matrices
   BLAS/LAPACK       :  OpenBLAS 0.3.27  USE64BITINT DYNAMIC_ARCH NO_AFFINITY SkylakeX SINGLE_THREADED
        Core in use  :  SkylakeX
   Copyright (c) 2011-2014, The OpenBLAS Project


Your calculation utilizes the geometrical counterpoise correction gCP
Please cite in your paper:
H.Kruse, S. Grimme J.Chem.Phys., 136, (2012), 154101 
   

Your calculation utilizes the atom-pairwise dispersion correction
based on EEQ partial charges (D4)


================================================================================

----- Orbital basis set information -----
Your calculation utilizes the basis: def2-mTZVPP
   Stefan Grimme, Andreas Hansen, Sebastian Ehlert, and Jan-Michael Mewes 
   J. Chem. Phys. 154, 064103 (2021). DOI: 10.1063/5.0040021

----- AuxJ basis set information -----
Your calculation utilizes the auxiliary basis: def2/J
   F. Weigend, Phys. Chem. Chem. Phys. 8, 1057 (2006).

================================================================================
                                        WARNINGS
                       Please study these warnings very carefully!
================================================================================

Using LibXC functional ID 497 : Re-regularized SCAN exchange by Furness et al
[ 1]  J. W. Furness, A. D. Kaplan, J. Ning, J. P. Perdew, and J. Sun.,  J. Phys. Chem. Lett. 11, 8208-8215 (2020)
[ 2]  J. W. Furness, A. D. Kaplan, J. Ning, J. P. Perdew, and J. Sun.,  J. Phys. Chem. Lett. 11, 9248-9248 (2020)
Using LibXC functional ID 498 : Re-regularized SCAN correlation by Furness et al
[ 1]  J. W. Furness, A. D. Kaplan, J. Ning, J. P. Perdew, and J. Sun.,  J. Phys. Chem. Lett. 11, 8208-8215 (2020)
[ 2]  J. W. Furness, A. D. Kaplan, J. Ning, J. P. Perdew, and J. Sun.,  J. Phys. Chem. Lett. 11, 9248-9248 (2020)
Using LibXC functional ID 497 : Re-regularized SCAN exchange by Furness et al
[ 1]  J. W. Furness, A. D. Kaplan, J. Ning, J. P. Perdew, and J. Sun.,  J. Phys. Chem. Lett. 11, 8208-8215 (2020)
[ 2]  J. W. Furness, A. D. Kaplan, J. Ning, J. P. Perdew, and J. Sun.,  J. Phys. Chem. Lett. 11, 9248-9248 (2020)
Using LibXC functional ID 498 : Re-regularized SCAN correlation by Furness et al
[ 1]  J. W. Furness, A. D. Kaplan, J. Ning, J. P. Perdew, and J. Sun.,  J. Phys. Chem. Lett. 11, 8208-8215 (2020)
[ 2]  J. W. Furness, A. D. Kaplan, J. Ning, J. P. Perdew, and J. Sun.,  J. Phys. Chem. Lett. 11, 9248-9248 (2020)

================================================================================
                                       INPUT FILE
================================================================================
NAME = sp_gas.inp
|  1> ! r2scan-3c def2/J RI DEFGRID2 scfconv6 printgap
|  2> %output
|  3>     printlevel normal
|  4> end
|  5> * xyz 0 1
|  6> C -2.6042147108 -0.934266493 -0.0002419207
|  7> C -1.1486708919 -0.577609425 0.000146767
|  8> C -0.1814333511 -1.5706076 0.0001376094
|  9> C 1.1691419987 -1.2692864875 8.0191e-05
| 10> C 1.572103776 0.0578659068 1.58257e-05
| 11> C 0.61068163 1.0621372912 5.71865e-05
| 12> C -0.7410259863 0.7612655477 0.0001544588
| 13> C -1.7531251697 1.865186792 2.03668e-05
| 14> O 2.886713414 0.42760185 -0.0001770215
| 15> H -3.0997915508 -0.5231282779 0.8780697633
| 16> H -3.0983167796 -0.5263353981 -0.8809062062
| 17> H -2.7336664778 -2.0131047322 0.0015941494
| 18> H -0.4859562039 -2.6073780205 6.36181e-05
| 19> H 1.9019045118 -2.0634299872 -2.3365e-06
| 20> H 0.9463528148 2.0883683182 3.55615e-05
| 21> H -2.3905813209 1.7969833078 -0.8801982532
| 22> H -2.3928141977 1.7954396023 0.8784652595
| 23> H -1.2633345408 2.8347991588 0.0014506629
| 24> H 3.4552471388 -0.3565179378 -0.0001771924
| 25> *
| 26> 
| 27>                          ****END OF INPUT****
================================================================================

                       ****************************
                       * Single Point Calculation *
                       ****************************

---------------------------------
CARTESIAN COORDINATES (ANGSTROEM)
---------------------------------
  C     -2.604215   -0.934266   -0.000242
  C     -1.148671   -0.577609    0.000147
  C     -0.181433   -1.570608    0.000138
  C      1.169142   -1.269286    0.000080
  C      1.572104    0.057866    0.000016
  C      0.610682    1.062137    0.000057
  C     -0.741026    0.761266    0.000154
  C     -1.753125    1.865187    0.000020
  O      2.886713    0.427602   -0.000177
  H     -3.099792   -0.523128    0.878070
  H     -3.098317   -0.526335   -0.880906
  H     -2.733666   -2.013105    0.001594
  H     -0.485956   -2.607378    0.000064
  H      1.901905   -2.063430   -0.000002
  H      0.946353    2.088368    0.000036
  H     -2.390581    1.796983   -0.880198
  H     -2.392814    1.795440    0.878465
  H     -1.263335    2.834799    0.001451
  H      3.455247   -0.356518   -0.000177

----------------------------
CARTESIAN COORDINATES (A.U.)
----------------------------
  NO LB      ZA    FRAG     MASS         X           Y           Z
   0 C     6.0000    0    12.011   -4.921253   -1.765508   -0.000457
   1 C     6.0000    0    12.011   -2.170673   -1.091524    0.000277
   2 C     6.0000    0    12.011   -0.342859   -2.968018    0.000260
   3 C     6.0000    0    12.011    2.209358   -2.398604    0.000152
   4 C     6.0000    0    12.011    2.970846    0.109351    0.000030
   5 C     6.0000    0    12.011    1.154021    2.007149    0.000108
   6 C     6.0000    0    12.011   -1.400336    1.438583    0.000292
   7 C     6.0000    0    12.011   -3.312926    3.524692    0.000038
   8 O     8.0000    0    15.999    5.455098    0.808050   -0.000335
   9 H     1.0000    0     1.008   -5.857757   -0.988569    1.659311
  10 H     1.0000    0     1.008   -5.854970   -0.994630   -1.664671
  11 H     1.0000    0     1.008   -5.165881   -3.804217    0.003013
  12 H     1.0000    0     1.008   -0.918324   -4.927230    0.000120
  13 H     1.0000    0     1.008    3.594079   -3.899318   -0.000004
  14 H     1.0000    0     1.008    1.788348    3.946444    0.000067
  15 H     1.0000    0     1.008   -4.517544    3.395806   -1.663334
  16 H     1.0000    0     1.008   -4.521764    3.392889    1.660059
  17 H     1.0000    0     1.008   -2.387356    5.356994    0.002741
  18 H     1.0000    0     1.008    6.529471   -0.673721   -0.000335

--------------------------------
INTERNAL COORDINATES (ANGSTROEM)
--------------------------------
 C      0   0   0     0.000000000000     0.00000000     0.00000000
 C      1   0   0     1.498603424516     0.00000000     0.00000000
 C      2   1   0     1.386215652765   120.47896981     0.00000000
 C      3   2   1     1.383780398626   121.67004680   179.97997394
 C      4   3   2     1.386979335031   119.46684270     0.00000000
 C      5   4   3     1.390285423233   119.35896178     0.00000000
 C      6   5   4     1.384787816043   121.20254322     0.00000000
 C      7   6   5     1.497660471748   119.96658890   180.00779722
 O      5   4   3     1.365614588823   122.59852229   180.00667537
 H      1   2   3     1.089064943202   110.60467298   120.50168109
 H      1   2   3     1.089088709121   110.59223726   239.74595776
 H      1   2   3     1.086578610821   110.61036729     0.11821151
 H      3   2   1     1.080567942415   119.38421173     0.00000000
 H      4   3   2     1.080557636376   120.12093478   180.00470167
 H      6   5   4     1.079733886451   118.13629863   179.99820324
 H      8   7   6     1.088938418348   110.45711190   120.37093476
 H      8   7   6     1.088913289718   110.46960273   239.43512371
 H      8   7   6     1.086298783833   110.68449712   359.90982212
 H      9   5   4     0.968542429558   110.23563896     0.00000000

---------------------------
INTERNAL COORDINATES (A.U.)
---------------------------
 C      0   0   0     0.000000000000     0.00000000     0.00000000
 C      1   0   0     2.831950055691     0.00000000     0.00000000
 C      2   1   0     2.619567946280   120.47896981     0.00000000
 C      3   2   1     2.614965982892   121.67004680   179.97997394
 C      4   3   2     2.621011096617   119.46684270     0.00000000
 C      5   4   3     2.627258697894   119.35896178     0.00000000
 C      6   5   4     2.616869725913   121.20254322     0.00000000
 C      7   6   5     2.830168133203   119.96658890   180.00779722
 O      5   4   3     2.580637577363   122.59852229   180.00667537
 H      1   2   3     2.058034484706   110.60467298   120.50168109
 H      1   2   3     2.058079395784   110.59223726   239.74595776
 H      1   2   3     2.053335997428   110.61036729     0.11821151
 H      3   2   1     2.041977480260   119.38421173     0.00000000
 H      4   3   2     2.041958004669   120.12093478   180.00470167
 H      6   5   4     2.040401342906   118.13629863   179.99820324
 H      8   7   6     2.057795387383   110.45711190   120.37093476
 H      8   7   6     2.057747901155   110.46960273   239.43512371
 H      8   7   6     2.052807201056   110.68449712   359.90982212
 H      9   5   4     1.830279940948   110.23563896     0.00000000

---------------------
BASIS SET INFORMATION
---------------------
There are 3 groups of distinct atoms

 Group   1 Type C   : 11s6p1d contracted to 5s3p1d pattern {62111/411/1}
 Group   2 Type O   : 11s6p2d contracted to 5s3p2d pattern {62111/411/11}
 Group   3 Type H   : 4s1p contracted to 2s1p pattern {31/1}

Atom   0C    basis set group =>   1
Atom   1C    basis set group =>   1
Atom   2C    basis set group =>   1
Atom   3C    basis set group =>   1
Atom   4C    basis set group =>   1
Atom   5C    basis set group =>   1
Atom   6C    basis set group =>   1
Atom   7C    basis set group =>   1
Atom   8O    basis set group =>   2
Atom   9H    basis set group =>   3
Atom  10H    basis set group =>   3
Atom  11H    basis set group =>   3
Atom  12H    basis set group =>   3
Atom  13H    basis set group =>   3
Atom  14H    basis set group =>   3
Atom  15H    basis set group =>   3
Atom  16H    basis set group =>   3
Atom  17H    basis set group =>   3
Atom  18H    basis set group =>   3
---------------------------------
AUXILIARY/J BASIS SET INFORMATION
---------------------------------
There are 3 groups of distinct atoms

 Group   1 Type C   : 12s5p4d2f1g contracted to 6s4p3d1f1g pattern {711111/2111/211/2/1}
 Group   2 Type O   : 12s5p4d2f1g contracted to 6s4p3d1f1g pattern {711111/2111/211/2/1}
 Group   3 Type H   : 5s2p1d contracted to 3s1p1d pattern {311/2/1}

Atom   0C    basis set group =>   1
Atom   1C    basis set group =>   1
Atom   2C    basis set group =>   1
Atom   3C    basis set group =>   1
Atom   4C    basis set group =>   1
Atom   5C    basis set group =>   1
Atom   6C    basis set group =>   1
Atom   7C    basis set group =>   1
Atom   8O    basis set group =>   2
Atom   9H    basis set group =>   3
Atom  10H    basis set group =>   3
Atom  11H    basis set group =>   3
Atom  12H    basis set group =>   3
Atom  13H    basis set group =>   3
Atom  14H    basis set group =>   3
Atom  15H    basis set group =>   3
Atom  16H    basis set group =>   3
Atom  17H    basis set group =>   3
Atom  18H    basis set group =>   3

Checking for AutoStart:
The File: sp_gas.gbw exists
Trying to determine its content:
     ... Fine, the file contains calculation information
     ... Fine, the calculation information was read
     ... Fine, the file contains a basis set
     ... Fine, the basis set was read
     ... Fine, the file contains a geometry
     ... Fine, the geometry was read
     ... Fine, the file contains a set of orbitals
     ... Fine, the orbitals can be read
     => possible old guess file was deleted
     => GBW file was renamed to GES file
     => GES file is set as startup file
     => Guess is set to MORead
     ... now leaving AutoStart

------------------------------------------------------------------------------
                             ORCA STARTUP CALCULATIONS
                           -- RI-GTO INTEGRALS CHOSEN --
------------------------------------------------------------------------------
------------------------------------------------------------------------------
                   ___                                                        
                  /   \      - P O W E R E D   B Y -                         
                 /     \                                                     
                 |  |  |   _    _      __       _____    __    __             
                 |  |  |  | |  | |    /  \     |  _  \  |  |  /  |          
                  \  \/   | |  | |   /    \    | | | |  |  | /  /          
                 / \  \   | |__| |  /  /\  \   | |_| |  |  |/  /          
                |  |  |   |  __  | /  /__\  \  |    /   |      \           
                |  |  |   | |  | | |   __   |  |    \   |  |\   \          
                \     /   | |  | | |  |  |  |  | |\  \  |  | \   \       
                 \___/    |_|  |_| |__|  |__|  |_| \__\ |__|  \__/        
                                                                              
                      - O R C A' S   B I G   F R I E N D -                    
                                      &                                       
                       - I N T E G R A L  F E E D E R -                       
                                                                              
 v1 FN, 2020, v2 2021, v3 2022-2024                                           
------------------------------------------------------------------------------


----------------------
SHARK INTEGRAL PACKAGE
----------------------

Number of atoms                             ...     19
Number of basis functions                   ...    226
Number of shells                            ...    112
Maximum angular momentum                    ...      2
Integral batch strategy                     ... SHARK/LIBINT Hybrid
RI-J (if used) integral strategy            ... SPLIT-RIJ (Revised 2003 algorithm where possible)
Printlevel                                  ...      1
Contraction scheme used                     ... SEGMENTED contraction
Prescreening option                         ... SCHWARTZ
   Thresh                                   ... 1.000e-10
   Tcut                                     ... 1.000e-11
   Tpresel                                  ... 1.000e-11 
Coulomb Range Separation                    ... NOT USED
Exchange Range Separation                   ... NOT USED
Multipole approximations                    ... NOT USED
Finite Nucleus Model                        ... NOT USED
CABS basis                                  ... NOT available
Auxiliary Coulomb fitting basis             ... AVAILABLE
   # of basis functions in Aux-J            ...    551
   # of shells in Aux-J                     ...    185
   Maximum angular momentum in Aux-J        ...      4
Auxiliary J/K fitting basis                 ... NOT available
Auxiliary Correlation fitting basis         ... NOT available
Auxiliary 'external' fitting basis          ... NOT available

Checking pre-screening integrals            ... done (  0.0 sec) Dimension = 112
Check shell pair data                       ... done (  0.0 sec)
Shell pair information
Shell pair cut-off parameter TPreSel        ...   1.0e-11
Total number of shell pairs                 ...      6328
Shell pairs after pre-screening             ...      5615
Total number of primitive shell pairs       ...     23019
Primitive shell pairs kept                  ...     14375
          la=0 lb=0:   1857 shell pairs
          la=1 lb=0:   2139 shell pairs
          la=1 lb=1:    644 shell pairs
          la=2 lb=0:    584 shell pairs
          la=2 lb=1:    338 shell pairs
          la=2 lb=2:     53 shell pairs

Calculating one electron integrals          ... done (  0.0 sec)
Calculating RI/J V-Matrix + Cholesky decomp.... done (  0.1 sec)
Calculating Nuclear repulsion               ... done (  0.0 sec) ENN=    427.565251054215 Eh

Diagonalization of the overlap matrix:
Smallest eigenvalue                        ... 2.142e-05
Time for diagonalization                   ...    0.004 sec
Threshold for overlap eigenvalues          ... 1.000e-07
Number of eigenvalues below threshold      ... 0
Time for construction of square roots      ...    0.015 sec
Total time needed                          ...    0.032 sec

-------------------
DFT GRID GENERATION
-------------------

General Integration Accuracy     IntAcc      ... 4.388
Radial Grid Type                 RadialGrid  ... OptM3 with GC (2021)
Angular Grid (max. ang.)         AngularGrid ... 4 (Lebedev-302)
Angular grid pruning method      GridPruning ... 4 (adaptive)
Weight generation scheme         WeightScheme... mBecke (2022)
Basis function cutoff            BFCut       ... 1.0000e-10
Integration weight cutoff        WCut        ... 1.0000e-14
Partially contracted basis set               ... off
Rotationally invariant grid construction     ... off
Angular grids for H and He will be reduced by one unit
Diffuse basis detected: some atoms will have their outermost
                        angular grid increased by 1.

Total number of grid points                  ...    86403
Total number of batches                      ...     1360
Average number of points per batch           ...       63
Average number of grid points per atom       ...     4548
Initializing property integral containers    ... done (  0.0 sec)

SHARK setup successfully completed in   1.1 seconds

Maximum memory used throughout the entire STARTUP-calculation: 38.8 MB
-------------------------------------------------------------------------------
                                 ORCA GUESS
                   Start orbitals & Density for SCF / CASSCF
-------------------------------------------------------------------------------

------------
SCF SETTINGS
------------
Hamiltonian:
 Density Functional     Method          .... DFT(GTOs)
  Functional kind                       .... Exchange
  Functional name                       .... Re-regularized SCAN exchange by Furness et al
  Functional family                     .... MGGA
  Functional refs                              
    [ 0] J. W. Furness, A. D. Kaplan, J. Ning, J. P. Perdew, and J. Sun.,  J. Phys. Chem. Lett. 11, 8208-8215 (2020), doi: 10.1021/acs.jpclett.0c02405
    [ 1] J. W. Furness, A. D. Kaplan, J. Ning, J. P. Perdew, and J. Sun.,  J. Phys. Chem. Lett. 11, 9248-9248 (2020), doi: 10.1021/acs.jpclett.0c03077
  Functional external parameters        .... 6
    Parameter  0 _c1        =  6.670000e-01 : c1 parameter        
    Parameter  1 _c2        =  8.000000e-01 : c2 parameter        
    Parameter  2 _d         =  1.240000e+00 : d parameter         
    Parameter  3 _k1        =  6.500000e-02 : k1 parameter        
    Parameter  4 _eta       =  1.000000e-03 : eta parameter       
    Parameter  5 _dp2       =  3.610000e-01 : dp2 parameter       
  Functional kind                       .... Correlation
  Functional name                       .... Re-regularized SCAN correlation by Furness et al
  Functional family                     .... MGGA
  Functional refs                              
    [ 0] J. W. Furness, A. D. Kaplan, J. Ning, J. P. Perdew, and J. Sun.,  J. Phys. Chem. Lett. 11, 8208-8215 (2020), doi: 10.1021/acs.jpclett.0c02405
    [ 1] J. W. Furness, A. D. Kaplan, J. Ning, J. P. Perdew, and J. Sun.,  J. Phys. Chem. Lett. 11, 9248-9248 (2020), doi: 10.1021/acs.jpclett.0c03077
  Functional external parameters        .... 1
    Parameter  0 _eta       =  1.000000e-03 : Regularization parameter
 Gradients option       PostSCFGGA      .... off
 RI-approximation to the Coulomb term is turned on
   Number of AuxJ basis functions       .... 551


General Settings:
 Integral files         IntName         .... sp_gas
 Hartree-Fock type      HFTyp           .... RHF
 Total Charge           Charge          ....    0
 Multiplicity           Mult            ....    1
 Number of Electrons    NEL             ....   66
 Basis Dimension        Dim             ....  226
 Nuclear Repulsion      ENuc            ....    427.5652510542 Eh

Convergence Acceleration:
 AO-DIIS                CNVDIIS         .... on
   Start iteration      DIISMaxIt       ....    12
   Startup error        DIISStart       ....  0.200000
   # of expansion vecs  DIISMaxEq       ....     5
   Bias factor          DIISBfac        ....   1.050
   Max. coefficient     DIISMaxC        ....  10.000
 MO-DIIS                CNVKDIIS        .... off
 Trust-Rad. Augm. Hess. CNVTRAH         .... auto
   Auto Start mean grad. ratio tolernc. ....  1.125000
   Auto Start start iteration           ....     1
   Auto Start num. interpolation iter.  ....    10
   Max. Number of Micro iterations      ....    24
   Max. Number of Macro iterations      .... Maxiter - #DIIS iter
   Number of Davidson start vectors     ....     2
   Converg. threshold    (grad. norm)   ....   3.330e-04
   Grad. Scal. Fac. for Micro threshold ....   0.100
   Minimum threshold for Micro iter.    ....   1.000e-02
   NR start threshold (gradient norm)   ....   1.000e-04
   Initial trust radius                 ....   0.400
   Minimum AH scaling param. (alpha)    ....   1.000
   Maximum AH scaling param. (alpha)    .... 1000.000
   Quad. conv. algorithm                .... NR
   White noise on init. David. guess    .... on
   Maximum white noise                  ....   0.010
   Pseudo random numbers                .... off
   Inactive MOs                         .... canonical
   Orbital update algorithm             .... Taylor
   Preconditioner                       .... Diag
   Full preconditioner red. dimension   ....   250
   COSX micro iterations for RIJONX calc.... off
 SOSCF                  CNVSOSCF        .... on
   Start iteration      SOSCFMaxIt      ....   150
   Startup grad/error   SOSCFStart      ....  0.003300
   Hessian update       SOSCFHessUp     .... L-BFGS
 Level Shifting         CNVShift        .... on
   Level shift para.    LevelShift      ....    0.2500
   Turn off err/grad.   ShiftErr        ....    0.0010
 Zerner damping         CNVZerner       .... off
 Static damping         CNVDamp         .... on
   Fraction old density DampFac         ....    0.7000
   Max. Damping (<1)    DampMax         ....    0.9800
   Min. Damping (>=0)   DampMin         ....    0.0000
   Turn off err/grad.   DampErr         ....    0.1000

SCF Procedure:
 Maximum # iterations   MaxIter         ....   125
 SCF integral mode      SCFMode         .... Direct
   Integral package                     .... SHARK and LIBINT hybrid scheme
 Reset frequency        DirectResetFreq ....    20
 Integral Threshold     Thresh          ....  1.000e-10 Eh
 Primitive CutOff       TCut            ....  1.000e-11 Eh

Convergence Tolerance:
 Convergence Check Mode ConvCheckMode   .... Total+1el-Energy
 Convergence forced     ConvForced      .... 0
 Energy Change          TolE            ....  1.000e-06 Eh
 1-El. energy change                    ....  1.000e-03 Eh
 Orbital Gradient       TolG            ....  3.330e-04
 Orbital Rotation angle TolX            ....  3.330e-04
 DIIS Error             TolErr          ....  1.000e-06

---------------------
INITIAL GUESS: MOREAD
---------------------
Guess MOs are being read from file: sp_gas.ges
Input Geometry matches current geometry (good)
Atom 0: N(Shells)= 9 and 6 - projection required
Input basis set needs projection
NBasis(read)= 146
NBasis(calc)= 226
Basis set overlap was calculated
Using GuessMode=FMatrix for the initial guess
C*T matrix was formed
Effective Fockian was calculated
Effective Fockian was diagonalized
Initial density was built
                      ------------------
                      INITIAL GUESS DONE (   0.0 sec)
                      ------------------
             **** ENERGY FILE WAS UPDATED (sp_gas.en.tmp) ****
Finished Guess after   0.3 sec
Maximum memory used throughout the entire GUESS-calculation: 16.0 MB

-------------------------------------------------------------------------------------------
                                      ORCA LEAN-SCF
                              memory conserving SCF solver
-------------------------------------------------------------------------------------------

----------------------------------------D-I-I-S--------------------------------------------
Iteration    Energy (Eh)           Delta-E    RMSDP     MaxDP     DIISErr   Damp  Time(sec)
-------------------------------------------------------------------------------------------
               ***  Starting incremental Fock matrix formation  ***
    1    -385.8162377069610898     0.00e+00  1.68e-02  6.55e-01  6.21e-01  0.700   2.5
    2    -385.8725719532763492    -5.63e-02  1.26e-02  4.84e-01  4.36e-01  0.700   2.3
    3    -385.9123830151328889    -3.98e-02  8.99e-03  3.42e-01  3.06e-01  0.700   2.2
    4    -385.9403289827016010    -2.79e-02  6.33e-03  2.40e-01  2.14e-01  0.700   2.2
                               ***Turning on AO-DIIS***
    5    -385.9599316928157009    -1.96e-02  4.46e-03  1.68e-01  1.50e-01  0.700   2.2
    6    -385.9736736274776945    -1.37e-02  3.12e-03  1.18e-01  1.05e-01  0.700   2.1
    7    -385.9833078723281119    -9.63e-03  2.19e-03  8.24e-02  7.34e-02  0.700   2.1
    8    -385.9900587909698402    -6.75e-03  5.10e-03  1.92e-01  5.15e-02  0.000   2.1
                              *** Initializing SOSCF ***
---------------------------------------S-O-S-C-F--------------------------------------
Iteration    Energy (Eh)           Delta-E    RMSDP     MaxDP     MaxGrad    Time(sec)
--------------------------------------------------------------------------------------
    9    -386.0058333743020853    -1.58e-02  1.17e-05  3.17e-04  1.30e-04     2.2
               *** Restarting incremental Fock matrix formation ***
   10    -386.0058335144544230    -1.40e-07  1.30e-05  3.24e-04  3.63e-05     2.5
                  *** Gradient check signals convergence ***

               *****************************************************
               *                     SUCCESS                       *
               *           SCF CONVERGED AFTER  10 CYCLES          *
               *****************************************************

             **** ENERGY FILE WAS UPDATED (sp_gas.en.tmp) ****

----------------
TOTAL SCF ENERGY
----------------

Total Energy       :       -386.00583351445442 Eh          -10503.75273 eV

Components:
Nuclear Repulsion  :        427.56525105421491 Eh           11634.64197 eV
Electronic Energy  :       -813.57108456866933 Eh          -22138.39471 eV
One Electron Energy:      -1369.34328415513232 Eh          -37261.72511 eV
Two Electron Energy:        555.77219958646299 Eh           15123.33041 eV

Virial components:
Potential Energy   :       -770.45702826397132 Eh          -20965.20159 eV
Kinetic Energy     :        384.45119474951684 Eh           10461.44886 eV
Virial Ratio       :          2.00404378705586

DFT components:
N(Alpha)           :       33.000123688401 electrons
N(Beta)            :       33.000123688401 electrons
N(Total)           :       66.000247376802 electrons
E(X)               :      -53.533576521715 Eh       
E(C)               :       -2.121757309582 Eh       
E(XC)              :      -55.655333831297 Eh       

---------------
SCF CONVERGENCE
---------------

  Last Energy change         ...    1.4015e-07  Tolerance :   1.0000e-06
  Last MAX-Density change    ...    3.2432e-04  Tolerance :   1.0000e-05
  Last RMS-Density change    ...    1.3034e-05  Tolerance :   1.0000e-06
  Last DIIS Error            ...    1.3026e-04  Tolerance :   1.0000e-06
  Last Orbital Gradient      ...    3.6257e-05  Tolerance :   3.3300e-04
  Last Orbital Rotation      ...    1.5362e-04  Tolerance :   3.3300e-04


----------------
ORBITAL ENERGIES
----------------

  NO   OCC          E(Eh)            E(eV) 
   0   2.0000     -18.980191      -516.4773 
   1   2.0000     -10.089391      -274.5463 
   2   2.0000     -10.039229      -273.1813 
   3   2.0000     -10.030393      -272.9409 
   4   2.0000     -10.029282      -272.9106 
   5   2.0000     -10.027384      -272.8590 
   6   2.0000     -10.026242      -272.8279 
   7   2.0000     -10.024296      -272.7750 
   8   2.0000     -10.022424      -272.7240 
   9   2.0000      -1.022513       -27.8240 
  10   2.0000      -0.825598       -22.4657 
  11   2.0000      -0.742189       -20.1960 
  12   2.0000      -0.729872       -19.8608 
  13   2.0000      -0.668309       -18.1856 
  14   2.0000      -0.637519       -17.3478 
  15   2.0000      -0.573723       -15.6118 
  16   2.0000      -0.558542       -15.1987 
  17   2.0000      -0.495348       -13.4791 
  18   2.0000      -0.456778       -12.4296 
  19   2.0000      -0.435207       -11.8426 
  20   2.0000      -0.407413       -11.0863 
  21   2.0000      -0.402771       -10.9600 
  22   2.0000      -0.379745       -10.3334 
  23   2.0000      -0.371139       -10.0992 
  24   2.0000      -0.369420       -10.0524 
  25   2.0000      -0.369316       -10.0496 
  26   2.0000      -0.355516        -9.6741 
  27   2.0000      -0.334494        -9.1020 
  28   2.0000      -0.315049        -8.5729 
  29   2.0000      -0.299705        -8.1554 
  30   2.0000      -0.293376        -7.9832 
  31   2.0000      -0.226245        -6.1564 
  32   2.0000      -0.193903        -5.2764 
  33   0.0000      -0.025537        -0.6949 
  34   0.0000      -0.008573        -0.2333 
  35   0.0000       0.060849         1.6558 
  36   0.0000       0.081949         2.2299 
  37   0.0000       0.096677         2.6307 
  38   0.0000       0.102499         2.7891 
  39   0.0000       0.127112         3.4589 
  40   0.0000       0.133318         3.6278 
  41   0.0000       0.144974         3.9449 
  42   0.0000       0.154559         4.2058 
  43   0.0000       0.155919         4.2428 
*Only the first 10 virtual orbitals were printed.

                    ********************************
                    * MULLIKEN POPULATION ANALYSIS *
                    ********************************

-----------------------
MULLIKEN ATOMIC CHARGES
-----------------------
   0 C :   -0.553672
   1 C :    0.135508
   2 C :   -0.197587
   3 C :   -0.356888
   4 C :    0.434664
   5 C :   -0.396830
   6 C :    0.224899
   7 C :   -0.557731
   8 O :   -0.418553
   9 H :    0.158737
  10 H :    0.158971
  11 H :    0.148509
  12 H :    0.145038
  13 H :    0.135479
  14 H :    0.154890
  15 H :    0.161735
  16 H :    0.161628
  17 H :    0.152249
  18 H :    0.308952
Sum of atomic charges:    0.0000000

--------------------------------
MULLIKEN REDUCED ORBITAL CHARGES
--------------------------------
  0 C s       :     3.396168  s :     3.396168
      pz      :     1.084872  p :     3.129804
      px      :     0.940213
      py      :     1.104719
      dz2     :     0.004848  d :     0.027700
      dxz     :     0.007781
      dyz     :     0.002659
      dx2y2   :     0.007987
      dxy     :     0.004425

  1 C s       :     3.119333  s :     3.119333
      pz      :     1.002480  p :     2.698357
      px      :     0.811285
      py      :     0.884592
      dz2     :     0.003554  d :     0.046801
      dxz     :     0.006535
      dyz     :     0.006064
      dx2y2   :     0.015192
      dxy     :     0.015456

  2 C s       :     3.144970  s :     3.144970
      pz      :     1.002021  p :     3.014111
      px      :     0.978317
      py      :     1.033773
      dz2     :     0.003332  d :     0.038506
      dxz     :     0.007881
      dyz     :     0.002546
      dx2y2   :     0.013013
      dxy     :     0.011734

  3 C s       :     3.214326  s :     3.214326
      pz      :     1.083337  p :     3.106593
      px      :     1.075296
      py      :     0.947960
      dz2     :     0.003444  d :     0.035969
      dxz     :     0.004756
      dyz     :     0.004298
      dx2y2   :     0.010913
      dxy     :     0.012558

  4 C s       :     3.077641  s :     3.077641
      pz      :     0.947214  p :     2.414382
      px      :     0.732336
      py      :     0.734832
      dz2     :     0.004871  d :     0.073313
      dxz     :     0.015848
      dyz     :     0.008378
      dx2y2   :     0.021985
      dxy     :     0.022230

  5 C s       :     3.216230  s :     3.216230
      pz      :     1.057960  p :     3.145163
      px      :     1.009508
      py      :     1.077694
      dz2     :     0.003422  d :     0.035437
      dxz     :     0.006201
      dyz     :     0.002584
      dx2y2   :     0.010128
      dxy     :     0.013103

  6 C s       :     3.086555  s :     3.086555
      pz      :     0.965007  p :     2.640420
      px      :     0.862813
      py      :     0.812600
      dz2     :     0.003554  d :     0.048125
      dxz     :     0.007565
      dyz     :     0.006361
      dx2y2   :     0.015558
      dxy     :     0.015087

  7 C s       :     3.399539  s :     3.399539
      pz      :     1.084313  p :     3.130856
      px      :     1.033302
      py      :     1.013241
      dz2     :     0.004872  d :     0.027336
      dxz     :     0.008194
      dyz     :     0.001756
      dx2y2   :     0.005010
      dxy     :     0.007503

  8 O s       :     3.753546  s :     3.753546
      pz      :     1.853011  p :     4.629720
      px      :     1.199979
      py      :     1.576730
      dz2     :     0.004501  d :     0.035287
      dxz     :     0.003846
      dyz     :     0.005306
      dx2y2   :     0.008349
      dxy     :     0.013286

  9 H s       :     0.822888  s :     0.822888
      pz      :     0.008430  p :     0.018375
      px      :     0.005267
      py      :     0.004678

 10 H s       :     0.822657  s :     0.822657
      pz      :     0.008453  p :     0.018373
      px      :     0.005258
      py      :     0.004662

 11 H s       :     0.833260  s :     0.833260
      pz      :     0.003715  p :     0.018231
      px      :     0.003588
      py      :     0.010928

 12 H s       :     0.835377  s :     0.835377
      pz      :     0.004281  p :     0.019585
      px      :     0.003888
      py      :     0.011416

 13 H s       :     0.844626  s :     0.844626
      pz      :     0.004779  p :     0.019895
      px      :     0.006921
      py      :     0.008195

 14 H s       :     0.825357  s :     0.825357
      pz      :     0.004476  p :     0.019753
      px      :     0.003926
      py      :     0.011350

 15 H s       :     0.819868  s :     0.819868
      pz      :     0.008467  p :     0.018397
      px      :     0.006322
      py      :     0.003608

 16 H s       :     0.819974  s :     0.819974
      pz      :     0.008450  p :     0.018399
      px      :     0.006340
      py      :     0.003609

 17 H s       :     0.829545  s :     0.829545
      pz      :     0.003685  p :     0.018206
      px      :     0.004902
      py      :     0.009619

 18 H s       :     0.648425  s :     0.648425
      pz      :     0.012166  p :     0.042623
      px      :     0.012747
      py      :     0.017709


------------------------
MULLIKEN OVERLAP CHARGES
------------------------
B(  0-C ,  1-C ) :   0.3582 B(  0-C ,  2-C ) :  -0.1465 B(  0-C ,  6-C ) :  -0.1154 
B(  0-C ,  7-C ) :  -0.1087 B(  0-C ,  9-H ) :   0.8600 B(  0-C , 10-H ) :   0.8602 
B(  0-C , 11-H ) :   0.8308 B(  1-C ,  2-C ) :   1.0460 B(  1-C ,  3-C ) :  -0.2381 
B(  1-C ,  4-C ) :  -0.0777 B(  1-C ,  5-C ) :  -0.0827 B(  1-C ,  6-C ) :   1.0585 
B(  1-C ,  7-C ) :  -0.1205 B(  1-C ,  9-H ) :  -0.1198 B(  1-C , 10-H ) :  -0.1198 
B(  1-C , 11-H ) :  -0.1030 B(  2-C ,  3-C ) :   0.4947 B(  2-C ,  5-C ) :  -0.2499 
B(  2-C ,  6-C ) :  -0.0862 B(  2-C , 12-H ) :   0.7275 B(  3-C ,  4-C ) :   0.8588 
B(  3-C ,  5-C ) :  -0.2775 B(  3-C ,  8-O ) :  -0.1595 B(  3-C , 13-H ) :   0.7431 
B(  4-C ,  5-C ) :   0.9838 B(  4-C ,  6-C ) :  -0.1630 B(  4-C ,  8-O ) :   0.4139 
B(  4-C , 13-H ) :  -0.0783 B(  4-C , 18-H ) :  -0.1161 B(  5-C ,  6-C ) :   0.7821 
B(  5-C ,  7-C ) :  -0.1006 B(  5-C , 14-H ) :   0.7514 B(  6-C ,  7-C ) :   0.3220 
B(  6-C , 14-H ) :  -0.0706 B(  6-C , 15-H ) :  -0.1146 B(  6-C , 16-H ) :  -0.1151 
B(  6-C , 17-H ) :  -0.1013 B(  7-C , 15-H ) :   0.8595 B(  7-C , 16-H ) :   0.8598 
B(  7-C , 17-H ) :   0.8269 B(  8-O , 18-H ) :   0.5972 B(  9-H , 10-H ) :  -0.0626 
B( 15-H , 16-H ) :  -0.0595 


                     *******************************
                     * LOEWDIN POPULATION ANALYSIS *
                     *******************************

----------------------
LOEWDIN ATOMIC CHARGES
----------------------
   0 C :   -0.387303
   1 C :   -0.117829
   2 C :   -0.151414
   3 C :   -0.179934
   4 C :    0.180733
   5 C :   -0.142059
   6 C :   -0.082840
   7 C :   -0.384646
   8 O :   -0.501555
   9 H :    0.160981
  10 H :    0.161022
  11 H :    0.158737
  12 H :    0.167527
  13 H :    0.167529
  14 H :    0.179708
  15 H :    0.164191
  16 H :    0.164146
  17 H :    0.160198
  18 H :    0.282808

-------------------------------
LOEWDIN REDUCED ORBITAL CHARGES
-------------------------------
  0 C s       :     2.951244  s :     2.951244
      pz      :     1.151432  p :     3.371442
      px      :     1.071138
      py      :     1.148872
      dz2     :     0.011793  d :     0.064617
      dxz     :     0.017891
      dyz     :     0.006567
      dx2y2   :     0.019035
      dxy     :     0.009332

  1 C s       :     2.859189  s :     2.859189
      pz      :     1.004158  p :     3.161347
      px      :     1.063686
      py      :     1.093503
      dz2     :     0.006565  d :     0.097292
      dxz     :     0.010492
      dyz     :     0.011048
      dx2y2   :     0.034482
      dxy     :     0.034705

  2 C s       :     2.894794  s :     2.894794
      pz      :     0.987820  p :     3.172305
      px      :     1.088735
      py      :     1.095750
      dz2     :     0.005700  d :     0.084315
      dxz     :     0.014847
      dyz     :     0.004047
      dx2y2   :     0.031563
      dxy     :     0.028159

  3 C s       :     2.892863  s :     2.892863
      pz      :     1.056504  p :     3.208188
      px      :     1.093446
      py      :     1.058238
      dz2     :     0.005860  d :     0.078882
      dxz     :     0.008321
      dyz     :     0.007377
      dx2y2   :     0.026377
      dxy     :     0.030948

  4 C s       :     2.784149  s :     2.784149
      pz      :     0.904390  p :     2.875855
      px      :     0.891548
      py      :     1.079917
      dz2     :     0.010775  d :     0.159263
      dxz     :     0.030623
      dyz     :     0.014744
      dx2y2   :     0.050164
      dxy     :     0.052959

  5 C s       :     2.885248  s :     2.885248
      pz      :     1.037420  p :     3.179216
      px      :     1.054076
      py      :     1.087719
      dz2     :     0.005767  d :     0.077595
      dxz     :     0.011214
      dyz     :     0.004012
      dx2y2   :     0.026164
      dxy     :     0.030437

  6 C s       :     2.861006  s :     2.861006
      pz      :     0.958161  p :     3.122398
      px      :     1.085273
      py      :     1.078964
      dz2     :     0.006493  d :     0.099436
      dxz     :     0.013027
      dyz     :     0.011148
      dx2y2   :     0.034259
      dxy     :     0.034509

  7 C s       :     2.951292  s :     2.951292
      pz      :     1.151173  p :     3.369667
      px      :     1.115699
      py      :     1.102795
      dz2     :     0.011846  d :     0.063687
      dxz     :     0.020463
      dyz     :     0.002822
      dx2y2   :     0.010955
      dxy     :     0.017601

  8 O s       :     3.488787  s :     3.488787
      pz      :     1.817162  p :     4.752085
      px      :     1.346985
      py      :     1.587938
      dz2     :     0.031507  d :     0.260684
      dxz     :     0.061341
      dyz     :     0.010139
      dx2y2   :     0.061344
      dxy     :     0.096353

  9 H s       :     0.795416  s :     0.795416
      pz      :     0.020902  p :     0.043603
      px      :     0.011953
      py      :     0.010748

 10 H s       :     0.795377  s :     0.795377
      pz      :     0.020967  p :     0.043601
      px      :     0.011931
      py      :     0.010703

 11 H s       :     0.798167  s :     0.798167
      pz      :     0.007992  p :     0.043096
      px      :     0.007756
      py      :     0.027348

 12 H s       :     0.788114  s :     0.788114
      pz      :     0.009234  p :     0.044359
      px      :     0.008492
      py      :     0.026633

 13 H s       :     0.787471  s :     0.787471
      pz      :     0.010595  p :     0.045000
      px      :     0.015927
      py      :     0.018478

 14 H s       :     0.775184  s :     0.775184
      pz      :     0.010015  p :     0.045109
      px      :     0.008651
      py      :     0.026443

 15 H s       :     0.792148  s :     0.792148
      pz      :     0.021009  p :     0.043661
      px      :     0.014745
      py      :     0.007907

 16 H s       :     0.792191  s :     0.792191
      pz      :     0.020960  p :     0.043663
      px      :     0.014793
      py      :     0.007910

 17 H s       :     0.796572  s :     0.796572
      pz      :     0.007972  p :     0.043230
      px      :     0.011689
      py      :     0.023569

 18 H s       :     0.596979  s :     0.596979
      pz      :     0.030708  p :     0.120213
      px      :     0.034492
      py      :     0.055013


---------------------------------
LOEWDIN BOND ORDERS (THRESH 0.050000)
---------------------------------
B(  0-C ,  1-C ) :   1.1074 B(  0-C ,  2-C ) :   0.0907 B(  0-C ,  6-C ) :   0.0780 
B(  0-C ,  9-H ) :   0.9102 B(  0-C , 10-H ) :   0.9102 B(  0-C , 11-H ) :   0.9181 
B(  1-C ,  2-C ) :   1.4568 B(  1-C ,  3-C ) :   0.0936 B(  1-C ,  4-C ) :   0.1021 
B(  1-C ,  5-C ) :   0.0885 B(  1-C ,  6-C ) :   1.3670 B(  1-C ,  7-C ) :   0.0777 
B(  1-C , 12-H ) :   0.0529 B(  2-C ,  3-C ) :   1.4933 B(  2-C ,  4-C ) :   0.0952 
B(  2-C ,  5-C ) :   0.1202 B(  2-C ,  6-C ) :   0.0892 B(  2-C , 12-H ) :   0.8656 
B(  2-C , 13-H ) :   0.0547 B(  3-C ,  4-C ) :   1.3356 B(  3-C ,  5-C ) :   0.0867 
B(  3-C ,  6-C ) :   0.1181 B(  3-C ,  8-O ) :   0.2200 B(  3-C , 12-H ) :   0.0551 
B(  3-C , 13-H ) :   0.8656 B(  4-C ,  5-C ) :   1.3121 B(  4-C ,  6-C ) :   0.0951 
B(  4-C ,  8-O ) :   1.4834 B(  4-C , 13-H ) :   0.0558 B(  4-C , 14-H ) :   0.0544 
B(  5-C ,  6-C ) :   1.4648 B(  5-C ,  7-C ) :   0.0927 B(  5-C ,  8-O ) :   0.2245 
B(  5-C , 14-H ) :   0.8547 B(  6-C ,  7-C ) :   1.1071 B(  6-C , 14-H ) :   0.0518 
B(  7-C , 15-H ) :   0.9086 B(  7-C , 16-H ) :   0.9086 B(  7-C , 17-H ) :   0.9175 
B(  8-O , 18-H ) :   0.9476 

------------------------------------------
LOEWDIN REDUCED ORBITAL POPULATIONS PER MO
-------------------------------------------
THRESHOLD FOR PRINTING IS 0.1%%
                      0         1         2         3         4         5   
                 -18.98019 -10.08939 -10.03923 -10.03039 -10.02928 -10.02738
                   2.00000   2.00000   2.00000   2.00000   2.00000   2.00000
                  --------  --------  --------  --------  --------  --------
 1 C  s               0.0       0.0       0.1      95.1       4.4       0.0
 1 C  py              0.0       0.0       0.1       0.0       0.1       0.0
 2 C  s               0.0       0.0       0.0       4.3      93.8       1.5
 2 C  px              0.0       0.0       0.0       0.1       0.0       0.1
 3 C  s               0.0       0.0       0.0       0.0       1.5      98.1
 3 C  px              0.0       0.0       0.0       0.0       0.1       0.0
 3 C  py              0.0       0.1       0.0       0.0       0.0       0.0
 4 C  s               0.0      99.2       0.0       0.0       0.0       0.0
 4 C  py              0.0       0.0       0.0       0.0       0.0       0.1
 5 C  px              0.0       0.1       0.1       0.0       0.0       0.0
 6 C  s               0.0       0.0      99.5       0.1       0.0       0.0
 6 C  py              0.0       0.0       0.0       0.1       0.0       0.0
 8 O  s              99.9       0.0       0.0       0.0       0.0       0.0
 8 O  px              0.0       0.1       0.0       0.0       0.0       0.0
 8 O  dx2y2           0.0       0.2       0.0       0.0       0.0       0.0

                      6         7         8         9        10        11   
                 -10.02624 -10.02430 -10.02242  -1.02251  -0.82560  -0.74219
                   2.00000   2.00000   2.00000   2.00000   2.00000   2.00000
                  --------  --------  --------  --------  --------  --------
 0 C  s               0.0      99.7       0.0       0.0       3.2       4.6
 0 C  px              0.0       0.0       0.0       0.0       1.6       0.3
 0 C  py              0.0       0.0       0.0       0.0       0.2       0.4
 1 C  s               0.0       0.0       0.0       0.0      15.3       3.1
 1 C  px              0.0       0.1       0.0       0.0       1.1       3.3
 1 C  py              0.0       0.0       0.0       0.0       0.3       3.3
 1 C  dz2             0.0       0.0       0.0       0.0       0.2       0.0
 2 C  s               0.0       0.0       0.0       0.1      11.1       4.1
 2 C  px              0.0       0.0       0.0       0.1       0.0       5.7
 2 C  py              0.0       0.0       0.0       0.0       2.5       0.1
 2 C  dz2             0.0       0.0       0.0       0.0       0.1       0.0
 3 C  s               0.0       0.0       0.0       0.9       8.2      15.5
 3 C  px              0.0       0.0       0.0       0.5       1.8       0.2
 3 C  py              0.0       0.0       0.0       1.1       0.7       0.4
 3 C  dz2             0.0       0.0       0.0       0.0       0.1       0.1
 4 C  s               0.0       0.0       0.0       9.9       5.3       6.1
 4 C  px              0.0       0.0       0.1       8.9       4.9       1.5
 4 C  py              0.0       0.0       0.1       0.4       0.2       3.3
 4 C  dz2             0.0       0.0       0.0       0.4       0.1       0.0
 4 C  dx2y2           0.0       0.0       0.0       0.5       0.0       0.2
 4 C  dxy             0.0       0.0       0.0       0.1       0.0       0.0
 5 C  s               0.0       0.0      99.6       0.8       9.9       0.0
 5 C  px              0.0       0.0       0.0       1.2       1.1       4.2
 5 C  py              0.0       0.0       0.0       0.4       1.7       1.2
 5 C  dz2             0.0       0.0       0.0       0.0       0.1       0.0
 6 C  s               0.0       0.0       0.0       0.1      15.4       9.2
 6 C  px              0.0       0.0       0.1       0.1       0.3       3.5
 6 C  py              0.1       0.0       0.0       0.0       1.0       0.6
 6 C  dz2             0.0       0.0       0.0       0.0       0.2       0.1
 7 C  s              99.7       0.0       0.0       0.0       3.4      11.6
 7 C  px              0.0       0.0       0.0       0.0       0.7       0.3
 7 C  py              0.0       0.0       0.0       0.0       1.1       0.8
 8 O  s               0.0       0.0       0.0      59.1       1.2       1.5
 8 O  px              0.0       0.0       0.0       0.9       0.9       1.8
 8 O  py              0.0       0.0       0.0       2.0       0.1       0.1
 8 O  dz2             0.0       0.0       0.0       0.2       0.1       0.2
 8 O  dx2y2           0.0       0.0       0.0       0.1       0.2       0.2
 8 O  dxy             0.0       0.0       0.0       0.0       0.1       0.4
 9 H  s               0.0       0.0       0.0       0.0       0.3       0.8
10 H  s               0.0       0.0       0.0       0.0       0.3       0.8
11 H  s               0.0       0.0       0.0       0.0       0.4       0.6
12 H  s               0.0       0.0       0.0       0.0       1.0       0.5
13 H  s               0.0       0.0       0.0       0.1       0.7       2.2
13 H  py              0.0       0.0       0.0       0.0       0.0       0.1
14 H  s               0.0       0.0       0.0       0.1       0.9       0.0
15 H  s               0.0       0.0       0.0       0.0       0.4       1.8
15 H  pz              0.0       0.0       0.0       0.0       0.0       0.1
16 H  s               0.0       0.0       0.0       0.0       0.4       1.8
16 H  pz              0.0       0.0       0.0       0.0       0.0       0.1
17 H  s               0.0       0.0       0.0       0.0       0.4       1.7
17 H  py              0.0       0.0       0.0       0.0       0.0       0.1
18 H  s               0.0       0.0       0.0       9.7       0.3       0.5
18 H  px              0.0       0.0       0.0       0.9       0.0       0.0
18 H  py              0.0       0.0       0.0       1.3       0.1       0.1

                     12        13        14        15        16        17   
                  -0.72987  -0.66831  -0.63752  -0.57372  -0.55854  -0.49535
                   2.00000   2.00000   2.00000   2.00000   2.00000   2.00000
                  --------  --------  --------  --------  --------  --------
 0 C  s              11.9      10.1      12.5       0.1       3.7       0.0
 0 C  px              1.0       0.1       1.7       0.2       3.1       0.0
 0 C  py              0.0       0.1       0.0       0.7       0.9       0.4
 1 C  s               9.5       0.6       2.9       0.1       5.4       0.1
 1 C  px              1.1       3.7       9.4       0.4       0.3       0.8
 1 C  py              5.6       0.0       0.2      11.4       1.7       3.6
 1 C  dx2y2           0.1       0.1       0.1       0.0       0.1       0.1
 1 C  dxy             0.0       0.1       0.0       0.2       0.0       0.0
 2 C  s               9.3       4.4       2.5       9.0       0.9       0.2
 2 C  px              1.4       2.7       2.3       2.6       2.6       2.6
 2 C  py              0.2       0.3       0.6       2.3       3.3       5.5
 3 C  s               0.5       5.3       5.0       3.2       1.0       1.5
 3 C  px              1.6       0.6       3.4       5.4       0.9       0.7
 3 C  py              1.8       1.9       0.7       1.1       3.7      14.6
 3 C  dx2y2           0.1       0.1       0.1       0.1       0.0       0.1
 4 C  s               3.7       2.3       4.8       0.1       3.4       0.9
 4 C  px              1.8       0.6       0.1       0.6       2.4      11.0
 4 C  py              2.7       6.6       2.5      12.6       0.0       0.8
 4 C  dx2y2           0.0       0.0       0.1       0.1       0.0       0.0
 4 C  dxy             0.1       0.1       0.0       0.0       0.2       0.2
 5 C  s              13.5       6.8       0.8       1.0       7.4       0.1
 5 C  px              0.0       1.9       2.9       5.4       2.2       1.6
 5 C  py              0.2       0.3       0.0       1.4       3.4       4.5
 5 C  dz2             0.1       0.0       0.0       0.0       0.0       0.0
 5 C  dx2y2           0.0       0.0       0.0       0.0       0.0       0.2
 5 C  dxy             0.0       0.0       0.1       0.1       0.0       0.1
 6 C  s               3.5       0.3       2.8       4.3       0.0       4.3
 6 C  px              2.9       4.8       3.2       0.0       7.7       0.7
 6 C  py              6.0       2.3       3.5       2.4       7.1       0.4
 6 C  dx2y2           0.2       0.0       0.0       0.0       0.2       0.0
 6 C  dxy             0.0       0.2       0.1       0.1       0.0       0.1
 7 C  s               3.5      15.6       7.6       3.4       0.2       1.7
 7 C  px              0.6       0.1       1.0       0.6       1.1       3.5
 7 C  py              0.0       0.2       0.3       2.2       0.3       4.1
 7 C  dxy             0.0       0.0       0.0       0.1       0.0       0.1
 8 O  s               0.6       0.2       1.2       0.2       0.3       0.2
 8 O  px              1.9       2.9       4.4       6.4      17.0      14.4
 8 O  py              0.2       0.7       0.1       4.7       0.8       3.1
 8 O  dz2             0.1       0.0       0.1       0.0       0.0       0.1
 8 O  dx2y2           0.4       0.5       0.1       0.3       0.2       0.2
 8 O  dxy             0.0       0.0       0.6       0.2       0.6       0.1
 9 H  s               1.8       2.1       3.7       0.1       1.5       0.0
 9 H  pz              0.1       0.1       0.2       0.0       0.1       0.0
10 H  s               1.8       2.1       3.7       0.1       1.5       0.0
10 H  pz              0.1       0.1       0.2       0.0       0.1       0.0
11 H  s               2.2       2.3       3.2       0.0       2.3       0.1
11 H  py              0.2       0.2       0.3       0.0       0.1       0.0
12 H  s               1.7       0.9       0.4       5.4       1.2       1.1
12 H  py              0.1       0.1       0.0       0.4       0.1       0.0
13 H  s               0.1       1.5       1.7       1.8       0.9       5.8
13 H  px              0.0       0.1       0.0       0.0       0.1       0.2
13 H  py              0.0       0.1       0.1       0.1       0.0       0.1
14 H  s               2.2       1.4       0.1       1.6       3.9       0.4
14 H  py              0.2       0.1       0.0       0.1       0.2       0.0
15 H  s               0.5       3.4       2.3       1.3       0.2       1.6
15 H  pz              0.0       0.2       0.1       0.1       0.0       0.1
15 H  px              0.0       0.1       0.1       0.0       0.0       0.0
16 H  s               0.5       3.4       2.3       1.3       0.2       1.6
16 H  pz              0.0       0.2       0.1       0.1       0.0       0.1
16 H  px              0.0       0.1       0.1       0.0       0.0       0.0
17 H  s               0.8       3.5       1.9       1.9       0.1       1.5
17 H  py              0.1       0.2       0.1       0.1       0.0       0.0
18 H  s               0.6       0.9       1.0       2.5       4.1       4.3
18 H  py              0.1       0.1       0.2       0.1       0.3       0.2

                     18        19        20        21        22        23   
                  -0.45678  -0.43521  -0.40741  -0.40277  -0.37974  -0.37114
                   2.00000   2.00000   2.00000   2.00000   2.00000   2.00000
                  --------  --------  --------  --------  --------  --------
 0 C  s               0.2       0.6       0.0       0.1       0.0       0.0
 0 C  pz              0.0       0.0      19.1       0.0       0.0      25.2
 0 C  px              5.3      10.2       0.0       0.1       0.0       0.0
 0 C  py              3.9       4.2       0.0       0.1       7.2       0.0
 0 C  dxz             0.0       0.0       0.0       0.0       0.0       0.1
 0 C  dyz             0.0       0.0       0.1       0.0       0.0       0.1
 0 C  dx2y2           0.0       0.2       0.0       0.0       0.0       0.0
 1 C  s               1.1       3.2       0.0       1.6       0.0       0.0
 1 C  pz              0.0       0.0      10.2       0.0       0.0       1.2
 1 C  px              0.2       6.1       0.0       2.2       0.4       0.0
 1 C  py              8.8       0.2       0.0       0.5       0.2       0.0
 1 C  dxz             0.0       0.0       0.0       0.0       0.0       0.1
 1 C  dx2y2           0.0       0.0       0.0       0.3       0.1       0.0
 1 C  dxy             0.0       0.0       0.0       0.0       0.4       0.0
 2 C  s               0.1       0.6       0.0       0.7       1.1       0.0
 2 C  pz              0.0       0.0       2.4       0.0       0.0       0.2
 2 C  px             15.1       0.2       0.0       1.7       1.6       0.0
 2 C  py              0.1       0.4       0.0      26.2       1.5       0.0
 2 C  dx2y2           0.0       0.0       0.0       0.2       0.0       0.0
 2 C  dxy             0.1       0.1       0.0       0.3       0.1       0.0
 3 C  s               0.1       0.8       0.0       1.5       0.2       0.0
 3 C  pz              0.0       0.0       1.5       0.0       0.0       4.0
 3 C  px             14.2       4.4       0.0       0.3       8.5       0.0
 3 C  py              1.4       3.9       0.0       1.2       9.6       0.0
 3 C  dx2y2           0.1       0.0       0.0       0.2       0.1       0.0
 3 C  dxy             0.0       0.1       0.0       0.2       0.4       0.0
 4 C  s               0.3       0.2       0.0       2.1       0.1       0.0
 4 C  pz              0.0       0.0       2.7       0.0       0.0      15.7
 4 C  px              3.0       1.9       0.0       1.4       0.5       0.0
 4 C  py              6.5       1.4       0.0       0.0       3.3       0.0
 4 C  dx2y2           0.0       0.4       0.0       0.0       0.0       0.0
 4 C  dxy             0.0       0.4       0.0       0.3       0.2       0.0
 5 C  s               0.1       2.5       0.0       0.1       0.2       0.0
 5 C  pz              0.0       0.0       3.2       0.0       0.0       5.2
 5 C  px              2.9      12.8       0.0       0.2       1.1       0.0
 5 C  py              3.9       4.3       0.0       7.4      13.8       0.0
 5 C  dx2y2           0.0       0.3       0.0       0.0       0.2       0.0
 5 C  dxy             0.0       0.0       0.0       0.2       0.0       0.0
 6 C  s               0.0       1.9       0.0       1.0       0.1       0.0
 6 C  pz              0.0       0.0      11.3       0.0       0.0       1.4
 6 C  px              1.5       3.8       0.0       1.7       6.2       0.0
 6 C  py              3.9       1.8       0.0       0.7       4.7       0.0
 6 C  dx2y2           0.0       0.0       0.0       0.2       0.1       0.0
 6 C  dxy             0.0       0.1       0.0       0.1       0.0       0.0
 7 C  s               0.0       0.0       0.0       0.0       0.2       0.0
 7 C  pz              0.0       0.0      22.7       0.0       0.0       4.0
 7 C  px              4.0       3.2       0.0       0.3       4.6       0.0
 7 C  py              1.3       0.3       0.0      10.8       4.4       0.0
 7 C  dxz             0.0       0.0       0.1       0.0       0.0       0.0
 7 C  dxy             0.0       0.0       0.0       0.1       0.1       0.0
 8 O  s               2.0       0.2       0.0       0.9       0.4       0.0
 8 O  pz              0.0       0.0       1.6       0.0       0.0      23.0
 8 O  px              1.6       5.8       0.0       0.4       0.2       0.0
 8 O  py              8.5       0.1       0.0       5.6       3.2       0.0
 8 O  dz2             0.1       0.3       0.0       0.1       0.0       0.0
 8 O  dxz             0.0       0.0       0.1       0.0       0.0       0.6
 8 O  dyz             0.0       0.0       0.0       0.0       0.0       0.1
 8 O  dx2y2           0.2       0.0       0.0       0.2       0.0       0.0
 8 O  dxy             0.4       0.6       0.0       0.0       0.0       0.0
 9 H  s               1.6       0.8       5.4       0.0       0.5       7.8
 9 H  px              0.0       0.0       0.1       0.0       0.0       0.1
10 H  s               1.6       0.8       5.4       0.0       0.5       7.8
10 H  px              0.0       0.0       0.1       0.0       0.0       0.1
11 H  s               0.4       3.5       0.0       0.0       3.4       0.0
11 H  pz              0.0       0.0       0.1       0.0       0.0       0.2
11 H  py              0.0       0.1       0.0       0.0       0.1       0.0
12 H  s               0.4       0.0       0.0      17.1       0.3       0.0
12 H  py              0.0       0.0       0.0       0.4       0.0       0.0
13 H  s               0.8       5.8       0.0       1.5      10.8       0.0
13 H  py              0.1       0.1       0.0       0.0       0.1       0.0
14 H  s               0.9       7.9       0.0       3.4       6.5       0.0
14 H  py              0.0       0.3       0.0       0.0       0.1       0.0
15 H  s               0.6       0.4       6.4       0.0       0.9       1.0
15 H  px              0.0       0.0       0.1       0.0       0.0       0.0
16 H  s               0.6       0.4       6.4       0.0       0.9       1.0
16 H  px              0.0       0.0       0.1       0.0       0.0       0.0
17 H  s               1.0       0.4       0.0       4.8       0.4       0.0
17 H  pz              0.0       0.0       0.1       0.0       0.0       0.0
17 H  px              0.0       0.0       0.0       0.0       0.1       0.0
18 H  s               0.1       1.3       0.0       1.0       0.1       0.0
18 H  pz              0.0       0.0       0.0       0.0       0.0       0.3

                     24        25        26        27        28        29   
                  -0.36942  -0.36932  -0.35552  -0.33449  -0.31505  -0.29970
                   2.00000   2.00000   2.00000   2.00000   2.00000   2.00000
                  --------  --------  --------  --------  --------  --------
 0 C  s               0.1       0.0       0.1       0.0       0.5       0.0
 0 C  pz              0.1       8.4       0.0       0.0       0.0       0.0
 0 C  px              9.5       0.1       0.7       0.1      19.6       0.1
 0 C  py              7.4       0.0      20.5       9.8       0.1       1.7
 0 C  dz2             0.2       0.0       0.1       0.0       0.1       0.0
 0 C  dx2y2           0.0       0.0       0.3       0.2       0.0       0.1
 1 C  s               0.0       0.0       0.2       0.1       0.0       0.0
 1 C  pz              0.0       1.8       0.0       0.0       0.0       0.0
 1 C  px              6.1       0.0       3.4       0.2      14.0       0.0
 1 C  py              0.3       0.0       0.4       7.0       0.1      11.0
 1 C  dx2y2           0.0       0.0       0.1       0.1       0.6       0.2
 1 C  dxy             0.0       0.0       0.0       0.1       0.4       0.3
 2 C  s               0.5       0.0       0.0       0.0       0.2       0.2
 2 C  pz              0.0       2.4       0.0       0.0       0.0       0.0
 2 C  px              0.9       0.0       0.0       4.3       9.9       0.2
 2 C  py              0.0       0.0       3.2       0.1       0.1       8.3
 2 C  dx2y2           0.2       0.0       0.0       0.0       0.4       0.4
 2 C  dxy             0.1       0.0       0.0       0.0       0.1       0.4
 3 C  s               0.7       0.0       0.1       0.3       0.2       0.1
 3 C  pz              0.0       4.7       0.0       0.0       0.0       0.0
 3 C  px              0.7       0.0       0.0       2.7       8.2       0.5
 3 C  py              0.7       0.0       0.0       2.0       0.1       7.9
 3 C  dx2y2           0.1       0.0       0.0       0.1       0.1       0.1
 3 C  dxy             0.0       0.0       0.0       0.0       0.2       0.4
 4 C  s               0.2       0.0       0.2       0.1       0.2       0.0
 4 C  pz              0.1      11.7       0.0       0.0       0.0       0.0
 4 C  px              4.1       0.0       0.2       0.3       1.3       0.1
 4 C  py              0.1       0.0       0.1       3.4       0.1       9.9
 4 C  dx2y2           0.1       0.0       0.0       0.1       0.5       0.3
 4 C  dxy             0.2       0.0       0.0       0.3       0.1       0.4
 5 C  s               0.7       0.0       0.1       0.0       0.5       0.2
 5 C  pz              0.0       1.4       0.0       0.0       0.0       0.0
 5 C  px              0.8       0.0       0.4       6.3       7.0       0.4
 5 C  py              1.3       0.0       3.1       0.0       0.1       7.2
 5 C  dx2y2           0.0       0.0       0.0       0.0       0.1       0.3
 5 C  dxy             0.3       0.0       0.0       0.0       0.0       0.5
 6 C  s               0.2       0.0       0.2       0.1       0.1       0.0
 6 C  pz              0.0       0.7       0.0       0.0       0.0       0.0
 6 C  px              4.5       0.0       1.5       4.0       7.6       0.1
 6 C  py              3.9       0.0       0.2       4.5       0.1      10.6
 6 C  dyz             0.0       0.1       0.0       0.0       0.0       0.0
 6 C  dx2y2           0.0       0.0       0.0       0.3       0.5       0.1
 6 C  dxy             0.1       0.0       0.1       0.0       0.3       0.6
 7 C  s               0.2       0.0       0.1       0.0       0.1       0.4
 7 C  pz              0.2      26.7       0.0       0.0       0.0       0.0
 7 C  px             13.9       0.1       7.7       3.6       7.9       2.9
 7 C  py              0.5       0.0      19.8       3.8       0.2       5.0
 7 C  dz2             0.1       0.0       0.1       0.1       0.1       0.0
 7 C  dxz             0.0       0.3       0.0       0.0       0.0       0.0
 7 C  dx2y2           0.0       0.0       0.1       0.2       0.1       0.0
 7 C  dxy             0.1       0.0       0.2       0.0       0.0       0.1
 8 O  s               2.3       0.0       0.0       3.1       0.1       0.9
 8 O  pz              0.1      17.8       0.0       0.0       0.0       0.0
 8 O  px              4.0       0.0       0.0       1.3       2.8       0.6
 8 O  py             17.2       0.1       0.0      23.1       3.0       6.9
 8 O  dxz             0.0       0.4       0.0       0.0       0.0       0.0
 8 O  dyz             0.0       0.1       0.0       0.0       0.0       0.0
 8 O  dx2y2           0.2       0.0       0.0       0.1       0.0       0.1
 8 O  dxy             0.1       0.0       0.0       0.9       0.0       0.6
 9 H  s               2.5       2.7       1.1       0.7       1.9       0.2
 9 H  pz              0.1       0.0       0.1       0.0       0.1       0.0
 9 H  px              0.0       0.0       0.0       0.0       0.1       0.0
10 H  s               3.4       1.9       1.0       0.7       1.9       0.2
10 H  pz              0.1       0.0       0.1       0.0       0.1       0.0
10 H  px              0.0       0.0       0.0       0.0       0.1       0.0
11 H  s               2.7       0.0      10.9       6.2       0.0       1.6
11 H  px              0.1       0.0       0.0       0.0       0.2       0.0
11 H  py              0.0       0.0       0.2       0.1       0.0       0.0
12 H  s               0.3       0.0       1.5       0.0       0.9       6.5
13 H  s               0.1       0.0       0.0       0.1       2.4       3.1
14 H  s               1.2       0.0       2.1       0.3       0.4       5.6
15 H  s               1.6       9.1       2.1       0.9       1.3       0.1
15 H  px              0.0       0.2       0.0       0.0       0.0       0.0
15 H  py              0.0       0.0       0.1       0.0       0.0       0.1
16 H  s               3.0       7.7       2.1       0.9       1.3       0.1
16 H  px              0.0       0.2       0.0       0.0       0.0       0.0
16 H  py              0.0       0.0       0.1       0.0       0.0       0.1
17 H  s               0.6       0.0      14.4       4.4       0.9       1.0
17 H  pz              0.0       0.2       0.0       0.0       0.0       0.0
17 H  py              0.1       0.0       0.2       0.0       0.0       0.0
18 H  s               0.4       0.0       0.0       1.9       0.1       0.8
18 H  pz              0.0       0.3       0.0       0.0       0.0       0.0
18 H  px              0.2       0.0       0.0       0.2       0.1       0.1
18 H  py              0.1       0.0       0.0       0.0       0.0       0.0

                     30        31        32        33        34        35   
                  -0.29338  -0.22624  -0.19390  -0.02554  -0.00857   0.06085
                   2.00000   2.00000   2.00000   0.00000   0.00000   0.00000
                  --------  --------  --------  --------  --------  --------
 0 C  pz              3.7       0.0       1.1       0.3       0.0       0.0
 0 C  px              0.0       0.0       0.0       0.0       0.0       0.2
 0 C  dxz             0.2       0.0       0.5       0.0       1.0       0.0
 1 C  s               0.0       0.0       0.0       0.0       0.0       0.2
 1 C  pz             12.0       0.0      24.9       0.2      28.2       0.0
 1 C  px              0.0       0.0       0.0       0.0       0.0       0.3
 1 C  py              0.0       0.0       0.0       0.0       0.0       0.1
 1 C  dxz             0.3       0.0       0.1       0.1       0.2       0.0
 1 C  dyz             0.0       0.5       0.0       1.4       0.0       0.0
 2 C  s               0.0       0.0       0.0       0.0       0.0       1.3
 2 C  pz             20.2      19.7       4.6      23.4       7.9       0.0
 2 C  px              0.0       0.0       0.0       0.0       0.0       0.4
 2 C  py              0.0       0.0       0.0       0.0       0.0       0.4
 2 C  dz2             0.0       0.0       0.0       0.0       0.0       0.1
 2 C  dxz             0.0       0.2       0.5       0.4       0.7       0.0
 2 C  dyz             0.1       0.0       0.1       0.1       0.3       0.0
 3 C  s               0.0       0.0       0.0       0.0       0.0       3.3
 3 C  pz              9.8      19.9      12.9      21.0       5.1       0.0
 3 C  px              0.0       0.0       0.0       0.0       0.0       9.7
 3 C  py              0.0       0.0       0.0       0.0       0.0       1.2
 3 C  dxz             0.2       0.1       0.1       0.5       0.3       0.0
 3 C  dyz             0.0       0.0       0.2       0.0       0.9       0.0
 3 C  dx2y2           0.0       0.0       0.0       0.0       0.0       0.5
 4 C  s               0.0       0.0       0.0       0.0       0.0       3.5
 4 C  pz              0.0       0.2      14.9       0.0      26.3       0.0
 4 C  px              0.0       0.0       0.0       0.0       0.0       7.5
 4 C  py              0.0       0.0       0.0       0.0       0.0       0.8
 4 C  dz2             0.0       0.0       0.0       0.0       0.0       0.4
 4 C  dxz             0.6       0.1       0.7       0.1       0.0       0.0
 4 C  dyz             0.1       0.6       0.1       1.2       0.0       0.0
 4 C  dx2y2           0.0       0.0       0.0       0.0       0.0       0.5
 5 C  s               0.0       0.0       0.0       0.0       0.0       1.2
 5 C  pz              4.6      29.8       7.6      21.2       5.0       0.0
 5 C  px              0.0       0.0       0.0       0.0       0.0       1.1
 5 C  py              0.0       0.0       0.0       0.0       0.0       0.3
 5 C  dxz             0.1       0.1       0.2       0.5       0.9       0.0
 5 C  dyz             0.0       0.0       0.1       0.1       0.4       0.0
 5 C  dx2y2           0.0       0.0       0.0       0.0       0.0       0.4
 6 C  s               0.0       0.0       0.0       0.0       0.0       0.3
 6 C  pz              8.3      20.9       5.2      22.8       7.2       0.0
 6 C  px              0.0       0.0       0.0       0.0       0.0       0.2
[...]
 9 H  pz              5.9       1.8       0.8       1.5       0.0       0.0
 9 H  px              2.8       0.2       0.0       0.6       0.0       0.0
 9 H  py              1.6       0.0       0.0       0.0       0.0       0.0
10 H  s               4.2       0.8       0.3       0.7       0.0       0.0
10 H  pz              5.9       1.7       0.8       1.5       0.0       0.0
10 H  px              2.8       0.2       0.0       0.6       0.0       0.0
10 H  py              1.6       0.0       0.0       0.0       0.0       0.0
11 H  s               0.0       3.4       1.5       1.7       0.7       0.0
11 H  pz              0.3       0.0       0.0       0.0       0.0       0.0
11 H  px              0.0       0.2       0.0       0.2       0.0       0.0
11 H  py              0.0       7.8       3.4       3.4       1.3       0.0
12 H  s               0.0       1.5       0.6       0.5       3.2       0.6
12 H  px              0.0       0.1       0.4       0.0       0.8       0.0
12 H  py              0.0       4.5       1.5       1.4       6.6       1.0
13 H  s               0.0       0.6       0.5       0.5       1.7       1.2
13 H  px              0.0       0.6       1.4       0.3       1.8       0.8
13 H  py              0.0       1.2       0.4       1.0       2.0       1.1
14 H  s               0.0       5.1       0.1       0.1       1.0       0.9
14 H  px              0.0       1.5       0.2       0.0       0.2       0.1
14 H  py              0.0      14.4       0.1       0.2       2.0       1.4
15 H  s               3.9       0.1       0.4       0.9       0.0       0.0
15 H  pz              5.6       0.4       0.8       1.8       0.0       0.0
15 H  px              4.1       0.0       0.0       0.6       0.0       0.0
15 H  py              0.0       0.0       0.0       0.2       0.0       0.0
16 H  s               4.0       0.1       0.4       0.9       0.0       0.0
16 H  pz              5.6       0.4       0.8       1.8       0.0       0.0
16 H  px              4.1       0.0       0.0       0.6       0.0       0.0
16 H  py              0.0       0.0       0.0       0.2       0.0       0.0
17 H  s               0.0       0.4       2.7       3.0       0.4       0.1
17 H  pz              0.2       0.0       0.0       0.0       0.0       0.0
17 H  px              0.0       0.2       1.9       0.8       0.2       0.0
17 H  py              0.0       0.9       4.4       5.9       0.6       0.1
18 H  s               0.0       0.0       0.0       0.0       0.0       1.4
18 H  px              0.0       0.0       0.8       0.3       0.1       0.9
18 H  py              0.0       0.1       0.5       0.0       0.0       1.4

                    216       217       218       219       220       221   
                   4.59983  21.35358  21.83409  21.94679  22.02463  22.08588
                   0.00000   0.00000   0.00000   0.00000   0.00000   0.00000
                  --------  --------  --------  --------  --------  --------
 0 C  s               0.0       1.6      17.9       8.1      34.2      33.3
 1 C  s               0.0      22.0       9.5      14.1       9.7       0.0
 1 C  px              0.0       0.0       0.0       0.0       0.0       0.1
 1 C  py              0.0       0.0       0.0       0.2       0.0       0.0
 2 C  s               0.0      15.3       2.5      24.3       0.3       5.3
 2 C  dx2y2           0.1       0.0       0.0       0.0       0.0       0.0
 3 C  s               0.1      11.0      21.8       3.2       8.9       6.4
 3 C  py              0.2       0.0       0.0       0.0       0.0       0.0
 3 C  dxy             0.7       0.0       0.0       0.0       0.0       0.0
 4 C  s               0.2       9.4      19.5       3.9       9.8       5.5
 4 C  px              1.4       0.0       0.0       0.0       0.0       0.0
 4 C  py              0.4       0.0       0.0       0.0       0.0       0.0
 4 C  dz2             0.1       0.0       0.0       0.0       0.0       0.0
 4 C  dx2y2           2.0       0.0       0.0       0.0       0.0       0.0
 4 C  dxy             0.9       0.0       0.0       0.0       0.0       0.0
 5 C  s               0.2      14.9       2.0      24.0       0.3       7.8
 5 C  py              0.1       0.0       0.0       0.0       0.0       0.0
 5 C  dx2y2           0.2       0.0       0.0       0.0       0.0       0.0
 5 C  dxy             0.2       0.0       0.0       0.0       0.0       0.0
 6 C  s               0.1      23.5       9.2      12.4      10.6       0.2
 6 C  py              0.0       0.0       0.0       0.1       0.0       0.0
 7 C  s               0.0       2.1      17.1       9.3      25.8      40.9
 8 O  s               4.3       0.0       0.1       0.0       0.0       0.0
 8 O  px             14.3       0.0       0.0       0.0       0.0       0.0
 8 O  py              8.4       0.0       0.0       0.0       0.0       0.0
 8 O  dz2             3.7       0.0       0.0       0.0       0.0       0.0
 8 O  dx2y2           8.9       0.0       0.0       0.0       0.0       0.0
 8 O  dxy            25.2       0.0       0.0       0.0       0.0       0.0
13 H  s               0.1       0.0       0.0       0.0       0.0       0.0
13 H  px              0.1       0.0       0.0       0.0       0.0       0.0
18 H  s              12.9       0.0       0.0       0.0       0.0       0.0
18 H  px              4.9       0.0       0.0       0.0       0.0       0.0
18 H  py              9.7       0.0       0.0       0.0       0.0       0.0

                    222       223       224       225   
                  22.19204  22.19935  22.35288  43.63270
                   0.00000   0.00000   0.00000   0.00000
                  --------  --------  --------  --------
 0 C  s               3.8       0.4       0.0       0.0
 1 C  s              18.9       9.1      16.3       0.0
 2 C  s               0.0      33.4      18.5       0.0
 3 C  s              26.4       7.9      13.9       0.0
 4 C  s              25.6      11.3      14.5       0.0
 5 C  s               0.3      30.7      19.6       0.0
 6 C  s              20.9       6.1      16.9       0.0
 7 C  s               3.8       0.5       0.0       0.0
 8 O  s               0.0       0.0       0.0      99.9


                      *****************************
                      * MAYER POPULATION ANALYSIS *
                      *****************************

  NA   - Mulliken gross atomic population
  ZA   - Total nuclear charge
  QA   - Mulliken gross atomic charge
  VA   - Mayer's total valence
  BVA  - Mayer's bonded valence
  FA   - Mayer's free valence

  ATOM       NA         ZA         QA         VA         BVA        FA
  0 C      6.5537     6.0000    -0.5537     3.7295     3.7295    -0.0000
  1 C      5.8645     6.0000     0.1355     3.6013     3.6013     0.0000
  2 C      6.1976     6.0000    -0.1976     3.8989     3.8989     0.0000
  3 C      6.3569     6.0000    -0.3569     3.8134     3.8134     0.0000
  4 C      5.5653     6.0000     0.4347     3.7606     3.7606    -0.0000
  5 C      6.3968     6.0000    -0.3968     3.9818     3.9818    -0.0000
  6 C      5.7751     6.0000     0.2249     3.5260     3.5260     0.0000
  7 C      6.5577     6.0000    -0.5577     3.7294     3.7294     0.0000
  8 O      8.4186     8.0000    -0.4186     1.9900     1.9900     0.0000
  9 H      0.8413     1.0000     0.1587     0.9571     0.9571    -0.0000
 10 H      0.8410     1.0000     0.1590     0.9570     0.9570    -0.0000
 11 H      0.8515     1.0000     0.1485     0.9665     0.9665    -0.0000
 12 H      0.8550     1.0000     0.1450     0.9708     0.9708     0.0000
 13 H      0.8645     1.0000     0.1355     0.9742     0.9742    -0.0000
 14 H      0.8451     1.0000     0.1549     0.9700     0.9700     0.0000
 15 H      0.8383     1.0000     0.1617     0.9571     0.9571    -0.0000
 16 H      0.8384     1.0000     0.1616     0.9572     0.9572     0.0000
 17 H      0.8478     1.0000     0.1522     0.9650     0.9650     0.0000
 18 H      0.6910     1.0000     0.3090     0.9045     0.9045     0.0000

  Mayer bond orders larger than 0.100000
B(  0-C ,  1-C ) :   0.7920 B(  0-C ,  9-H ) :   0.9811 B(  0-C , 10-H ) :   0.9811 
B(  0-C , 11-H ) :   0.9900 B(  1-C ,  2-C ) :   1.4478 B(  1-C ,  6-C ) :   1.4368 
B(  2-C ,  3-C ) :   1.4309 B(  2-C , 12-H ) :   0.9191 B(  3-C ,  4-C ) :   1.3497 
B(  3-C , 13-H ) :   0.9339 B(  4-C ,  5-C ) :   1.4775 B(  4-C ,  8-O ) :   0.9037 
B(  5-C ,  6-C ) :   1.3939 B(  5-C ,  8-O ) :   0.1138 B(  5-C , 14-H ) :   0.9218 
B(  6-C ,  7-C ) :   0.7793 B(  7-C , 15-H ) :   0.9797 B(  7-C , 16-H ) :   0.9798 
B(  7-C , 17-H ) :   0.9886 B(  8-O , 18-H ) :   0.8847 

-------
TIMINGS
-------

Total SCF time: 0 days 0 hours 0 min 22 sec 

Total time                  ....      22.726 sec
Sum of individual times     ....      22.275 sec  ( 98.0%)

SCF preparation             ....       0.174 sec  (  0.8%)
Fock matrix formation       ....      21.225 sec  ( 93.4%)
  Startup                   ....       0.053 sec  (  0.2% of F)
  Split-RI-J                ....       4.429 sec  ( 20.9% of F)
  XC integration            ....      16.226 sec  ( 76.4% of F)
    XC Preparation          ....       0.000 sec  (  0.0% of XC)
    Basis function eval.    ....       2.746 sec  ( 16.9% of XC)
    Density eval.           ....       5.126 sec  ( 31.6% of XC)
    XC-Functional eval.     ....       1.783 sec  ( 11.0% of XC)
    XC-Potential eval.      ....       5.717 sec  ( 35.2% of XC)
Diagonalization             ....       0.000 sec  (  0.0%)
Density matrix formation    ....       0.232 sec  (  1.0%)
Total Energy calculation    ....       0.031 sec  (  0.1%)
Population analysis         ....       0.109 sec  (  0.5%)
Orbital Transformation      ....       0.052 sec  (  0.2%)
Orbital Orthonormalization  ....       0.000 sec  (  0.0%)
DIIS solution               ....       0.404 sec  (  1.8%)
  MO trafo                  ....       0.000 sec  (  0.0 % of DIIS)
  Orb grad                  ....       0.000 sec  (  0.0 % of DIIS)
  Energy W gradient         ....       0.000 sec  (  0.0 % of DIIS)
  DIIS error                ....       0.012 sec  (  3.0 % of DIIS)
  DIIS work                 ....       0.343 sec  ( 85.0 % of DIIS)
  Form Q                    ....       0.000 sec  (  0.0 % of DIIS)
  Form QpQm                 ....       0.000 sec  (  0.0 % of DIIS)
  Exp/Cayley                ....       0.000 sec  (  0.0 % of DIIS)
  Orb update                ....       0.000 sec  (  0.0 % of DIIS)
  Wake-sleep                ....       0.021 sec  (  5.2 % of DIIS)
SOSCF solution              ....       0.047 sec  (  0.2%)
  MO trafo                  ....       0.036 sec  ( 76.6 % of SOSCF)
  Orb grad                  ....       0.001 sec  (  1.1 % of SOSCF)
  Rot update                ....       0.000 sec  (  0.1 % of SOSCF)
  Step                      ....       0.010 sec  ( 22.1 % of SOSCF)
Finished LeanSCF after  22.8 sec

Maximum memory used throughout the entire LEANSCF-calculation: 25.0 MB


-------------------------------------------------------------------------------
                          DFT DISPERSION CORRECTION                            
                                                                               
                                DFTD4 V3.4.0                                   
-------------------------------------------------------------------------------
The R2SCAN3C composite method is recognized
Using three-body term ABC
Active option DFTDOPT                   ...         5   

-------------------------   ----------------
Dispersion correction           -0.006252194
-------------------------   ----------------

------------------   -----------------
gCP correction             0.007301858
------------------   -----------------

-------------------------   --------------------
FINAL SINGLE POINT ENERGY      -386.004783850991
-------------------------   --------------------


------------------------------------------------------------------------------
                              ORCA PROPERTY CALCULATIONS
------------------------------------------------------------------------------

GBWName                                 ... sp_gas.gbw
Number of atoms                         ...     19
Number of basis functions               ...    226
Max core memory                         ...   1024 MB

Electric properties:
Dipole moment                           ... YES
Quadrupole moment                       ...  NO
Static polarizability (Dipole/Dipole)   ...  NO
Static polarizability (Dipole/Quad.)    ...  NO
Static polarizability (Quad./Quad.)     ...  NO
Static polarizability (Velocity)        ...  NO

Atomic electric properties:
Dipole moment                           ...  NO
Quadrupole moment                       ...  NO
Static polarizability                   ...  NO

Choice of electric origin               ... Center of mass
Position of electric origin             ...    -0.000032    -0.000002    -0.000000

General magnetic properties:
Magnetizability                         ...  NO

EPR properties:
g-Tensor (aka g-matrix)                 ...  NO
Zero-Field splitting spin-orbit         ...  NO
Zero-field splitting spin-spin          ...  NO
Hyperfine couplings                     ...  NO (   0 nuclei)
Quadrupole couplings                    ...  NO (   0 nuclei)
Contact density                         ...  NO (   0 nuclei)

NMR properties:
Chemical shifts                         ...  NO (   0 nuclei)
Spin-rotation constants                 ...  NO (   0 nuclei)
Spin-spin couplings                     ...  NO (   0 nuclei,    0 pairs)

Choice of magnetic origin               ... GIAO
Position of magnetic origin             ...     0.000000     0.000000     0.000000

Properties with geometric perturbations:
SCF Hessian                             ...  NO
IR spectrum                             ...  NO
VCD spectrum                            ...  NO
X-ray spectroscopy properties:
SCF XES/XAS/RIXS spectra                ...  NO


-------------
DIPOLE MOMENT
-------------

Method             : SCF
Type of density    : Electron Density
Multiplicity       :   1
Irrep              :   0
Energy             :  -386.0058335144544230 Eh
Relativity type    : 
Basis              : AO
                                X                 Y                 Z
Electronic contribution:      8.429418563      -0.792738873       0.001167383
Nuclear contribution   :     -8.551741699       0.405711792      -0.001508359
                        -----------------------------------------
Total Dipole Moment    :     -0.122323136      -0.387027081      -0.000340976
                        -----------------------------------------
Magnitude (a.u.)       :      0.405897804
Magnitude (Debye)      :      1.031710226



--------------------
Rotational spectrum 
--------------------
 
Rotational constants in cm-1:             0.101087             0.043776             0.030896 
Rotational constants in MHz :          3030.502174          1312.365942           926.251105 

Dipole components along the rotational axes: 
x,y,z [a.u.] :    -0.122321     0.387028    -0.000341 
x,y,z [Debye]:    -0.310916     0.983746    -0.000867 

 

Dipole moment calculation done in   0.0 sec 

Maximum memory used throughout the entire PROP-calculation: 14.6 MB

--------------------------------
SUGGESTED CITATIONS FOR THIS RUN
--------------------------------

Below you find a list of papers that are relevant to this ORCA run
We neither can nor want to force you to cite these papers, but we appreciate if you do
You receive ORCA, which is the product of decades of hard work by many enthusiastic individuals, for free
The only thing we kindly ask in return is that you cite our papers,
We deeply appreciate it, if you show your appreciation for ORCA by not just citing the generic ORCA reference.

Please note that relegating all ORCA citations to the supporting information does *not* help us.
SI sections are not indexed - citations you put there will not count into any citation statistics
But we need these citations in order to attract the funding resources that allow us to do what we are doing

Therefore, if you are a happy ORCA user, please consider citing a few of the papers listed below in the main body of your paper

In addition to the list printed below, the program has created the file sp_gas.bibtex that contains the list in bibtex format
You can import this file easily into all common literature databanks and citation aid programs


List of essential papers. We consider these as the minimum necessary citations

  1. Neese,F.
     Software update: the ORCA program system, version 5.0
     WIRES Comput. Molec. Sci., 2022 12(1)e1606
     doi.org/10.1002/wcms.1606
  2. Grimme,S.; Hansen,A.; Ehlert,S.; Mewes,J.
     r2SCAN-3c: A 'Swiss army knife' composite electronic-structure method
     J. Chem. Phys., 2021 154 064103
     doi.org/10.1063/5.0040021

List of papers to cite with high priority. The work reported in these papers was absolutely
necessary for this run to complete.
Our perspective: the developers of density functionals and basis sets usually get cited in chemistry papers
Good! But without the algorithms to do something with them, the functionals or basis sets would not do anything.
Hence, in our opinion, the algorithm design and method developments papers are equally worthy of getting cited

  1. Neese,F.
     An improvement of the resolution of the identity approximation for the formation of the Coulomb matrix
     J. Comp. Chem., 2003 24(14)1740-1747
     doi.org/10.1002/jcc.10318
  2. Neese,F.
     The SHARK Integral Generation and Digestion System
     J. Comp. Chem., 2022  1-16
     doi.org/10.1002/jcc.26942
  3. Lehtola,S.; Steigemann,C.; Oliveira,M.; Marques,M.
     Recent developments in Libxc - A comprehensive library of functionals for density functional theory
     Software X, 2018 7 
     doi.org/10.1016/j.softx.2017.11.002
  4. Caldeweyher,E.; Bannwarth,C.; Grimme,S.
     Extension of the D3 dispersion coefficient model
     J. Chem. Phys., 2017 147 034112-XXXX
     doi.org/10.1063/1.4993215
  5. Caldeweyher,E.; Ehlert,S.; Hansen,A.; Neugebauer,H.; Spicher,S.; Bannwarth,C.; Grimme,S.
     A generally applicable atomic-charge dependent London dispersion correction
     J. Chem. Phys., 2019 150 154122-XXXX
     doi.org/10.1063/1.5090222
  6. Caldeweyher,E.; Mewes,J.; Ehlert,S.; Grimme,S.
     Extension and evaluation of the D4 London-dispersion model for periodic systems
     Phys. Chem. Chem. Phys., 2020 22(16)8499-8512
     doi.org/10.1039/D0CP00502A

List of suggested additional citations. These are papers that are important in the 'surrounding' of 
of this run, or papers that preceded the highly important papers. If you like your results we are grateful for a citation.

  1. Neese,F.
     The ORCA program system
     WIRES Comput. Molec. Sci., 2012 2(1)73-78
     doi.org/10.1002/wcms.81
  2. Neese,F.
     Software update: the ORCA program system, version 4.0
     WIRES Comput. Molec. Sci., 2018 8(1)1-6
     doi.org/10.1002/wcms.1327
  3. Neese,F.; Wennmohs,F.; Becker,U.; Riplinger,C.
     The ORCA quantum chemistry program package
     J. Chem. Phys., 2020 152 Art. No. L224108
     doi.org/10.1063/5.0004608

List of optional additional citations

  1. Neese,F.
     Approximate second-order SCF convergence for spin unrestricted wavefunctions
     Chem. Phys. Lett., 2000 325(1-3)93-98
     doi.org/10.1016/s0009-2614(00)00662-x

Timings for individual modules:

Sum of individual times          ...       24.333 sec (=   0.406 min)
Startup calculation              ...        1.113 sec (=   0.019 min)   4.6 %
SCF iterations                   ...       23.114 sec (=   0.385 min)  95.0 %
Property calculations            ...        0.106 sec (=   0.002 min)   0.4 %
                             ****ORCA TERMINATED NORMALLY****
TOTAL RUN TIME: 0 days 0 hours 0 minutes 25 seconds 572 msec
