
                                 *****************
                                 * O   R   C   A *
                                 *****************

                                            #,                                       
                                            ###                                      
                                            ####                                     
                                            #####                                    
                                            ######                                   
                                           ########,                                 
                                     ,,################,,,,,                         
                               ,,#################################,,                 
                          ,,##########################################,,             
                       ,#########################################, ''#####,          
                    ,#############################################,,   '####,        
                  ,##################################################,,,,####,       
                ,###########''''           ''''###############################       
              ,#####''   ,,,,##########,,,,          '''####'''          '####       
            ,##' ,,,,###########################,,,                        '##       
           ' ,,###''''                  '''############,,,                           
         ,,##''                                '''############,,,,        ,,,,,,###''
      ,#''                                            '''#######################'''  
     '                                                          ''''####''''         
             ,#######,   #######,   ,#######,      ##                                
            ,#'     '#,  ##    ##  ,#'     '#,    #''#        ,####,   ,####,        
            ##       ##  ##   ,#'  ##            #'  '#       #'       #'  '#        
            ##       ##  #######   ##           ,######,      #####,   #    #        
            '#,     ,#'  ##    ##  '#,     ,#' ,#      #,     #,   #   #,  ,#        
             '#######'   ##     ##  '#######'  #'      '#     '####' # '####'        



                #########################################################
                #                        -***-                          #
                #          Department of theory and spectroscopy        #
                #                                                       #
                #                      Frank Neese                      #
                #                                                       #
                #     Directorship, Architecture, Infrastructure        #
                #                    SHARK, DRIVERS                     #
                #        Core code/Algorithms in most modules           #
                #                                                       #
                #        Max Planck Institute fuer Kohlenforschung      #
                #                Kaiser Wilhelm Platz 1                 #
                #                 D-45470 Muelheim/Ruhr                 #
                #                      Germany                          #
                #                                                       #
                #                  All rights reserved                  #
                #                        -***-                          #
                #########################################################


                         Program Version 6.0.0  -   RELEASE  -


 With contributions from (in alphabetic order):
   Daniel Aravena         : Magnetic Suceptibility
   Michael Atanasov       : Ab Initio Ligand Field Theory (pilot matlab implementation)
   Alexander A. Auer      : GIAO ZORA, VPT2 properties, NMR spectrum
   Ute Becker             : All parallelization in ORCA, NUMFREQ, NUMCALC
   Giovanni Bistoni       : ED, misc. LED, open-shell LED, HFLD
   Martin Brehm           : Molecular dynamics
   Dmytro Bykov           : pre 5.0 version of the SCF Hessian
   Marcos Casanova-Páez   : Triplet and SCS-CIS(D). UHF-(DLPNO)-IP/EA/STEOM-CCSD. UHF-CVS-IP/STEOM-CCSD
   Vijay G. Chilkuri      : MRCI spin determinant printing, contributions to CSF-ICE
   Pauline Colinet        : FMM embedding
   Dipayan Datta          : RHF DLPNO-CCSD density
   Achintya Kumar Dutta   : EOM-CC, STEOM-CC
   Nicolas Foglia         : Exact transition moments, OPA infrastructure, MCD improvements
   Dmitry Ganyushin       : Spin-Orbit,Spin-Spin,Magnetic field MRCI
   Miquel Garcia          : C-PCM and meta-GGA Hessian, CCSD/C-PCM, Gaussian charge scheme
   Tiago L. C. Gouveia    : GS-ROHF, GS-ROCIS
   Yang Guo               : DLPNO-NEVPT2, F12-NEVPT2, CIM, IAO-localization
   Andreas Hansen         : Spin unrestricted coupled pair/coupled cluster methods
   Ingolf Harden          : AUTO-CI MPn and infrastructure 
   Benjamin Helmich-Paris : MC-RPA, TRAH-(SCF,CASSCF), AVAS, COSX integrals, SCF dyn. polar.
   Lee Huntington         : MR-EOM, pCC
   Robert Izsak           : Overlap fitted RIJCOSX, COSX-SCS-MP3, EOM
   Riya Kayal             : Wick's Theorem for AUTO-CI, AUTO-CI UHF-CCSDT
   Emily Kempfer          : AUTO-CI, RHF CISDT and CCSDT
   Christian Kollmar      : KDIIS, OOCD, Brueckner-CCSD(T), CCSD density, CASPT2, CASPT2-K, improved NEVPT2
   Axel Koslowski         : Symmetry handling
   Simone Kossmann        : Meta GGA functionals, TD-DFT gradient, OOMP2, (MP2 Hessian; deprecated post 5.0)
   Lucas Lang             : DCDCAS
   Marvin Lechner         : AUTO-CI (C++ implementation), FIC-MRCC
   Spencer Leger          : CASSCF response
   Dagmar Lenk            : GEPOL surface, SMD, ORCA-2-JSON
   Dimitrios Liakos       : Extrapolation schemes; Compound Job, initial MDCI parallelization
   Dimitrios Manganas     : Further ROCIS development; embedding schemes. LFT, Crystal Embedding
   Dimitrios Pantazis     : SARC Basis sets
   Anastasios Papadopoulos: AUTO-CI, single reference methods and gradients
   Taras Petrenko         : pre 6.0 DFT Hessian and TD-DFT gradient, (ASA, deprecated), ECA, 1-Electron XAS/XES, NRVS
   Peter Pinski           : DLPNO-MP2, DLPNO-MP2 Gradient
   Christoph Reimann      : Effective Core Potentials
   Marius Retegan         : Local ZFS, SOC
   Christoph Riplinger    : Optimizer, TS searches, QM/MM, DLPNO-CCSD(T), (RO)-DLPNO pert. Triples
   Michael Roemelt        : Original ROCIS implementation
   Masaaki Saitow         : Open-shell DLPNO-CCSD energy and density
   Barbara Sandhoefer     : DKH picture change effects
   Kantharuban Sivalingam : CASSCF convergence/infrastructure, NEVPT2 and variants, FIC-MRCI
   Bernardo de Souza      : ESD, SOC TD-DFT
   Georgi Stoychev        : AutoAux, RI-MP2 NMR, DLPNO-MP2 response, X2C
   Van Anh Tran           : RI-MP2 g-tensors
   Willem Van den Heuvel  : Paramagnetic NMR
   Zikuan Wang            : NOTCH, Electric field optimization 
   Frank Wennmohs         : Technical directorship and infrastructure
   Hang Xu                : AUTO-CI-Response properties 


 We gratefully acknowledge several colleagues who have allowed us to
 interface, adapt or use parts of their codes:
   Stefan Grimme, W. Hujo, H. Kruse, P. Pracht,  : VdW corrections, initial TS optimization,
                  C. Bannwarth, S. Ehlert,         DFT functionals, gCP, sTDA/sTD-DF
                  L. Wittmann, M. Mueller
   Ed Valeev, F. Pavosevic, A. Kumar             : LibInt (2-el integral package), F12 methods
   Garnet Chan, S. Sharma, J. Yang, R. Olivares  : DMRG
   Ulf Ekstrom                                   : XCFun DFT Library
   Mihaly Kallay                                 : mrcc  (arbitrary order and MRCC methods)
   Frank Weinhold                                : gennbo (NPA and NBO analysis)
   Simon Mueller                                 : openCOSMO-RS
   Christopher J. Cramer and Donald G. Truhlar   : smd solvation model
   Lars Goerigk                                  : TD-DFT with DH, B97 family of functionals
   V. Asgeirsson, H. Jonsson                     : NEB implementation
   FAccTs GmbH                                   : IRC, NEB, NEB-TS, DLPNO-Multilevel, CI-OPT
                                                   MM, QMMM, 2- and 3-layer-ONIOM, Crystal-QMMM,
                                                   LR-CPCM, SF, NACMEs, symmetry and pop. for TD-DFT,
                                                   nearIR, NL-DFT gradient (VV10), updates on ESD,
                                                   ML-optimized integration grids, MBIS, APM,
                                                   GOAT, DOCKER, SOLVATOR, interface openCOSMO-RS
   S Lehtola, MJT Oliveira, MAL Marques          : LibXC Library
   Liviu Ungur et al                             : ANISO software


 Your calculation uses the libint2 library for the computation of 2-el integrals
 For citations please refer to: http://libint.valeyev.net

 Your ORCA version has been built with support for libXC version: 6.2.2
 For citations please refer to: https://libxc.gitlab.io

 This ORCA versions uses:
   CBLAS   interface :  Fast vector & matrix operations
   LAPACKE interface :  Fast linear algebra routines
   SCALAPACK package :  Parallel linear algebra routines
   Shared memory     :  Shared parallel matrices
   BLAS/LAPACK       :  OpenBLAS 0.3.27  USE64BITINT DYNAMIC_ARCH NO_AFFINITY SkylakeX SINGLE_THREADED
        Core in use  :  SkylakeX
   Copyright (c) 2011-2014, The OpenBLAS Project


Your calculation utilizes the geometrical counterpoise correction gCP
Please cite in your paper:
H.Kruse, S. Grimme J.Chem.Phys., 136, (2012), 154101 
   

Your calculation utilizes the atom-pairwise dispersion correction
based on EEQ partial charges (D4)


================================================================================

----- Orbital basis set information -----
Your calculation utilizes the basis: def2-mTZVPP
   Stefan Grimme, Andreas Hansen, Sebastian Ehlert, and Jan-Michael Mewes 
   J. Chem. Phys. 154, 064103 (2021). DOI: 10.1063/5.0040021

----- AuxJ basis set information -----
Your calculation utilizes the auxiliary basis: def2/J
   F. Weigend, Phys. Chem. Chem. Phys. 8, 1057 (2006).

================================================================================
                                        WARNINGS
                       Please study these warnings very carefully!
================================================================================

Using LibXC functional ID 497 : Re-regularized SCAN exchange by Furness et al
[ 1]  J. W. Furness, A. D. Kaplan, J. Ning, J. P. Perdew, and J. Sun.,  J. Phys. Chem. Lett. 11, 8208-8215 (2020)
[ 2]  J. W. Furness, A. D. Kaplan, J. Ning, J. P. Perdew, and J. Sun.,  J. Phys. Chem. Lett. 11, 9248-9248 (2020)
Using LibXC functional ID 498 : Re-regularized SCAN correlation by Furness et al
[ 1]  J. W. Furness, A. D. Kaplan, J. Ning, J. P. Perdew, and J. Sun.,  J. Phys. Chem. Lett. 11, 8208-8215 (2020)
[ 2]  J. W. Furness, A. D. Kaplan, J. Ning, J. P. Perdew, and J. Sun.,  J. Phys. Chem. Lett. 11, 9248-9248 (2020)
Using LibXC functional ID 497 : Re-regularized SCAN exchange by Furness et al
[ 1]  J. W. Furness, A. D. Kaplan, J. Ning, J. P. Perdew, and J. Sun.,  J. Phys. Chem. Lett. 11, 8208-8215 (2020)
[ 2]  J. W. Furness, A. D. Kaplan, J. Ning, J. P. Perdew, and J. Sun.,  J. Phys. Chem. Lett. 11, 9248-9248 (2020)
Using LibXC functional ID 498 : Re-regularized SCAN correlation by Furness et al
[ 1]  J. W. Furness, A. D. Kaplan, J. Ning, J. P. Perdew, and J. Sun.,  J. Phys. Chem. Lett. 11, 8208-8215 (2020)
[ 2]  J. W. Furness, A. D. Kaplan, J. Ning, J. P. Perdew, and J. Sun.,  J. Phys. Chem. Lett. 11, 9248-9248 (2020)

================================================================================
                                       INPUT FILE
================================================================================
NAME = sp_gas.inp
|  1> ! r2scan-3c def2/J RI DEFGRID2 scfconv6 printgap
|  2> %output
|  3>     printlevel normal
|  4> end
|  5> * xyz 0 1
|  6> C -2.6327240289 0.6060545663 0.7598941452
|  7> C -1.8479771513 0.5831526273 -0.5533768623
|  8> C -0.3811905994 0.3886646413 -0.2943208731
|  9> C 0.4874892957 1.4651145323 -0.2190406469
| 10> C 1.8345097389 1.2895869892 0.0507049096
| 11> C 2.3302327801 0.0142963162 0.2495172668
| 12> C 1.4813886197 -1.0762244802 0.1794273955
| 13> C 0.1300286328 -0.8978100764 -0.0867435253
| 14> O -0.7304719134 -1.9528372304 -0.1583429569
| 15> H -3.690952164 0.7606178847 0.5654322509
| 16> H -2.2731072693 1.4075299523 1.4015020609
| 17> H -2.5098257375 -0.3387224343 1.2836652874
| 18> H -2.0030441078 1.5221043735 -1.0873270362
| 19> H -2.2152732116 -0.2373399578 -1.1724742934
| 20> H 0.097229751 2.4598594596 -0.3779710027
| 21> H 2.4917536394 2.1438548641 0.103535244
| 22> H 3.3781972776 -0.1374775388 0.4590985355
| 23> H 1.8698271699 -2.0731070351 0.3341407998
| 24> H -0.2538384357 -2.7847266445 -0.0216527346
| 25> *
| 26> 
| 27>                          ****END OF INPUT****
================================================================================

                       ****************************
                       * Single Point Calculation *
                       ****************************

---------------------------------
CARTESIAN COORDINATES (ANGSTROEM)
---------------------------------
  C     -2.632724    0.606055    0.759894
  C     -1.847977    0.583153   -0.553377
  C     -0.381191    0.388665   -0.294321
  C      0.487489    1.465115   -0.219041
  C      1.834510    1.289587    0.050705
  C      2.330233    0.014296    0.249517
  C      1.481389   -1.076224    0.179427
  C      0.130029   -0.897810   -0.086744
  O     -0.730472   -1.952837   -0.158343
  H     -3.690952    0.760618    0.565432
  H     -2.273107    1.407530    1.401502
  H     -2.509826   -0.338722    1.283665
  H     -2.003044    1.522104   -1.087327
  H     -2.215273   -0.237340   -1.172474
  H      0.097230    2.459859   -0.377971
  H      2.491754    2.143855    0.103535
  H      3.378197   -0.137478    0.459099
  H      1.869827   -2.073107    0.334141
  H     -0.253838   -2.784727   -0.021653

----------------------------
CARTESIAN COORDINATES (A.U.)
----------------------------
  NO LB      ZA    FRAG     MASS         X           Y           Z
   0 C     6.0000    0    12.011   -4.975127    1.145277    1.435992
   1 C     6.0000    0    12.011   -3.492171    1.101999   -1.045731
   2 C     6.0000    0    12.011   -0.720346    0.734470   -0.556186
   3 C     6.0000    0    12.011    0.921221    2.768665   -0.413927
   4 C     6.0000    0    12.011    3.466721    2.436966    0.095818
   5 C     6.0000    0    12.011    4.403502    0.027016    0.471519
   6 C     6.0000    0    12.011    2.799419   -2.033770    0.339069
   7 C     6.0000    0    12.011    0.245719   -1.696615   -0.163922
   8 O     8.0000    0    15.999   -1.380392   -3.690328   -0.299225
   9 H     1.0000    0     1.008   -6.974889    1.437359    1.068512
  10 H     1.0000    0     1.008   -4.295550    2.659846    2.648455
  11 H     1.0000    0     1.008   -4.742883   -0.640093    2.425776
  12 H     1.0000    0     1.008   -3.785205    2.876360   -2.054750
  13 H     1.0000    0     1.008   -4.186260   -0.448508   -2.215655
  14 H     1.0000    0     1.008    0.183738    4.648461   -0.714262
  15 H     1.0000    0     1.008    4.708732    4.051299    0.195653
  16 H     1.0000    0     1.008    6.383868   -0.259795    0.867571
  17 H     1.0000    0     1.008    3.533461   -3.917605    0.631435
  18 H     1.0000    0     1.008   -0.479685   -5.262371   -0.040918

--------------------------------
INTERNAL COORDINATES (ANGSTROEM)
--------------------------------
 C      0   0   0     0.000000000000     0.00000000     0.00000000
 C      1   0   0     1.530043430708     0.00000000     0.00000000
 C      2   1   0     1.502131276245   110.77728115     0.00000000
 C      3   2   1     1.385285616919   121.40497582   264.35460089
 C      4   3   2     1.384932004842   121.46715835   178.47021723
 C      5   4   3     1.382618525694   119.57971366     0.04105084
 C      6   5   4     1.383721289164   119.98012864   359.94671406
 C      7   6   5     1.388831333444   120.35549302   359.83666980
 O      8   7   6     1.363330467749   121.65465244   180.17069990
 H      1   2   3     1.086992195762   110.35861540   179.22966176
 H      1   2   3     1.087817873377   110.34807501    58.92466017
 H      1   2   3     1.087218368265   110.03022889   299.12042624
 H      2   1   3     1.091228175451   109.52535341   239.05592964
 H      2   1   3     1.091510928626   108.99568490   120.18843860
 H      4   3   2     1.080314232348   118.74988605   358.32283711
 H      5   4   3     1.079135853849   120.10449535   179.95051115
 H      6   5   4     1.079439298558   120.37738190   179.90791427
 H      7   6   5     1.081015991101   119.93991480   179.94770099
 H      9   8   7     0.968454276788   110.28465855   358.66488742

---------------------------
INTERNAL COORDINATES (A.U.)
---------------------------
 C      0   0   0     0.000000000000     0.00000000     0.00000000
 C      1   0   0     2.891363057044     0.00000000     0.00000000
 C      2   1   0     2.838616729301   110.77728115     0.00000000
 C      3   2   1     2.617810433236   121.40497582   264.35460089
 C      4   3   2     2.617142203255   121.46715835   178.47021723
 C      5   4   3     2.612770361248   119.57971366     0.04105084
 C      6   5   4     2.614854282196   119.98012864   359.94671406
 C      7   6   5     2.624510866419   120.35549302   359.83666980
 O      8   7   6     2.576321214077   121.65465244   180.17069990
 H      1   2   3     2.054117559699   110.35861540   179.22966176
 H      1   2   3     2.055677864267   110.34807501    58.92466017
 H      1   2   3     2.054544963790   110.03022889   299.12042624
 H      2   1   3     2.062122401221   109.52535341   239.05592964
 H      2   1   3     2.062656727286   108.99568490   120.18843860
 H      4   3   2     2.041498037715   118.74988605   358.32283711
 H      5   4   3     2.039271225071   120.10449535   179.95051115
 H      6   5   4     2.039844652467   120.37738190   179.90791427
 H      7   6   5     2.042824169570   119.93991480   179.94770099
 H      9   8   7     1.830113356354   110.28465855   358.66488742

---------------------
BASIS SET INFORMATION
---------------------
There are 3 groups of distinct atoms

 Group   1 Type C   : 11s6p1d contracted to 5s3p1d pattern {62111/411/1}
 Group   2 Type O   : 11s6p2d contracted to 5s3p2d pattern {62111/411/11}
 Group   3 Type H   : 4s1p contracted to 2s1p pattern {31/1}

Atom   0C    basis set group =>   1
Atom   1C    basis set group =>   1
Atom   2C    basis set group =>   1
Atom   3C    basis set group =>   1
Atom   4C    basis set group =>   1
Atom   5C    basis set group =>   1
Atom   6C    basis set group =>   1
Atom   7C    basis set group =>   1
Atom   8O    basis set group =>   2
Atom   9H    basis set group =>   3
Atom  10H    basis set group =>   3
Atom  11H    basis set group =>   3
Atom  12H    basis set group =>   3
Atom  13H    basis set group =>   3
Atom  14H    basis set group =>   3
Atom  15H    basis set group =>   3
Atom  16H    basis set group =>   3
Atom  17H    basis set group =>   3
Atom  18H    basis set group =>   3
---------------------------------
AUXILIARY/J BASIS SET INFORMATION
---------------------------------
There are 3 groups of distinct atoms

 Group   1 Type C   : 12s5p4d2f1g contracted to 6s4p3d1f1g pattern {711111/2111/211/2/1}
 Group   2 Type O   : 12s5p4d2f1g contracted to 6s4p3d1f1g pattern {711111/2111/211/2/1}
 Group   3 Type H   : 5s2p1d contracted to 3s1p1d pattern {311/2/1}

Atom   0C    basis set group =>   1
Atom   1C    basis set group =>   1
Atom   2C    basis set group =>   1
Atom   3C    basis set group =>   1
Atom   4C    basis set group =>   1
Atom   5C    basis set group =>   1
Atom   6C    basis set group =>   1
Atom   7C    basis set group =>   1
Atom   8O    basis set group =>   2
Atom   9H    basis set group =>   3
Atom  10H    basis set group =>   3
Atom  11H    basis set group =>   3
Atom  12H    basis set group =>   3
Atom  13H    basis set group =>   3
Atom  14H    basis set group =>   3
Atom  15H    basis set group =>   3
Atom  16H    basis set group =>   3
Atom  17H    basis set group =>   3
Atom  18H    basis set group =>   3

Checking for AutoStart:
The File: sp_gas.gbw exists
Trying to determine its content:
     ... Fine, the file contains calculation information
     ... Fine, the calculation information was read
     ... Fine, the file contains a basis set
     ... Fine, the basis set was read
     ... Fine, the file contains a geometry
     ... Fine, the geometry was read
     ... Fine, the file contains a set of orbitals
     ... Fine, the orbitals can be read
     => possible old guess file was deleted
     => GBW file was renamed to GES file
     => GES file is set as startup file
     => Guess is set to MORead
     ... now leaving AutoStart

------------------------------------------------------------------------------
                             ORCA STARTUP CALCULATIONS
                           -- RI-GTO INTEGRALS CHOSEN --
------------------------------------------------------------------------------
------------------------------------------------------------------------------
                   ___                                                        
                  /   \      - P O W E R E D   B Y -                         
                 /     \                                                     
                 |  |  |   _    _      __       _____    __    __             
                 |  |  |  | |  | |    /  \     |  _  \  |  |  /  |          
                  \  \/   | |  | |   /    \    | | | |  |  | /  /          
                 / \  \   | |__| |  /  /\  \   | |_| |  |  |/  /          
                |  |  |   |  __  | /  /__\  \  |    /   |      \           
                |  |  |   | |  | | |   __   |  |    \   |  |\   \          
                \     /   | |  | | |  |  |  |  | |\  \  |  | \   \       
                 \___/    |_|  |_| |__|  |__|  |_| \__\ |__|  \__/        
                                                                              
                      - O R C A' S   B I G   F R I E N D -                    
                                      &                                       
                       - I N T E G R A L  F E E D E R -                       
                                                                              
 v1 FN, 2020, v2 2021, v3 2022-2024                                           
------------------------------------------------------------------------------


----------------------
SHARK INTEGRAL PACKAGE
----------------------

Number of atoms                             ...     19
Number of basis functions                   ...    226
Number of shells                            ...    112
Maximum angular momentum                    ...      2
Integral batch strategy                     ... SHARK/LIBINT Hybrid
RI-J (if used) integral strategy            ... SPLIT-RIJ (Revised 2003 algorithm where possible)
Printlevel                                  ...      1
Contraction scheme used                     ... SEGMENTED contraction
Prescreening option                         ... SCHWARTZ
   Thresh                                   ... 1.000e-10
   Tcut                                     ... 1.000e-11
   Tpresel                                  ... 1.000e-11 
Coulomb Range Separation                    ... NOT USED
Exchange Range Separation                   ... NOT USED
Multipole approximations                    ... NOT USED
Finite Nucleus Model                        ... NOT USED
CABS basis                                  ... NOT available
Auxiliary Coulomb fitting basis             ... AVAILABLE
   # of basis functions in Aux-J            ...    551
   # of shells in Aux-J                     ...    185
   Maximum angular momentum in Aux-J        ...      4
Auxiliary J/K fitting basis                 ... NOT available
Auxiliary Correlation fitting basis         ... NOT available
Auxiliary 'external' fitting basis          ... NOT available

Checking pre-screening integrals            ... done (  0.0 sec) Dimension = 112
Check shell pair data                       ... done (  0.0 sec)
Shell pair information
Shell pair cut-off parameter TPreSel        ...   1.0e-11
Total number of shell pairs                 ...      6328
Shell pairs after pre-screening             ...      5641
Total number of primitive shell pairs       ...     23019
Primitive shell pairs kept                  ...     14431
          la=0 lb=0:   1858 shell pairs
          la=1 lb=0:   2154 shell pairs
          la=1 lb=1:    643 shell pairs
          la=2 lb=0:    588 shell pairs
          la=2 lb=1:    344 shell pairs
          la=2 lb=2:     54 shell pairs

Calculating one electron integrals          ... done (  0.0 sec)
Calculating RI/J V-Matrix + Cholesky decomp.... done (  0.1 sec)
Calculating Nuclear repulsion               ... done (  0.0 sec) ENN=    430.962627064917 Eh

Diagonalization of the overlap matrix:
Smallest eigenvalue                        ... 2.653e-05
Time for diagonalization                   ...    0.005 sec
Threshold for overlap eigenvalues          ... 1.000e-07
Number of eigenvalues below threshold      ... 0
Time for construction of square roots      ...    0.016 sec
Total time needed                          ...    0.041 sec

-------------------
DFT GRID GENERATION
-------------------

General Integration Accuracy     IntAcc      ... 4.388
Radial Grid Type                 RadialGrid  ... OptM3 with GC (2021)
Angular Grid (max. ang.)         AngularGrid ... 4 (Lebedev-302)
Angular grid pruning method      GridPruning ... 4 (adaptive)
Weight generation scheme         WeightScheme... mBecke (2022)
Basis function cutoff            BFCut       ... 1.0000e-10
Integration weight cutoff        WCut        ... 1.0000e-14
Partially contracted basis set               ... off
Rotationally invariant grid construction     ... off
Angular grids for H and He will be reduced by one unit
Diffuse basis detected: some atoms will have their outermost
                        angular grid increased by 1.

Total number of grid points                  ...    86450
Total number of batches                      ...     1362
Average number of points per batch           ...       63
Average number of grid points per atom       ...     4550
Initializing property integral containers    ... done (  0.0 sec)

SHARK setup successfully completed in   1.2 seconds

Maximum memory used throughout the entire STARTUP-calculation: 38.6 MB
-------------------------------------------------------------------------------
                                 ORCA GUESS
                   Start orbitals & Density for SCF / CASSCF
-------------------------------------------------------------------------------

------------
SCF SETTINGS
------------
Hamiltonian:
 Density Functional     Method          .... DFT(GTOs)
  Functional kind                       .... Exchange
  Functional name                       .... Re-regularized SCAN exchange by Furness et al
  Functional family                     .... MGGA
  Functional refs                              
    [ 0] J. W. Furness, A. D. Kaplan, J. Ning, J. P. Perdew, and J. Sun.,  J. Phys. Chem. Lett. 11, 8208-8215 (2020), doi: 10.1021/acs.jpclett.0c02405
    [ 1] J. W. Furness, A. D. Kaplan, J. Ning, J. P. Perdew, and J. Sun.,  J. Phys. Chem. Lett. 11, 9248-9248 (2020), doi: 10.1021/acs.jpclett.0c03077
  Functional external parameters        .... 6
    Parameter  0 _c1        =  6.670000e-01 : c1 parameter        
    Parameter  1 _c2        =  8.000000e-01 : c2 parameter        
    Parameter  2 _d         =  1.240000e+00 : d parameter         
    Parameter  3 _k1        =  6.500000e-02 : k1 parameter        
    Parameter  4 _eta       =  1.000000e-03 : eta parameter       
    Parameter  5 _dp2       =  3.610000e-01 : dp2 parameter       
  Functional kind                       .... Correlation
  Functional name                       .... Re-regularized SCAN correlation by Furness et al
  Functional family                     .... MGGA
  Functional refs                              
    [ 0] J. W. Furness, A. D. Kaplan, J. Ning, J. P. Perdew, and J. Sun.,  J. Phys. Chem. Lett. 11, 8208-8215 (2020), doi: 10.1021/acs.jpclett.0c02405
    [ 1] J. W. Furness, A. D. Kaplan, J. Ning, J. P. Perdew, and J. Sun.,  J. Phys. Chem. Lett. 11, 9248-9248 (2020), doi: 10.1021/acs.jpclett.0c03077
  Functional external parameters        .... 1
    Parameter  0 _eta       =  1.000000e-03 : Regularization parameter
 Gradients option       PostSCFGGA      .... off
 RI-approximation to the Coulomb term is turned on
   Number of AuxJ basis functions       .... 551


General Settings:
 Integral files         IntName         .... sp_gas
 Hartree-Fock type      HFTyp           .... RHF
 Total Charge           Charge          ....    0
 Multiplicity           Mult            ....    1
 Number of Electrons    NEL             ....   66
 Basis Dimension        Dim             ....  226
 Nuclear Repulsion      ENuc            ....    430.9626270649 Eh

Convergence Acceleration:
 AO-DIIS                CNVDIIS         .... on
   Start iteration      DIISMaxIt       ....    12
   Startup error        DIISStart       ....  0.200000
   # of expansion vecs  DIISMaxEq       ....     5
   Bias factor          DIISBfac        ....   1.050
   Max. coefficient     DIISMaxC        ....  10.000
 MO-DIIS                CNVKDIIS        .... off
 Trust-Rad. Augm. Hess. CNVTRAH         .... auto
   Auto Start mean grad. ratio tolernc. ....  1.125000
   Auto Start start iteration           ....     1
   Auto Start num. interpolation iter.  ....    10
   Max. Number of Micro iterations      ....    24
   Max. Number of Macro iterations      .... Maxiter - #DIIS iter
   Number of Davidson start vectors     ....     2
   Converg. threshold    (grad. norm)   ....   3.330e-04
   Grad. Scal. Fac. for Micro threshold ....   0.100
   Minimum threshold for Micro iter.    ....   1.000e-02
   NR start threshold (gradient norm)   ....   1.000e-04
   Initial trust radius                 ....   0.400
   Minimum AH scaling param. (alpha)    ....   1.000
   Maximum AH scaling param. (alpha)    .... 1000.000
   Quad. conv. algorithm                .... NR
   White noise on init. David. guess    .... on
   Maximum white noise                  ....   0.010
   Pseudo random numbers                .... off
   Inactive MOs                         .... canonical
   Orbital update algorithm             .... Taylor
   Preconditioner                       .... Diag
   Full preconditioner red. dimension   ....   250
   COSX micro iterations for RIJONX calc.... off
 SOSCF                  CNVSOSCF        .... on
   Start iteration      SOSCFMaxIt      ....   150
   Startup grad/error   SOSCFStart      ....  0.003300
   Hessian update       SOSCFHessUp     .... L-BFGS
 Level Shifting         CNVShift        .... on
   Level shift para.    LevelShift      ....    0.2500
   Turn off err/grad.   ShiftErr        ....    0.0010
 Zerner damping         CNVZerner       .... off
 Static damping         CNVDamp         .... on
   Fraction old density DampFac         ....    0.7000
   Max. Damping (<1)    DampMax         ....    0.9800
   Min. Damping (>=0)   DampMin         ....    0.0000
   Turn off err/grad.   DampErr         ....    0.1000

SCF Procedure:
 Maximum # iterations   MaxIter         ....   125
 SCF integral mode      SCFMode         .... Direct
   Integral package                     .... SHARK and LIBINT hybrid scheme
 Reset frequency        DirectResetFreq ....    20
 Integral Threshold     Thresh          ....  1.000e-10 Eh
 Primitive CutOff       TCut            ....  1.000e-11 Eh

Convergence Tolerance:
 Convergence Check Mode ConvCheckMode   .... Total+1el-Energy
 Convergence forced     ConvForced      .... 0
 Energy Change          TolE            ....  1.000e-06 Eh
 1-El. energy change                    ....  1.000e-03 Eh
 Orbital Gradient       TolG            ....  3.330e-04
 Orbital Rotation angle TolX            ....  3.330e-04
 DIIS Error             TolErr          ....  1.000e-06

---------------------
INITIAL GUESS: MOREAD
---------------------
Guess MOs are being read from file: sp_gas.ges
Input Geometry matches current geometry (good)
Atom 0: N(Shells)= 9 and 6 - projection required
Input basis set needs projection
NBasis(read)= 146
NBasis(calc)= 226
Basis set overlap was calculated
Using GuessMode=FMatrix for the initial guess
C*T matrix was formed
Effective Fockian was calculated
Effective Fockian was diagonalized
Initial density was built
                      ------------------
                      INITIAL GUESS DONE (   0.0 sec)
                      ------------------
             **** ENERGY FILE WAS UPDATED (sp_gas.en.tmp) ****
Finished Guess after   0.3 sec
Maximum memory used throughout the entire GUESS-calculation: 16.0 MB

-------------------------------------------------------------------------------------------
                                      ORCA LEAN-SCF
                              memory conserving SCF solver
-------------------------------------------------------------------------------------------

----------------------------------------D-I-I-S--------------------------------------------
Iteration    Energy (Eh)           Delta-E    RMSDP     MaxDP     DIISErr   Damp  Time(sec)
-------------------------------------------------------------------------------------------
               ***  Starting incremental Fock matrix formation  ***
    1    -385.8124953007274485     0.00e+00  1.39e-02  5.25e-01  6.23e-01  0.700   2.8
    2    -385.8689683358597335    -5.65e-02  1.03e-02  3.84e-01  4.38e-01  0.700   2.5
    3    -385.9088647640382419    -3.99e-02  7.25e-03  2.70e-01  3.07e-01  0.700   2.6
    4    -385.9368688279428738    -2.80e-02  5.08e-03  1.88e-01  2.15e-01  0.700   2.4
                               ***Turning on AO-DIIS***
    5    -385.9565116252812800    -1.96e-02  3.56e-03  1.31e-01  1.50e-01  0.700   2.3
    6    -385.9702813876751293    -1.38e-02  2.49e-03  9.16e-02  1.05e-01  0.700   2.3
    7    -385.9799349429500239    -9.65e-03  1.74e-03  6.41e-02  7.36e-02  0.700   2.3
    8    -385.9866992613423804    -6.76e-03  4.06e-03  1.49e-01  5.16e-02  0.000   2.4
                              *** Initializing SOSCF ***
---------------------------------------S-O-S-C-F--------------------------------------
Iteration    Energy (Eh)           Delta-E    RMSDP     MaxDP     MaxGrad    Time(sec)
--------------------------------------------------------------------------------------
    9    -386.0025050093028653    -1.58e-02  1.17e-05  3.63e-04  1.40e-04     2.4
               *** Restarting incremental Fock matrix formation ***
   10    -386.0025051829617837    -1.74e-07  9.74e-06  2.75e-04  2.65e-05     2.8
                  *** Gradient check signals convergence ***

               *****************************************************
               *                     SUCCESS                       *
               *           SCF CONVERGED AFTER  10 CYCLES          *
               *****************************************************

             **** ENERGY FILE WAS UPDATED (sp_gas.en.tmp) ****

----------------
TOTAL SCF ENERGY
----------------

Total Energy       :       -386.00250518296178 Eh          -10503.66216 eV

Components:
Nuclear Repulsion  :        430.96262706491694 Eh           11727.08928 eV
Electronic Energy  :       -816.96513224787873 Eh          -22230.75144 eV
One Electron Energy:      -1376.15250214913385 Eh          -37447.01335 eV
Two Electron Energy:        559.18736990125512 Eh           15216.26191 eV

Virial components:
Potential Energy   :       -770.43960698409114 Eh          -20964.72753 eV
Kinetic Energy     :        384.43710180112930 Eh           10461.06537 eV
Virial Ratio       :          2.00407193627904

DFT components:
N(Alpha)           :       33.000063341665 electrons
N(Beta)            :       33.000063341665 electrons
N(Total)           :       66.000126683329 electrons
E(X)               :      -53.529158315253 Eh       
E(C)               :       -2.120146166485 Eh       
E(XC)              :      -55.649304481738 Eh       

---------------
SCF CONVERGENCE
---------------

  Last Energy change         ...    1.7366e-07  Tolerance :   1.0000e-06
  Last MAX-Density change    ...    2.7463e-04  Tolerance :   1.0000e-05
  Last RMS-Density change    ...    9.7407e-06  Tolerance :   1.0000e-06
  Last DIIS Error            ...    1.3958e-04  Tolerance :   1.0000e-06
  Last Orbital Gradient      ...    2.6519e-05  Tolerance :   3.3300e-04
  Last Orbital Rotation      ...    1.3230e-04  Tolerance :   3.3300e-04


----------------
ORBITAL ENERGIES
----------------

  NO   OCC          E(Eh)            E(eV) 
   0   2.0000     -18.986616      -516.6521 
   1   2.0000     -10.093302      -274.6527 
   2   2.0000     -10.035175      -273.0710 
   3   2.0000     -10.032863      -273.0081 
   4   2.0000     -10.032261      -272.9917 
   5   2.0000     -10.029807      -272.9249 
   6   2.0000     -10.027967      -272.8749 
   7   2.0000     -10.024352      -272.7765 
   8   2.0000     -10.014410      -272.5059 
   9   2.0000      -1.030019       -28.0283 
  10   2.0000      -0.823184       -22.4000 
  11   2.0000      -0.754736       -20.5374 
  12   2.0000      -0.707649       -19.2561 
  13   2.0000      -0.688292       -18.7294 
  14   2.0000      -0.598845       -16.2954 
  15   2.0000      -0.593708       -16.1556 
  16   2.0000      -0.544397       -14.8138 
  17   2.0000      -0.512055       -13.9337 
  18   2.0000      -0.458816       -12.4850 
  19   2.0000      -0.446733       -12.1562 
  20   2.0000      -0.409796       -11.1511 
  21   2.0000      -0.398079       -10.8323 
  22   2.0000      -0.392091       -10.6693 
  23   2.0000      -0.381347       -10.3770 
  24   2.0000      -0.366007        -9.9596 
  25   2.0000      -0.343252        -9.3404 
  26   2.0000      -0.333841        -9.0843 
  27   2.0000      -0.327739        -8.9182 
  28   2.0000      -0.310522        -8.4497 
  29   2.0000      -0.301843        -8.2136 
  30   2.0000      -0.292843        -7.9687 
  31   2.0000      -0.229002        -6.2315 
  32   2.0000      -0.201844        -5.4924 
  33   0.0000      -0.028554        -0.7770 
  34   0.0000      -0.013643        -0.3712 
  35   0.0000       0.053501         1.4558 
  36   0.0000       0.086770         2.3611 
  37   0.0000       0.094398         2.5687 
  38   0.0000       0.118576         3.2266 
  39   0.0000       0.123152         3.3511 
  40   0.0000       0.135647         3.6911 
  41   0.0000       0.137990         3.7549 
  42   0.0000       0.149262         4.0616 
  43   0.0000       0.162362         4.4181 
*Only the first 10 virtual orbitals were printed.

                    ********************************
                    * MULLIKEN POPULATION ANALYSIS *
                    ********************************

-----------------------
MULLIKEN ATOMIC CHARGES
-----------------------
   0 C :   -0.486375
   1 C :   -0.272425
   2 C :    0.048812
   3 C :   -0.197074
   4 C :   -0.193536
   5 C :   -0.132501
   6 C :   -0.336203
   7 C :    0.343520
   8 O :   -0.411366
   9 H :    0.146196
  10 H :    0.145369
  11 H :    0.161133
  12 H :    0.143202
  13 H :    0.158147
  14 H :    0.148654
  15 H :    0.144681
  16 H :    0.146300
  17 H :    0.133701
  18 H :    0.309763
Sum of atomic charges:    0.0000000

--------------------------------
MULLIKEN REDUCED ORBITAL CHARGES
--------------------------------
  0 C s       :     3.335751  s :     3.335751
      pz      :     0.971136  p :     3.123553
      px      :     1.057592
      py      :     1.094825
      dz2     :     0.004927  d :     0.027071
      dxz     :     0.005015
      dyz     :     0.008280
      dx2y2   :     0.007174
      dxy     :     0.001674

  1 C s       :     3.207370  s :     3.207370
      pz      :     0.988335  p :     3.027572
      px      :     0.917768
      py      :     1.121469
      dz2     :     0.006016  d :     0.037482
      dxz     :     0.008717
      dyz     :     0.008748
      dx2y2   :     0.009602
      dxy     :     0.004399

  2 C s       :     3.130653  s :     3.130653
      pz      :     1.007289  p :     2.774769
      px      :     0.824096
      py      :     0.943384
      dz2     :     0.003886  d :     0.045767
      dxz     :     0.006544
      dyz     :     0.006748
      dx2y2   :     0.014321
      dxy     :     0.014268

  3 C s       :     3.174878  s :     3.174878
      pz      :     1.003240  p :     2.984028
      px      :     0.957221
      py      :     1.023567
      dz2     :     0.003490  d :     0.038168
      dxz     :     0.006853
      dyz     :     0.003462
      dx2y2   :     0.011971
      dxy     :     0.012392

  4 C s       :     3.194618  s :     3.194618
      pz      :     1.014579  p :     2.961381
      px      :     0.963527
      py      :     0.983275
      dz2     :     0.003643  d :     0.037537
      dxz     :     0.005266
      dyz     :     0.004335
      dx2y2   :     0.011488
      dxy     :     0.012805

  5 C s       :     3.165124  s :     3.165124
      pz      :     0.990246  p :     2.928943
      px      :     1.016535
      py      :     0.922161
      dz2     :     0.003314  d :     0.038434
      dxz     :     0.002872
      dyz     :     0.007908
      dx2y2   :     0.012596
      dxy     :     0.011744

  6 C s       :     3.225334  s :     3.225334
      pz      :     1.070789  p :     3.074831
      px      :     0.933867
      py      :     1.070175
      dz2     :     0.003579  d :     0.036038
      dxz     :     0.006363
      dyz     :     0.003187
      dx2y2   :     0.013196
      dxy     :     0.009712

  7 C s       :     3.103555  s :     3.103555
      pz      :     0.943701  p :     2.480215
      px      :     0.737308
      py      :     0.799205
      dz2     :     0.005441  d :     0.072710
      dxz     :     0.010908
      dyz     :     0.012843
      dx2y2   :     0.020697
      dxy     :     0.022821

  8 O s       :     3.754938  s :     3.754938
      pz      :     1.840683  p :     4.620163
      px      :     1.590946
      py      :     1.188535
      dz2     :     0.004648  d :     0.036265
      dxz     :     0.007275
      dyz     :     0.004759
      dx2y2   :     0.008794
      dxy     :     0.010789

  9 H s       :     0.835528  s :     0.835528
      pz      :     0.003781  p :     0.018276
      px      :     0.010615
      py      :     0.003880

 10 H s       :     0.836440  s :     0.836440
      pz      :     0.006313  p :     0.018190
      px      :     0.004353
      py      :     0.007524

 11 H s       :     0.820648  s :     0.820648
      pz      :     0.005314  p :     0.018219
      px      :     0.003663
      py      :     0.009242

 12 H s       :     0.839006  s :     0.839006
      pz      :     0.005434  p :     0.017792
      px      :     0.003486
      py      :     0.008872

 13 H s       :     0.823885  s :     0.823885
      pz      :     0.005864  p :     0.017968
      px      :     0.004224
      py      :     0.007881

 14 H s       :     0.831797  s :     0.831797
      pz      :     0.004365  p :     0.019549
      px      :     0.004355
      py      :     0.010828

 15 H s       :     0.835627  s :     0.835627
      pz      :     0.004439  p :     0.019692
      px      :     0.006510
      py      :     0.008743

 16 H s       :     0.834100  s :     0.834100
      pz      :     0.004568  p :     0.019600
      px      :     0.011696
      py      :     0.003336

 17 H s       :     0.846478  s :     0.846478
      pz      :     0.004801  p :     0.019821
      px      :     0.004534
      py      :     0.010486

 18 H s       :     0.647666  s :     0.647666
      pz      :     0.012244  p :     0.042571
      px      :     0.011779
      py      :     0.018548


------------------------
MULLIKEN OVERLAP CHARGES
------------------------
B(  0-C ,  1-C ) :   0.5050 B(  0-C ,  2-C ) :  -0.1870 B(  0-C ,  9-H ) :   0.8093 
B(  0-C , 10-H ) :   0.8362 B(  0-C , 11-H ) :   0.8638 B(  0-C , 12-H ) :  -0.0520 
B(  0-C , 13-H ) :  -0.0714 B(  1-C ,  2-C ) :   0.2144 B(  1-C ,  3-C ) :  -0.1923 
B(  1-C ,  6-C ) :   0.0510 B(  1-C ,  7-C ) :  -0.1817 B(  1-C ,  8-O ) :   0.0944 
B(  1-C ,  9-H ) :  -0.1048 B(  1-C , 10-H ) :  -0.0635 B(  1-C , 11-H ) :  -0.0925 
B(  1-C , 12-H ) :   0.8717 B(  1-C , 13-H ) :   0.8971 B(  2-C ,  3-C ) :   0.6565 
B(  2-C ,  4-C ) :  -0.0578 B(  2-C ,  5-C ) :  -0.1494 B(  2-C ,  6-C ) :  -0.0757 
B(  2-C ,  7-C ) :   1.0825 B(  2-C ,  8-O ) :  -0.1111 B(  2-C , 12-H ) :  -0.1448 
B(  2-C , 13-H ) :  -0.1337 B(  2-C , 14-H ) :  -0.0683 B(  3-C ,  4-C ) :   0.7713 
B(  3-C ,  6-C ) :  -0.3535 B(  3-C ,  7-C ) :   0.1873 B(  3-C , 14-H ) :   0.7849 
B(  4-C ,  5-C ) :   0.9381 B(  4-C ,  7-C ) :  -0.1928 B(  4-C , 15-H ) :   0.7879 
B(  5-C ,  6-C ) :   0.5010 B(  5-C , 15-H ) :  -0.0542 B(  5-C , 16-H ) :   0.7706 
B(  6-C ,  7-C ) :   0.5794 B(  6-C ,  8-O ) :  -0.2112 B(  6-C , 17-H ) :   0.7808 
B(  7-C ,  8-O ) :   0.4977 B(  7-C , 17-H ) :  -0.1035 B(  7-C , 18-H ) :  -0.1143 
B(  8-O , 18-H ) :   0.6000 


                     *******************************
                     * LOEWDIN POPULATION ANALYSIS *
                     *******************************

----------------------
LOEWDIN ATOMIC CHARGES
----------------------
   0 C :   -0.403036
   1 C :   -0.275854
   2 C :   -0.073982
   3 C :   -0.150805
   4 C :   -0.186678
   5 C :   -0.161432
   6 C :   -0.170653
   7 C :    0.187010
   8 O :   -0.511127
   9 H :    0.148882
  10 H :    0.152178
  11 H :    0.158351
  12 H :    0.158927
  13 H :    0.173358
  14 H :    0.169814
  15 H :    0.166281
  16 H :    0.167173
  17 H :    0.167192
  18 H :    0.284403

-------------------------------
LOEWDIN REDUCED ORBITAL CHARGES
-------------------------------
  0 C s       :     2.971783  s :     2.971783
      pz      :     1.090232  p :     3.368112
      px      :     1.118838
      py      :     1.159042
      dz2     :     0.010874  d :     0.063141
      dxz     :     0.011603
      dyz     :     0.019197
      dx2y2   :     0.017743
      dxy     :     0.003724

  1 C s       :     2.919832  s :     2.919832
      pz      :     1.095608  p :     3.275656
      px      :     1.040869
      py      :     1.139180
      dz2     :     0.011917  d :     0.080365
      dxz     :     0.018394
      dyz     :     0.019620
      dx2y2   :     0.021674
      dxy     :     0.008761

  2 C s       :     2.856200  s :     2.856200
      pz      :     0.991588  p :     3.123656
      px      :     1.068285
      py      :     1.063782
      dz2     :     0.006981  d :     0.094126
      dxz     :     0.011139
      dyz     :     0.012073
      dx2y2   :     0.031779
      dxy     :     0.032154

  3 C s       :     2.895243  s :     2.895243
      pz      :     0.991371  p :     3.172016
      px      :     1.089443
      py      :     1.091201
      dz2     :     0.006001  d :     0.083547
      dxz     :     0.012879
      dyz     :     0.006175
      dx2y2   :     0.028897
      dxy     :     0.029596

  4 C s       :     2.899900  s :     2.899900
      pz      :     1.013390  p :     3.204609
      px      :     1.093105
      py      :     1.098114
      dz2     :     0.006293  d :     0.082169
      dxz     :     0.009714
      dyz     :     0.007748
      dx2y2   :     0.027283
      dxy     :     0.031131

  5 C s       :     2.900960  s :     2.900960
      pz      :     0.984914  p :     3.176808
      px      :     1.094395
      py      :     1.097499
      dz2     :     0.005596  d :     0.083665
      dxz     :     0.004823
      dyz     :     0.015007
      dx2y2   :     0.030550
      dxy     :     0.027689

  6 C s       :     2.893665  s :     2.893665
      pz      :     1.045359  p :     3.197937
      px      :     1.051864
      py      :     1.100713
      dz2     :     0.006095  d :     0.079050
      dxz     :     0.011630
      dyz     :     0.005536
      dx2y2   :     0.030677
      dxy     :     0.025111

  7 C s       :     2.779536  s :     2.779536
      pz      :     0.921712  p :     2.874768
      px      :     1.003619
      py      :     0.949436
      dz2     :     0.011686  d :     0.158686
      dxz     :     0.020478
      dyz     :     0.025089
      dx2y2   :     0.048394
      dxy     :     0.053039

  8 O s       :     3.483660  s :     3.483660
      pz      :     1.807920  p :     4.750471
      px      :     1.630285
      py      :     1.312266
      dz2     :     0.031086  d :     0.276996
      dxz     :     0.036536
      dyz     :     0.044417
      dx2y2   :     0.081197
      dxy     :     0.083759

  9 H s       :     0.807589  s :     0.807589
      pz      :     0.008542  p :     0.043528
      px      :     0.026394
      py      :     0.008593

 10 H s       :     0.804440  s :     0.804440
      pz      :     0.014942  p :     0.043382
      px      :     0.009957
      py      :     0.018482

 11 H s       :     0.797759  s :     0.797759
      pz      :     0.012529  p :     0.043891
      px      :     0.008128
      py      :     0.023233

 12 H s       :     0.798189  s :     0.798189
      pz      :     0.012793  p :     0.042884
      px      :     0.007842
      py      :     0.022249

 13 H s       :     0.782925  s :     0.782925
      pz      :     0.014191  p :     0.043718
      px      :     0.009611
      py      :     0.019915

 14 H s       :     0.785774  s :     0.785774
      pz      :     0.009510  p :     0.044411
      px      :     0.009810
      py      :     0.025091

 15 H s       :     0.788798  s :     0.788798
      pz      :     0.009645  p :     0.044921
      px      :     0.014978
      py      :     0.020298

 16 H s       :     0.788307  s :     0.788307
      pz      :     0.009860  p :     0.044520
      px      :     0.027228
      py      :     0.007432

 17 H s       :     0.788047  s :     0.788047
      pz      :     0.010635  p :     0.044761
      px      :     0.009911
      py      :     0.024215

 18 H s       :     0.595228  s :     0.595228
      pz      :     0.031309  p :     0.120369
      px      :     0.035640
      py      :     0.053420


---------------------------------
LOEWDIN BOND ORDERS (THRESH 0.050000)
---------------------------------
B(  0-C ,  1-C ) :   1.1195 B(  0-C ,  2-C ) :   0.0731 B(  0-C ,  9-H ) :   0.9300 
B(  0-C , 10-H ) :   0.9277 B(  0-C , 11-H ) :   0.9233 B(  1-C ,  2-C ) :   1.0645 
B(  1-C ,  3-C ) :   0.0892 B(  1-C ,  7-C ) :   0.0779 B(  1-C ,  8-O ) :   0.0500 
B(  1-C , 12-H ) :   0.8844 B(  1-C , 13-H ) :   0.8726 B(  2-C ,  3-C ) :   1.4538 
B(  2-C ,  4-C ) :   0.0915 B(  2-C ,  5-C ) :   0.1203 B(  2-C ,  6-C ) :   0.0877 
B(  2-C ,  7-C ) :   1.2544 B(  2-C ,  8-O ) :   0.2115 B(  2-C , 14-H ) :   0.0536 
B(  3-C ,  4-C ) :   1.4947 B(  3-C ,  5-C ) :   0.0889 B(  3-C ,  6-C ) :   0.1215 
B(  3-C ,  7-C ) :   0.0924 B(  3-C , 14-H ) :   0.8653 B(  3-C , 15-H ) :   0.0552 
B(  4-C ,  5-C ) :   1.5061 B(  4-C ,  6-C ) :   0.0906 B(  4-C ,  7-C ) :   0.1069 
B(  4-C , 14-H ) :   0.0533 B(  4-C , 15-H ) :   0.8744 B(  4-C , 16-H ) :   0.0541 
B(  5-C ,  6-C ) :   1.5017 B(  5-C ,  7-C ) :   0.0940 B(  5-C , 15-H ) :   0.0542 
B(  5-C , 16-H ) :   0.8732 B(  5-C , 17-H ) :   0.0538 B(  6-C ,  7-C ) :   1.3364 
B(  6-C ,  8-O ) :   0.2234 B(  6-C , 16-H ) :   0.0556 B(  6-C , 17-H ) :   0.8649 
B(  7-C ,  8-O ) :   1.4770 B(  7-C , 17-H ) :   0.0562 B(  8-O , 18-H ) :   0.9449 


------------------------------------------
LOEWDIN REDUCED ORBITAL POPULATIONS PER MO
-------------------------------------------
THRESHOLD FOR PRINTING IS 0.1%%
                      0         1         2         3         4         5   
                 -18.98662 -10.09330 -10.03518 -10.03286 -10.03226 -10.02981
                   2.00000   2.00000   2.00000   2.00000   2.00000   2.00000
                  --------  --------  --------  --------  --------  --------
 2 C  s               0.0       0.0      99.3       0.0       0.0       0.2
 2 C  py              0.0       0.1       0.0       0.0       0.0       0.1
 3 C  s               0.0       0.0       0.2       0.0       0.0      99.2
 4 C  s               0.0       0.0       0.0       0.0       0.1       0.2
 4 C  px              0.0       0.0       0.0       0.0       0.0       0.1
 5 C  s               0.0       0.0       0.0      18.5      81.0       0.0
 6 C  s               0.0       0.0       0.0      81.0      18.6       0.0
 6 C  px              0.0       0.1       0.0       0.0       0.0       0.0
 7 C  s               0.0      99.2       0.0       0.0       0.0       0.0
 7 C  px              0.0       0.0       0.0       0.1       0.0       0.0
 7 C  py              0.0       0.0       0.1       0.0       0.0       0.0
 8 O  s              99.9       0.0       0.0       0.0       0.0       0.0
 8 O  dxy             0.0       0.2       0.0       0.0       0.0       0.0

                      6         7         8         9        10        11   
                 -10.02797 -10.02435 -10.01441  -1.03002  -0.82318  -0.75474
                   2.00000   2.00000   2.00000   2.00000   2.00000   2.00000
                  --------  --------  --------  --------  --------  --------
 0 C  s               0.0       0.0      99.7       0.0       0.7      10.3
 0 C  pz              0.1       0.0       0.0       0.0       0.3       1.5
 0 C  px              0.0       0.0       0.0       0.0       0.2       0.8
 1 C  s              99.7       0.0       0.0       0.1       3.3      19.5
 1 C  pz              0.0       0.0       0.1       0.0       0.1       0.9
 1 C  px              0.0       0.0       0.0       0.1       1.3       0.2
 1 C  py              0.0       0.0       0.0       0.2       0.0       0.0
 2 C  s               0.0       0.0       0.0       0.8      14.0       9.6
 2 C  px              0.1       0.0       0.0       0.0       1.3       5.0
 2 C  py              0.0       0.0       0.0       1.5       0.0       0.2
 2 C  dz2             0.0       0.0       0.0       0.0       0.1       0.1
 3 C  s               0.0       0.2       0.0       0.1      12.6       0.5
 3 C  pz              0.0       0.0       0.0       0.0       0.0       0.1
 3 C  px              0.0       0.1       0.0       0.0       0.1       4.4
 3 C  py              0.0       0.0       0.0       0.1       2.4       0.3
 3 C  dz2             0.0       0.0       0.0       0.0       0.1       0.0
 4 C  s               0.0      99.3       0.0       0.0      11.0       3.7
 4 C  px              0.0       0.0       0.0       0.0       1.1       0.7
 4 C  py              0.0       0.0       0.0       0.0       1.5       1.5
 4 C  dz2             0.0       0.0       0.0       0.0       0.1       0.0
 5 C  s               0.0       0.1       0.0       0.1      10.6      10.0
 5 C  px              0.0       0.0       0.0       0.1       2.3       0.5
 5 C  py              0.0       0.1       0.0       0.0       0.1       0.0
 5 C  dz2             0.0       0.0       0.0       0.0       0.1       0.1
 6 C  s               0.0       0.0       0.0       0.9       9.7       6.4
 6 C  px              0.0       0.0       0.0       1.5       0.1       0.9
 6 C  py              0.0       0.0       0.0       0.0       2.5       0.7
 7 C  s               0.0       0.0       0.0       9.8       7.2       0.0
 7 C  pz              0.0       0.0       0.0       0.0       0.0       0.2
 7 C  px              0.0       0.0       0.0       3.1       1.6       4.6
 7 C  py              0.0       0.0       0.0       6.2       4.7       1.9
 7 C  dz2             0.0       0.0       0.0       0.3       0.1       0.0
 7 C  dxy             0.0       0.0       0.0       0.6       0.1       0.0
 8 O  s               0.0       0.0       0.0      58.8       1.8       0.0
 8 O  px              0.0       0.0       0.0       2.6       0.2       0.1
 8 O  py              0.0       0.0       0.0       0.1       1.3       0.5
 8 O  dz2             0.0       0.0       0.0       0.2       0.2       0.0
 8 O  dx2y2           0.0       0.0       0.0       0.0       0.0       0.3
 8 O  dxy             0.0       0.0       0.0       0.1       0.3       0.0
 9 H  s               0.0       0.0       0.0       0.0       0.1       1.4
 9 H  px              0.0       0.0       0.0       0.0       0.0       0.1
10 H  s               0.0       0.0       0.0       0.0       0.1       1.4
11 H  s               0.0       0.0       0.0       0.0       0.1       1.4
12 H  s               0.0       0.0       0.0       0.0       0.4       2.8
12 H  py              0.0       0.0       0.0       0.0       0.0       0.2
13 H  s               0.0       0.0       0.0       0.0       0.3       2.7
13 H  py              0.0       0.0       0.0       0.0       0.0       0.1
14 H  s               0.0       0.0       0.0       0.0       1.2       0.1
15 H  s               0.0       0.0       0.0       0.0       1.0       0.5
16 H  s               0.0       0.0       0.0       0.0       1.0       1.3
16 H  px              0.0       0.0       0.0       0.0       0.1       0.1
17 H  s               0.0       0.0       0.0       0.1       0.9       0.9
18 H  s               0.0       0.0       0.0       9.6       0.6       0.2
18 H  px              0.0       0.0       0.0       0.4       0.1       0.0
18 H  py              0.0       0.0       0.0       1.8       0.1       0.0

                     12        13        14        15        16        17   
                  -0.70765  -0.68829  -0.59884  -0.59371  -0.54440  -0.51206
                   2.00000   2.00000   2.00000   2.00000   2.00000   2.00000
                  --------  --------  --------  --------  --------  --------
 0 C  s               0.6      18.0      10.3       4.9       2.5       0.1
 0 C  pz              0.0       0.4       1.8       1.2       3.6       0.7
 0 C  px              0.0       0.0       0.9       0.5       0.3       0.0
 1 C  s               0.4       6.3       4.0       3.2       6.5       1.1
 1 C  pz              0.1       1.3       2.9       1.9       3.3       0.4
 1 C  px              0.1       4.7       2.1       1.3       0.9       0.5
 1 C  py              0.2       0.1       0.5       0.9       0.1       0.1
 2 C  s               0.0       5.8       1.2       1.0       4.4       0.1
 2 C  pz              0.0       0.0       0.6       0.5       0.6       0.0
 2 C  px              0.7       4.3       5.2       0.6       3.3       0.3
 2 C  py              7.2       0.4       2.3       9.1       0.0       2.9
 2 C  dx2y2           0.0       0.1       0.0       0.1       0.1       0.1
 2 C  dxy             0.2       0.0       0.0       0.0       0.0       0.2
 3 C  s              15.1       2.3       5.7       1.4       0.2       4.1
 3 C  pz              0.1       0.1       0.0       0.3       0.0       0.2
 3 C  px              2.0       1.8       0.0       5.8       4.4       2.7
 3 C  py              0.4       0.7       0.6       0.0       6.0       5.0
 3 C  dx2y2           0.1       0.0       0.0       0.0       0.1       0.0
 4 C  s              13.9       2.8       0.3       4.6       3.9       1.6
 4 C  pz              0.1       0.2       0.3       0.0       0.1       0.0
 4 C  px              1.9       2.7       6.3       0.7       0.1       0.4
 4 C  py              1.1       1.3       2.3       0.2       6.4       0.4
 4 C  dx2y2           0.1       0.1       0.2       0.0       0.0       0.0
 5 C  s               0.1      10.1       6.5       0.2       3.0       1.8
 5 C  pz              0.0       0.0       0.0       0.0       0.0       0.3
 5 C  px              0.2       0.2       1.9       0.0       0.5       4.0
 5 C  py              9.7       0.1       1.3       6.7       0.4       6.0
 5 C  dxy             0.3       0.0       0.0       0.1       0.0       0.0
 6 C  s              14.3       0.8       2.6       3.8       1.8       0.4
 6 C  pz              0.0       0.1       0.0       0.1       0.0       0.5
 6 C  px              0.9       4.6       2.7       2.7       2.5       9.8
 6 C  py              0.3       0.4       2.1       0.4       5.4       1.1
 6 C  dxy             0.0       0.1       0.1       0.0       0.0       0.1
 7 C  s               7.9       4.7       0.1       4.7       0.5       0.3
 7 C  pz              0.1       0.1       0.5       0.1       0.1       0.1
 7 C  px              3.6       0.3       7.3       3.5       1.5       7.0
 7 C  py              0.1       2.2       0.8       0.1       7.8       4.5
 7 C  dx2y2           0.2       0.0       0.0       0.0       0.2       0.0
 7 C  dxy             0.1       0.0       0.0       0.0       0.0       0.3
 8 O  s               2.1       0.6       0.2       0.3       0.8       0.3
 8 O  pz              0.0       0.0       0.1       0.0       0.0       0.1
 8 O  px              0.8       0.2       0.9       0.1       2.1       0.2
 8 O  py              3.1       2.8       2.8      18.8       4.0      21.9
 8 O  dz2             0.2       0.1       0.0       0.0       0.0       0.2
 8 O  dx2y2           0.0       0.1       0.5       0.1       0.6       0.1
 8 O  dxy             0.7       0.5       0.0       0.7       0.1       0.1
 9 H  s               0.1       3.6       3.5       1.7       0.9       0.0
 9 H  px              0.0       0.3       0.2       0.1       0.0       0.0
10 H  s               0.1       3.3       3.4       1.5       1.5       0.2
10 H  pz              0.0       0.1       0.1       0.0       0.0       0.0
10 H  py              0.0       0.1       0.1       0.1       0.1       0.0
11 H  s               0.1       3.2       2.9       1.9       1.5       0.2
11 H  py              0.0       0.2       0.2       0.1       0.1       0.0
12 H  s               0.0       1.2       1.0       1.9       3.7       0.3
12 H  py              0.0       0.1       0.1       0.1       0.2       0.0
13 H  s               0.1       1.1       1.9       0.5       3.4       0.7
13 H  py              0.0       0.1       0.1       0.0       0.2       0.0
14 H  s               2.7       0.3       2.0       1.0       0.9       6.0
14 H  py              0.2       0.0       0.1       0.1       0.0       0.3
15 H  s               2.5       0.6       0.2       1.9       3.4       0.4
15 H  px              0.1       0.0       0.0       0.0       0.1       0.0
15 H  py              0.1       0.0       0.0       0.1       0.1       0.0
16 H  s               0.0       2.2       2.9       0.1       1.6       3.6
16 H  px              0.0       0.2       0.2       0.0       0.1       0.2
17 H  s               2.7       0.2       1.3       2.3       2.1       1.9
17 H  py              0.2       0.0       0.1       0.1       0.1       0.1
18 H  s               1.1       0.7       0.8       4.7       0.9       5.4
18 H  px              0.1       0.1       0.0       0.2       0.1       0.2
18 H  py              0.1       0.1       0.0       0.2       0.0       0.1

                     18        19        20        21        22        23   
                  -0.45882  -0.44673  -0.40980  -0.39808  -0.39209  -0.38135
                   2.00000   2.00000   2.00000   2.00000   2.00000   2.00000
                  --------  --------  --------  --------  --------  --------
 0 C  pz              1.8       0.4       1.2       0.1       0.2       6.1
 0 C  px              0.8       0.4      11.0       7.1       0.0       0.4
 0 C  py              0.4       4.0       0.6       0.2      25.0       1.4
 1 C  s               0.5       0.1       0.1       0.1       0.1       0.1
 1 C  pz              1.9       0.6       5.4       3.0       0.1       0.2
 1 C  px              6.0       1.1       5.7       0.4       0.2       5.9
 1 C  py              1.1      11.3       1.3       0.0      16.2       1.8
 1 C  dx2y2           0.1       0.0       0.0       0.0       0.0       0.0
 1 C  dxy             0.0       0.0       0.0       0.0       0.2       0.0
 2 C  s               2.8       1.0       0.1       0.9       0.0       0.0
 2 C  pz              0.1       0.1       1.8       2.8       0.3       7.5
 2 C  px              1.2       1.3       4.4       3.5       0.0       3.1
 2 C  py              0.6       7.7       3.0       1.2       2.3       0.3
 2 C  dx2y2           0.0       0.0       0.2       0.0       0.0       0.0
 2 C  dxy             0.0       0.0       0.0       0.2       0.3       0.0
 3 C  s               0.6       0.1       0.7       0.1       0.7       0.1
 3 C  pz              0.1       0.2       1.4       0.3       0.1       3.1
 3 C  px              5.1       4.6       0.4       0.4       0.6       0.7
 3 C  py              0.1       0.7       4.6      18.8       0.6       2.0
 3 C  dx2y2           0.0       0.0       0.2       0.0       0.0       0.0
 3 C  dxy             0.2       0.0       0.0       0.1       0.0       0.0
 4 C  s               0.8       0.8       1.1       0.5       0.1       0.0
 4 C  pz              0.5       0.1       0.2       0.3       0.1       1.1
 4 C  px             15.8       0.3       0.5       0.1       0.3       1.3
 4 C  py              2.6      10.5       2.5       1.0       5.5       0.8
 4 C  dx2y2           0.0       0.0       0.0       0.1       0.0       0.2
 5 C  s               0.2       1.0       0.5       0.5       0.2       0.1
 5 C  pz              0.3       0.0       0.1       0.4       0.1       3.6
 5 C  px             11.3       0.0      11.8       0.6       0.5       4.0
 5 C  py              4.1       4.2       0.8       1.2       3.2       0.3
 5 C  dx2y2           0.0       0.1       0.2       0.1       0.0       0.1
 5 C  dxy             0.0       0.1       0.0       0.2       0.1       0.0
 6 C  s               0.2       1.6       0.5       0.1       0.2       0.2
 6 C  pz              0.0       0.4       1.0       0.3       0.3       6.3
 6 C  px              2.2       5.7       0.9       2.8       1.5       0.0
 6 C  py              8.3       3.4       0.8      15.9       1.2       1.2
 6 C  dx2y2           0.1       0.1       0.3       0.2       0.0       0.0
 7 C  s               0.5       0.6       1.6       0.7       0.1       0.1
 7 C  pz              0.2       0.1       2.5       4.7       2.1      13.7
 7 C  px              0.6       1.5       0.7       1.1       0.3       1.5
 7 C  py              0.2       6.4       2.0       0.4       3.1       1.4
 7 C  dx2y2           0.1       0.0       0.0       0.2       0.0       0.1
 7 C  dxy             0.4       0.4       0.0       0.0       0.0       0.0
 8 O  s               1.7       0.3       0.2       0.0       0.8       0.0
 8 O  pz              0.5       0.0       1.8       4.2       3.1      19.5
 8 O  px              5.8       6.7       0.3       0.3       3.4       0.4
 8 O  py              2.2       3.1       2.0       0.5       0.1       0.0
 8 O  dz2             0.1       0.1       0.1       0.0       0.0       0.0
 8 O  dxz             0.0       0.0       0.0       0.0       0.1       0.4
 8 O  dyz             0.0       0.0       0.1       0.2       0.0       0.3
 8 O  dx2y2           0.0       0.6       0.1       0.1       0.2       0.1
 8 O  dxy             0.0       0.3       0.1       0.1       0.3       0.0
 9 H  s               0.1       0.3       4.5       3.4       0.3       0.5
 9 H  px              0.0       0.0       0.1       0.1       0.0       0.0
 9 H  py              0.0       0.0       0.0       0.0       0.1       0.0
10 H  s               0.8       0.2       1.5       0.1       6.1       0.5
10 H  pz              0.0       0.0       0.0       0.0       0.1       0.0
11 H  s               0.0       1.3       0.0       0.1       6.3       2.4
11 H  pz              0.0       0.0       0.0       0.0       0.2       0.0
12 H  s               0.3       4.5       0.1       0.2       4.8       1.0
13 H  s               3.1       0.6       3.0       0.3       3.6       0.1
13 H  pz              0.0       0.0       0.0       0.0       0.1       0.0
14 H  s               0.0       0.1       4.4       8.6       0.0       1.3
14 H  py              0.0       0.0       0.1       0.1       0.0       0.0
15 H  s               6.6       3.6       0.2       0.0       3.0       0.0
15 H  px              0.0       0.1       0.0       0.0       0.1       0.0
15 H  py              0.3       0.0       0.0       0.0       0.0       0.0
16 H  s               3.2       0.2       7.8       0.0       0.4       2.7
16 H  px              0.1       0.0       0.2       0.0       0.0       0.1
17 H  s               1.5       5.9       1.8       9.8       0.0       0.6
17 H  py              0.0       0.2       0.0       0.1       0.0       0.0
18 H  s               1.1       0.4       0.5       0.1       0.0       0.0
18 H  pz              0.0       0.0       0.0       0.0       0.0       0.3
18 H  px              0.0       0.1       0.0       0.0       0.0       0.0

                     24        25        26        27        28        29   
                  -0.36601  -0.34325  -0.33384  -0.32774  -0.31052  -0.30184
                   2.00000   2.00000   2.00000   2.00000   2.00000   2.00000
                  --------  --------  --------  --------  --------  --------
 0 C  s               0.1       0.1       0.2       0.0       0.0       0.0
 0 C  pz              0.1       5.9      23.4       0.7       2.5       0.1
 0 C  px              6.7      13.0       3.0       1.4       0.1       0.2
 0 C  py              1.6       0.0       0.2       8.9       1.1      14.4
 0 C  dz2             0.0       0.1       0.0       0.0       0.0       0.0
 0 C  dxz             0.0       0.1       0.1       0.0       0.0       0.0
 0 C  dyz             0.0       0.0       0.0       0.2       0.1       0.6
 0 C  dx2y2           0.0       0.0       0.4       0.1       0.0       0.0
 1 C  s               0.4       0.1       0.2       0.0       0.0       0.0
 1 C  pz              1.9       8.9      15.0       0.3       2.8       0.1
 1 C  px              0.0       6.7       0.2       0.1       0.0       0.1
 1 C  py              0.1       0.1       0.0       2.5       2.7      17.7
 1 C  dz2             0.0       0.2       0.0       0.0       0.0       0.0
 1 C  dyz             0.0       0.0       0.0       0.1       0.1       0.7
 1 C  dx2y2           0.0       0.0       0.3       0.0       0.0       0.0
 2 C  s               0.0       0.7       0.6       0.0       0.0       0.0
 2 C  pz              0.0       2.0       1.2       0.1       1.5       0.5
 2 C  px              0.3       3.3       0.5       2.0       0.0       0.0
 2 C  py              3.0       0.5       0.3       4.7       1.2       3.1
 2 C  dxz             0.0       0.1       0.1       0.0       0.1       0.0
 2 C  dxy             0.0       0.0       0.0       0.0       0.1       0.3
 3 C  s               0.2       0.2       0.1       0.1       0.0       0.1
 3 C  pz              0.3       0.3       0.3       0.2      12.2       1.5
 3 C  px             10.5       0.3       1.9       0.3       0.9       0.5
 3 C  py              0.1       0.4       0.0       8.9       0.4       2.0
 3 C  dx2y2           0.1       0.0       0.0       0.1       0.0       0.0
 3 C  dxy             0.0       0.0       0.0       0.6       0.1       0.1
 4 C  pz              0.8       0.0       0.3       0.8      18.5       3.0
 4 C  px             11.8       0.1       1.6       0.5       0.3       0.7
 4 C  py              0.2       0.1       0.9      12.8       1.5       1.1
 4 C  dx2y2           0.2       0.0       0.1       0.0       0.0       0.0
 4 C  dxy             0.1       0.0       0.1       0.7       0.1       0.1
 5 C  s               0.2       0.1       0.0       0.1       0.0       0.0
 5 C  pz              0.0       0.0       0.1       0.1      17.6       2.2
 5 C  px              3.8       3.7       3.9       0.5       0.5       0.2
 5 C  py              1.8       1.0       0.9      11.1       0.3       1.2
 5 C  dx2y2           0.2       0.1       0.1       0.1       0.0       0.0
 5 C  dxy             0.1       0.0       0.1       0.2       0.0       0.1
 6 C  s               1.2       0.0       0.0       0.1       0.0       0.1
 6 C  pz              0.6       1.5       0.1       0.4       6.2       0.8
 6 C  px              0.7       2.3       2.4       0.2       0.3       0.1
 6 C  py              0.0       1.5       1.5       5.8       0.8       1.0
 6 C  dyz             0.0       0.0       0.0       0.0       0.1       0.0
 6 C  dx2y2           0.0       0.0       0.0       0.2       0.0       0.1
 6 C  dxy             0.1       0.1       0.1       0.2       0.0       0.1
 7 C  s               0.2       0.0       0.1       0.0       0.0       0.2
 7 C  pz              2.5       1.7       0.8       0.0       0.0       0.5
 7 C  px              0.9       3.0       0.9       0.6       0.2       0.9
 7 C  py              0.2       0.2       0.2       1.2       0.5       1.6
 7 C  dxz             0.0       0.0       0.0       0.0       0.2       0.0
 7 C  dyz             0.0       0.1       0.1       0.0       0.2       0.0
 7 C  dx2y2           0.4       0.2       0.1       0.0       0.0       0.0
 7 C  dxy             0.1       0.0       0.0       0.4       0.0       0.1
 8 O  s               3.3       2.1       0.4       0.1       0.0       0.0
 8 O  pz              1.5      14.0       2.7       0.2      16.7       5.4
 8 O  px             26.3      13.7       7.8       0.9       1.0       0.1
 8 O  py              1.0       0.1       0.0       0.7       0.0       0.4
 8 O  dz2             0.1       0.0       0.0       0.1       0.0       0.0
 8 O  dxz             0.0       0.1       0.1       0.1       0.0       0.2
 8 O  dx2y2           0.2       0.5       0.1       0.1       0.0       0.1
 8 O  dxy             0.1       0.2       0.0       0.0       0.0       0.0
 9 H  s               2.5       5.4       4.1       1.8       0.0       0.0
 9 H  pz              0.0       0.1       0.1       0.0       0.0       0.0
 9 H  py              0.0       0.0       0.0       0.1       0.0       0.1
10 H  s               1.3       0.0       7.8       1.0       1.7       6.0
10 H  px              0.0       0.1       0.0       0.0       0.0       0.0
10 H  py              0.0       0.0       0.2       0.0       0.0       0.0
11 H  s               0.4       0.2       2.8       5.9       0.2       8.4
11 H  px              0.1       0.1       0.0       0.0       0.0       0.0
11 H  py              0.0       0.0       0.1       0.1       0.0       0.0
12 H  s               0.2       0.3       2.9       2.0       0.4      11.1
13 H  s               0.1       0.1       2.6       0.3       3.6       7.3
13 H  pz              0.0       0.0       0.0       0.0       0.0       0.1
14 H  s               0.6       0.0       0.0       6.8       0.4       0.7
15 H  s               3.7       0.0       1.9       6.9       0.6       1.1
15 H  pz              0.0       0.0       0.0       0.0       0.1       0.0
15 H  py              0.1       0.0       0.0       0.0       0.0       0.0
16 H  s               3.7       1.6       2.6       0.5       0.0       0.0
16 H  pz              0.0       0.0       0.0       0.0       0.1       0.0
16 H  py              0.0       0.0       0.0       0.1       0.0       0.0
17 H  s               0.2       0.2       0.2       3.9       0.4       1.1
18 H  s               1.6       1.0       0.2       0.2       0.0       0.1
18 H  pz              0.0       0.2       0.1       0.0       0.3       0.1
18 H  px              0.2       0.1       0.1       0.0       0.0       0.0
18 H  py              0.1       0.1       0.0       0.0       0.0       0.0

                     30        31        32        33        34        35   
                  -0.29284  -0.22900  -0.20184  -0.02855  -0.01364   0.05350
                   2.00000   2.00000   2.00000   0.00000   0.00000   0.00000
                  --------  --------  --------  --------  --------  --------
 0 C  s               0.0       0.4       0.2       0.5       0.6       1.5
 0 C  pz              0.5       1.1       0.8       0.7       0.3       0.4
 0 C  px              7.3       1.1       0.6       0.1       0.1       0.2
 0 C  py              0.0       0.0       0.0       0.1       0.0       0.3
 0 C  dz2             0.1       0.0       0.0       0.0       0.0       0.0
 0 C  dx2y2           0.3       0.0       0.0       0.1       0.0       0.0
 1 C  s               0.2       0.0       0.0       0.0       0.0       2.2
 1 C  pz              1.5       1.4       0.7       0.0       0.3       0.2
 1 C  px             14.0       0.1       0.1       0.2       0.2       0.0
 1 C  py              0.1       0.0       0.0       0.0       0.0       0.3
 1 C  dz2             0.1       0.0       0.0       0.0       0.0       0.0
 1 C  dxz             0.0       0.2       0.2       0.5       0.3       0.0
 1 C  dx2y2           0.3       0.0       0.0       0.0       0.0       0.0
 2 C  s               0.1       0.0       0.0       0.0       0.0       1.1
 2 C  pz              0.5      14.0      15.3      18.0       6.8       0.1
 2 C  px             11.5       0.6       0.6       0.6       0.2       0.2
 2 C  py              1.1       0.1       0.1       0.1       0.0       0.8
 2 C  dxz             0.0       0.1       0.0       0.1       0.0       0.0
 2 C  dyz             0.0       0.2       0.2       0.4       1.0       0.0
 2 C  dx2y2           0.6       0.0       0.0       0.0       0.0       0.2
 2 C  dxy             0.0       0.0       0.0       0.0       0.1       0.1
 3 C  s               0.0       0.0       0.0       0.0       0.0       0.2
 3 C  pz              0.3      28.1       0.5      23.7       5.6       0.0
 3 C  px              5.6       1.0       0.0       0.8       0.2       0.2
 3 C  py              0.3       0.2       0.0       0.2       0.0       0.1
 3 C  dz2             0.0       0.0       0.0       0.0       0.1       0.0
 3 C  dxz             0.0       0.0       0.4       0.1       1.0       0.0
 3 C  dyz             0.0       0.1       0.1       0.4       0.0       0.0
 3 C  dx2y2           0.5       0.0       0.0       0.0       0.1       0.1
 4 C  s               0.1       0.0       0.0       0.0       0.0       0.2
 4 C  pz              0.1       1.6      22.3       0.3      28.4       0.0
 4 C  px              6.3       0.1       0.8       0.0       1.0       0.2
 4 C  py              0.3       0.0       0.1       0.0       0.2       0.1
 4 C  dz2             0.0       0.1       0.0       0.2       0.0       0.0
 4 C  dxz             0.0       0.3       0.0       0.7       0.0       0.0
 4 C  dyz             0.0       0.2       0.0       0.4       0.2       0.0
 4 C  dx2y2           0.2       0.0       0.0       0.0       0.0       0.0
 5 C  s               0.0       0.0       0.0       0.0       0.0       1.3
 5 C  pz              0.4      16.5       7.2      18.9      11.4       0.0
 5 C  px              3.4       0.6       0.3       0.7       0.4       0.4
 5 C  py              0.1       0.1       0.1       0.1       0.1       0.3
 5 C  dxz             0.0       0.0       0.0       0.2       0.0       0.0
[...]
10 H  s               0.0       3.4       0.1       0.8       0.0       0.0
10 H  pz              0.1       3.0       0.0       0.8       0.0       0.0
10 H  px              0.1       0.9       0.2       0.1       0.0       0.0
10 H  py              0.2       4.3       0.0       1.1       0.0       0.0
11 H  s               8.1       0.3       0.1       1.1       0.0       0.0
11 H  pz              4.3       0.3       0.0       0.6       0.0       0.0
11 H  px              0.3       0.1       0.0       0.0       0.0       0.0
11 H  py             16.9       0.3       0.2       2.0       0.0       0.0
12 H  s               0.1       0.4       2.1       6.7       0.1       0.0
12 H  pz              0.1       0.1       1.1       4.7       0.1       0.0
12 H  px              0.0       0.1       0.7       0.1       0.0       0.0
12 H  py              0.4       1.0       3.4      10.1       0.2       0.0
13 H  s               1.8       1.4       1.2       4.3       0.0       0.0
13 H  pz              2.0       1.5       1.2       4.7       0.0       0.0
13 H  px              1.2       0.3       0.9       0.4       0.0       0.0
13 H  py              2.4       2.8       0.7       4.3       0.0       0.0
14 H  s               0.6       2.4       0.0       0.2       2.0       0.6
14 H  pz              0.0       0.2       0.0       0.0       0.1       0.0
14 H  px              0.1       1.2       0.0       0.0       0.3       0.2
14 H  py              1.7       5.5       0.2       0.4       3.9       0.8
15 H  s               0.2       0.0       0.0       0.0       3.2       0.7
15 H  px              0.1       0.0       0.0       0.1       2.6       0.4
15 H  py              0.5       0.2       0.2       0.0       4.1       0.7
16 H  s               0.0       1.4       0.0       0.2       2.6       0.8
16 H  pz              0.0       0.2       0.0       0.0       0.2       0.1
16 H  px              0.1       3.9       0.0       0.7       5.3       1.2
16 H  py              0.0       0.2       0.1       0.0       0.0       0.1
17 H  s               0.4       2.1       0.0       0.3       0.8       1.1
17 H  pz              0.0       0.1       0.0       0.0       0.0       0.0
17 H  px              0.0       0.8       0.2       0.1       0.3       0.3
17 H  py              1.2       5.3       0.2       1.0       1.3       1.4
18 H  s               0.0       0.0       0.0       0.0       0.0       1.4
18 H  px              0.1       0.2       0.9       0.1       0.0       0.4
18 H  py              0.0       0.0       0.5       0.0       0.1       1.8

                    216       217       218       219       220       221   
                   4.59712  21.43070  21.93054  21.95981  21.99561  22.12809
                   0.00000   0.00000   0.00000   0.00000   0.00000   0.00000
                  --------  --------  --------  --------  --------  --------
 0 C  s               0.0       0.1       9.2      33.4      47.5       6.3
 1 C  s               0.0       0.1       2.9       3.6       9.1      78.3
 2 C  s               0.2      16.0      37.2       0.2       0.4       0.0
 2 C  px              0.1       0.0       0.0       0.0       0.0       0.1
 2 C  py              0.0       0.0       0.0       0.1       0.1       0.0
 2 C  dx2y2           0.2       0.0       0.0       0.0       0.0       0.0
 3 C  s               0.0      17.7       6.7       8.9      13.1       2.7
 4 C  s               0.0      17.5       7.5      16.6       7.0       0.3
 4 C  dxy             0.1       0.0       0.0       0.0       0.0       0.0
 5 C  s               0.0      18.2      24.4       1.6       1.6       7.7
 5 C  dx2y2           0.2       0.0       0.0       0.0       0.0       0.0
 6 C  s               0.1      17.4       6.4      12.6      14.3       0.7
 6 C  px              0.1       0.0       0.0       0.0       0.0       0.0
 6 C  dx2y2           0.4       0.0       0.0       0.0       0.0       0.0
 6 C  dxy             0.3       0.0       0.0       0.0       0.0       0.0
 7 C  s               0.2      12.7       5.2      22.6       6.6       3.4
 7 C  px              0.9       0.0       0.0       0.0       0.1       0.0
 7 C  py              0.9       0.0       0.1       0.0       0.0       0.0
 7 C  dz2             0.1       0.0       0.0       0.0       0.0       0.0
 7 C  dxy             2.7       0.0       0.0       0.0       0.0       0.0
 8 O  s               4.4       0.1       0.0       0.1       0.0       0.0
 8 O  pz              0.3       0.0       0.0       0.0       0.0       0.0
 8 O  px              1.3       0.0       0.0       0.0       0.0       0.0
 8 O  py             21.4       0.0       0.0       0.0       0.0       0.0
 8 O  dz2             3.0       0.0       0.0       0.0       0.0       0.0
 8 O  dxz             0.4       0.0       0.0       0.0       0.0       0.0
 8 O  dyz             1.5       0.0       0.0       0.0       0.0       0.0
 8 O  dx2y2           2.9       0.0       0.0       0.0       0.0       0.0
 8 O  dxy            29.6       0.0       0.0       0.0       0.0       0.0
17 H  s               0.1       0.0       0.0       0.0       0.0       0.0
17 H  py              0.2       0.0       0.0       0.0       0.0       0.0
18 H  s              13.0       0.0       0.0       0.0       0.0       0.0
18 H  pz              0.3       0.0       0.0       0.0       0.0       0.0
18 H  px              3.6       0.0       0.0       0.0       0.0       0.0
18 H  py             10.6       0.0       0.0       0.0       0.0       0.0

                    222       223       224       225   
                  22.18870  22.21215  22.35349  43.66684
                   0.00000   0.00000   0.00000   0.00000
                  --------  --------  --------  --------
 0 C  s               0.0       2.9       0.4       0.0
 1 C  s               0.0       5.4       0.3       0.0
 2 C  s               2.1      24.4      19.3       0.0
 3 C  s              28.6       1.4      20.3       0.0
 4 C  s              16.2      20.1      14.4       0.0
 5 C  s               2.8      30.8      12.5       0.0
 6 C  s              30.4       3.5      14.3       0.0
 7 C  s              19.5      11.2      18.3       0.0
 8 O  s               0.0       0.0       0.0      99.9


                      *****************************
                      * MAYER POPULATION ANALYSIS *
                      *****************************

  NA   - Mulliken gross atomic population
  ZA   - Total nuclear charge
  QA   - Mulliken gross atomic charge
  VA   - Mayer's total valence
  BVA  - Mayer's bonded valence
  FA   - Mayer's free valence

  ATOM       NA         ZA         QA         VA         BVA        FA
  0 C      6.4864     6.0000    -0.4864     3.8132     3.8132    -0.0000
  1 C      6.2724     6.0000    -0.2724     3.7088     3.7088    -0.0000
  2 C      5.9512     6.0000     0.0488     3.6048     3.6048     0.0000
  3 C      6.1971     6.0000    -0.1971     3.8359     3.8359    -0.0000
  4 C      6.1935     6.0000    -0.1935     3.8876     3.8876    -0.0000
  5 C      6.1325     6.0000    -0.1325     3.8692     3.8692     0.0000
  6 C      6.3362     6.0000    -0.3362     3.7002     3.7002     0.0000
  7 C      5.6565     6.0000     0.3435     3.8486     3.8486     0.0000
  8 O      8.4114     8.0000    -0.4114     2.0107     2.0107    -0.0000
  9 H      0.8538     1.0000     0.1462     0.9623     0.9623     0.0000
 10 H      0.8546     1.0000     0.1454     0.9643     0.9643     0.0000
 11 H      0.8389     1.0000     0.1611     0.9618     0.9618     0.0000
 12 H      0.8568     1.0000     0.1432     0.9624     0.9624    -0.0000
 13 H      0.8419     1.0000     0.1581     0.9642     0.9642    -0.0000
 14 H      0.8513     1.0000     0.1487     0.9693     0.9693    -0.0000
 15 H      0.8553     1.0000     0.1447     0.9698     0.9698     0.0000
 16 H      0.8537     1.0000     0.1463     0.9690     0.9690    -0.0000
 17 H      0.8663     1.0000     0.1337     0.9740     0.9740     0.0000
 18 H      0.6902     1.0000     0.3098     0.9034     0.9034     0.0000

  Mayer bond orders larger than 0.100000
B(  0-C ,  1-C ) :   0.9099 B(  0-C ,  9-H ) :   0.9742 B(  0-C , 10-H ) :   0.9777 
B(  0-C , 11-H ) :   0.9816 B(  1-C ,  2-C ) :   0.7819 B(  1-C , 12-H ) :   0.9870 
B(  1-C , 13-H ) :   0.9933 B(  2-C ,  3-C ) :   1.3819 B(  2-C ,  7-C ) :   1.5204 
B(  3-C ,  4-C ) :   1.4237 B(  3-C , 14-H ) :   0.9381 B(  4-C ,  5-C ) :   1.4446 
B(  4-C , 15-H ) :   0.9448 B(  5-C ,  6-C ) :   1.3987 B(  5-C , 16-H ) :   0.9406 
B(  6-C ,  7-C ) :   1.2888 B(  6-C , 17-H ) :   0.9537 B(  7-C ,  8-O ) :   0.9475 
B(  8-O , 18-H ) :   0.8839 

-------
TIMINGS
-------

Total SCF time: 0 days 0 hours 0 min 25 sec 

Total time                  ....      25.198 sec
Sum of individual times     ....      24.660 sec  ( 97.9%)

SCF preparation             ....       0.169 sec  (  0.7%)
Fock matrix formation       ....      23.545 sec  ( 93.4%)
  Startup                   ....       0.053 sec  (  0.2% of F)
  Split-RI-J                ....       4.740 sec  ( 20.1% of F)
  XC integration            ....      18.191 sec  ( 77.3% of F)
    XC Preparation          ....       0.000 sec  (  0.0% of XC)
    Basis function eval.    ....       2.938 sec  ( 16.2% of XC)
    Density eval.           ....       6.022 sec  ( 33.1% of XC)
    XC-Functional eval.     ....       1.942 sec  ( 10.7% of XC)
    XC-Potential eval.      ....       6.207 sec  ( 34.1% of XC)
Diagonalization             ....       0.000 sec  (  0.0%)
Density matrix formation    ....       0.234 sec  (  0.9%)
Total Energy calculation    ....       0.033 sec  (  0.1%)
Population analysis         ....       0.124 sec  (  0.5%)
Orbital Transformation      ....       0.056 sec  (  0.2%)
Orbital Orthonormalization  ....       0.000 sec  (  0.0%)
DIIS solution               ....       0.441 sec  (  1.7%)
  MO trafo                  ....       0.000 sec  (  0.0 % of DIIS)
  Orb grad                  ....       0.000 sec  (  0.0 % of DIIS)
  Energy W gradient         ....       0.000 sec  (  0.0 % of DIIS)
  DIIS error                ....       0.014 sec  (  3.3 % of DIIS)
  DIIS work                 ....       0.377 sec  ( 85.6 % of DIIS)
  Form Q                    ....       0.000 sec  (  0.0 % of DIIS)
  Form QpQm                 ....       0.000 sec  (  0.0 % of DIIS)
  Exp/Cayley                ....       0.000 sec  (  0.0 % of DIIS)
  Orb update                ....       0.000 sec  (  0.0 % of DIIS)
  Wake-sleep                ....       0.020 sec  (  4.6 % of DIIS)
SOSCF solution              ....       0.056 sec  (  0.2%)
  MO trafo                  ....       0.041 sec  ( 73.0 % of SOSCF)
  Orb grad                  ....       0.001 sec  (  1.5 % of SOSCF)
  Rot update                ....       0.000 sec  (  0.0 % of SOSCF)
  Step                      ....       0.014 sec  ( 25.3 % of SOSCF)
Finished LeanSCF after  25.3 sec

Maximum memory used throughout the entire LEANSCF-calculation: 25.0 MB


-------------------------------------------------------------------------------
                          DFT DISPERSION CORRECTION                            
                                                                               
                                DFTD4 V3.4.0                                   
-------------------------------------------------------------------------------
The R2SCAN3C composite method is recognized
Using three-body term ABC
Active option DFTDOPT                   ...         5   

-------------------------   ----------------
Dispersion correction           -0.006242343
-------------------------   ----------------

------------------   -----------------
gCP correction             0.006806462
------------------   -----------------

-------------------------   --------------------
FINAL SINGLE POINT ENERGY      -386.001941063461
-------------------------   --------------------


------------------------------------------------------------------------------
                              ORCA PROPERTY CALCULATIONS
------------------------------------------------------------------------------

GBWName                                 ... sp_gas.gbw
Number of atoms                         ...     19
Number of basis functions               ...    226
Max core memory                         ...   1024 MB

Electric properties:
Dipole moment                           ... YES
Quadrupole moment                       ...  NO
Static polarizability (Dipole/Dipole)   ...  NO
Static polarizability (Dipole/Quad.)    ...  NO
Static polarizability (Quad./Quad.)     ...  NO
Static polarizability (Velocity)        ...  NO

Atomic electric properties:
Dipole moment                           ...  NO
Quadrupole moment                       ...  NO
Static polarizability                   ...  NO

Choice of electric origin               ... Center of mass
Position of electric origin             ...    -0.000003     0.000016     0.000003

General magnetic properties:
Magnetizability                         ...  NO

EPR properties:
g-Tensor (aka g-matrix)                 ...  NO
Zero-Field splitting spin-orbit         ...  NO
Zero-field splitting spin-spin          ...  NO
Hyperfine couplings                     ...  NO (   0 nuclei)
Quadrupole couplings                    ...  NO (   0 nuclei)
Contact density                         ...  NO (   0 nuclei)

NMR properties:
Chemical shifts                         ...  NO (   0 nuclei)
Spin-rotation constants                 ...  NO (   0 nuclei)
Spin-spin couplings                     ...  NO (   0 nuclei,    0 pairs)

Choice of magnetic origin               ... GIAO
Position of magnetic origin             ...     0.000000     0.000000     0.000000

Properties with geometric perturbations:
SCF Hessian                             ...  NO
IR spectrum                             ...  NO
VCD spectrum                            ...  NO
X-ray spectroscopy properties:
SCF XES/XAS/RIXS spectra                ...  NO


-------------
DIPOLE MOMENT
-------------

Method             : SCF
Type of density    : Electron Density
Multiplicity       :   1
Irrep              :   0
Energy             :  -386.0025051829617837 Eh
Relativity type    : 
Basis              : AO
                                X                 Y                 Z
Electronic contribution:      4.996904669      -2.892803154      -1.317997376
Nuclear contribution   :     -4.803960698       2.525310358       1.393600668
                        -----------------------------------------
Total Dipole Moment    :      0.192943971      -0.367492796       0.075603291
                        -----------------------------------------
Magnitude (a.u.)       :      0.421893575
Magnitude (Debye)      :      1.072368245



--------------------
Rotational spectrum 
--------------------
 
Rotational constants in cm-1:             0.088924             0.048699             0.034131 
Rotational constants in MHz :          2665.880728          1459.965910          1023.210966 

Dipole components along the rotational axes: 
x,y,z [a.u.] :     0.192947    -0.367491     0.075603 
x,y,z [Debye]:     0.490431    -0.934089     0.192167 

 

Dipole moment calculation done in   0.0 sec 

Maximum memory used throughout the entire PROP-calculation: 14.6 MB

--------------------------------
SUGGESTED CITATIONS FOR THIS RUN
--------------------------------

Below you find a list of papers that are relevant to this ORCA run
We neither can nor want to force you to cite these papers, but we appreciate if you do
You receive ORCA, which is the product of decades of hard work by many enthusiastic individuals, for free
The only thing we kindly ask in return is that you cite our papers,
We deeply appreciate it, if you show your appreciation for ORCA by not just citing the generic ORCA reference.

Please note that relegating all ORCA citations to the supporting information does *not* help us.
SI sections are not indexed - citations you put there will not count into any citation statistics
But we need these citations in order to attract the funding resources that allow us to do what we are doing

Therefore, if you are a happy ORCA user, please consider citing a few of the papers listed below in the main body of your paper

In addition to the list printed below, the program has created the file sp_gas.bibtex that contains the list in bibtex format
You can import this file easily into all common literature databanks and citation aid programs


List of essential papers. We consider these as the minimum necessary citations

  1. Neese,F.
     Software update: the ORCA program system, version 5.0
     WIRES Comput. Molec. Sci., 2022 12(1)e1606
     doi.org/10.1002/wcms.1606
  2. Grimme,S.; Hansen,A.; Ehlert,S.; Mewes,J.
     r2SCAN-3c: A 'Swiss army knife' composite electronic-structure method
     J. Chem. Phys., 2021 154 064103
     doi.org/10.1063/5.0040021

List of papers to cite with high priority. The work reported in these papers was absolutely
necessary for this run to complete.
Our perspective: the developers of density functionals and basis sets usually get cited in chemistry papers
Good! But without the algorithms to do something with them, the functionals or basis sets would not do anything.
Hence, in our opinion, the algorithm design and method developments papers are equally worthy of getting cited

  1. Neese,F.
     An improvement of the resolution of the identity approximation for the formation of the Coulomb matrix
     J. Comp. Chem., 2003 24(14)1740-1747
     doi.org/10.1002/jcc.10318
  2. Neese,F.
     The SHARK Integral Generation and Digestion System
     J. Comp. Chem., 2022  1-16
     doi.org/10.1002/jcc.26942
  3. Lehtola,S.; Steigemann,C.; Oliveira,M.; Marques,M.
     Recent developments in Libxc - A comprehensive library of functionals for density functional theory
     Software X, 2018 7 
     doi.org/10.1016/j.softx.2017.11.002
  4. Caldeweyher,E.; Bannwarth,C.; Grimme,S.
     Extension of the D3 dispersion coefficient model
     J. Chem. Phys., 2017 147 034112-XXXX
     doi.org/10.1063/1.4993215
  5. Caldeweyher,E.; Ehlert,S.; Hansen,A.; Neugebauer,H.; Spicher,S.; Bannwarth,C.; Grimme,S.
     A generally applicable atomic-charge dependent London dispersion correction
     J. Chem. Phys., 2019 150 154122-XXXX
     doi.org/10.1063/1.5090222
  6. Caldeweyher,E.; Mewes,J.; Ehlert,S.; Grimme,S.
     Extension and evaluation of the D4 London-dispersion model for periodic systems
     Phys. Chem. Chem. Phys., 2020 22(16)8499-8512
     doi.org/10.1039/D0CP00502A

List of suggested additional citations. These are papers that are important in the 'surrounding' of 
of this run, or papers that preceded the highly important papers. If you like your results we are grateful for a citation.

  1. Neese,F.
     The ORCA program system
     WIRES Comput. Molec. Sci., 2012 2(1)73-78
     doi.org/10.1002/wcms.81
  2. Neese,F.
     Software update: the ORCA program system, version 4.0
     WIRES Comput. Molec. Sci., 2018 8(1)1-6
     doi.org/10.1002/wcms.1327
  3. Neese,F.; Wennmohs,F.; Becker,U.; Riplinger,C.
     The ORCA quantum chemistry program package
     J. Chem. Phys., 2020 152 Art. No. L224108
     doi.org/10.1063/5.0004608

List of optional additional citations

  1. Neese,F.
     Approximate second-order SCF convergence for spin unrestricted wavefunctions
     Chem. Phys. Lett., 2000 325(1-3)93-98
     doi.org/10.1016/s0009-2614(00)00662-x

Timings for individual modules:

Sum of individual times          ...       26.939 sec (=   0.449 min)
Startup calculation              ...        1.234 sec (=   0.021 min)   4.6 %
SCF iterations                   ...       25.603 sec (=   0.427 min)  95.0 %
Property calculations            ...        0.101 sec (=   0.002 min)   0.4 %
                             ****ORCA TERMINATED NORMALLY****
TOTAL RUN TIME: 0 days 0 hours 0 minutes 27 seconds 606 msec
