26
 energy: -668.992647334272 gnorm: 0.002986441835 xtb: 6.7.1 (edcfbbe)
C           -3.48051462351879       -0.66552882605546       -1.52605861412509
N           -2.39501837771805       -0.13375428785021       -0.71185149813242
C           -2.38683385399778       -0.21276466961796        0.62384210060250
O           -3.26313532978197       -0.68918711181980        1.33513248770359
O           -1.27436210473711        0.31336988246963        1.26967928609164
C           -0.19307953669661        0.81031359640335        0.53120715234872
C           -0.18321010696525        2.12934187758808        0.15609797825054
C            0.93402614231044        2.64550214342351       -0.53268242421789
C            2.00944218045654        1.83989440659389       -0.82063552640149
C            2.01721282052249        0.47720019173711       -0.43342756498266
C            0.88861222533296       -0.06498970696483        0.26056896063692
C            0.89288562432927       -1.42706348008445        0.64560327638734
C            1.97777698403206       -2.22190731387447        0.35935742708260
C            3.09669072241017       -1.69276637691886       -0.32018440574832
C            3.11505878253887       -0.37470682147260       -0.70900400703816
H           -4.25388088760138       -1.07134437481167       -0.87450306387451
H           -3.11239358131566       -1.46106318883967       -2.18045829795371
H           -3.91519582821136        0.12705527871023       -2.14187092393284
H           -1.59961533212119        0.27344739227890       -1.18302022626900
H           -1.03496495628618        2.75957954439547        0.39076301703700
H            0.93463819575411        3.68891884629324       -0.82971787546378
H            2.87112206819157        2.23660847727943       -1.34913064401006
H            0.03290698332373       -1.83342891108966        1.16765986557107
H            1.97771721152955       -3.26514824630325        0.65860033806683
H            3.94517212014925       -2.33476650902475       -0.53468194246444
H            3.97246297556670        0.03611156928193       -1.23419925347969
26
 energy: -668.992657756650 gnorm: 0.001717722703 xtb: 6.7.1 (edcfbbe)
C           -3.47987513230417       -0.66742880455975       -1.52573742513679
N           -2.39344838344723       -0.13654591014392       -0.71229869000044
C           -2.38538270693613       -0.21366636943846        0.62332059635848
O           -3.26254477595385       -0.68872867657575        1.33501805430642
O           -1.27529574757588        0.31530847400728        1.26956085342315
C           -0.19275208559108        0.81162456910926        0.53106763557924
C           -0.18282712133488        2.13054386980492        0.15597754759714
C            0.93494529774791        2.64642495121809       -0.53215382702272
C            2.01006137764751        1.84031096510523       -0.81945847496753
C            2.01721699564984        0.47762947619003       -0.43269380906707
C            0.88812502646841       -0.06431801546685        0.26124761673082
C            0.89201662762591       -1.42636395982847        0.64575906673340
C            1.97633770988520       -2.22157324076842        0.35846604133023
C            3.09526113958208       -1.69294013419035       -0.32125726430360
C            3.11448240445266       -0.37459919510846       -0.70893142091434
H           -4.25322893274581       -1.07253974822636       -0.87361823408973
H           -3.11279057179241       -1.46350843478998       -2.18005380338689
H           -3.91425499024148        0.12531856743832       -2.14150947106001
H           -1.60008426158137        0.27421122762889       -1.18424653007988
H           -1.03451323579902        2.76078288405917        0.39031556108345
H            0.93638155812164        3.68978214749096       -0.82922472432714
H            2.87203387770338        2.23677028455317       -1.34755853348289
H            0.03277391204318       -1.83334791651533        1.16843638448662
H            1.97571370260628       -3.26491603003736        0.65717304199753
H            3.94304633265648       -2.33538935242879       -0.53672313697546
H            3.97212213729311        0.03608056417753       -1.23379211645633
26
 energy: -668.992674154571 gnorm: 0.003441399872 xtb: 6.7.1 (edcfbbe)
C           -3.47542605821613       -0.67860718928041       -1.52418673217820
N           -2.38628909161649       -0.14857484180401       -0.71391125851521
C           -2.38164612127784       -0.21205989023369        0.62209541579200
O           -3.25782014475516       -0.69080107380669        1.33448764400163
O           -1.27925504536153        0.32517687811392        1.26905533825203
C           -0.19167227590892        0.81815458593520        0.52997371868072
C           -0.18039854064793        2.13709440480903        0.15634452858406
C            0.93994900545874        2.65143632005595       -0.52890428786063
C            2.01334731132563        1.84261133225291       -0.81421533720613
C            2.01699952831131        0.47965352063604       -0.43007542553337
C            0.88545465788239       -0.06097190878406        0.26306286558834
C            0.88702894065610       -1.42289084324173        0.64565243443490
C            1.96861409417597       -2.22029845065329        0.35398960855918
C            3.08793229007464       -1.69421967504678       -0.32638185808976
C            3.11141926136795       -0.37455002252594       -0.70913977159017
H           -4.24897119757413       -1.07958341962591       -0.86945115074829
H           -3.11248681453943       -1.47782321820740       -2.17705792515532
H           -3.90819991488805        0.11421691785363       -2.14091939906484
H           -1.60348496033727        0.28066371804984       -1.18881840300222
H           -1.03186692176248        2.76763344813130        0.38920894326240
H            0.94538596558548        3.69471536106041       -0.82577953022921
H            2.87716303970279        2.23784961926735       -1.33992320203681
H            0.03024254074355       -1.83184882318909        1.17063785449575
H            1.96484453767067       -3.26420034076537        0.65023428017584
H            3.93248115950714       -2.33910938918834       -0.54619954752237
H            3.97017254499929        0.03524841567184       -1.23269801771232
26
 energy: -668.992681320776 gnorm: 0.002537783228 xtb: 6.7.1 (edcfbbe)
C           -3.47435538686427       -0.68039665199559       -1.52388331289887
N           -2.38446233516995       -0.15140554208582       -0.71386825945697
C           -2.38026786718387       -0.21400165314117        0.62234558109546
O           -3.25734860009840       -0.69107506078903        1.33457164872425
O           -1.27929735982291        0.32700101788854        1.26890097184126
C           -0.19208830654951        0.81954319666612        0.53004022650612
C           -0.18000978149080        2.13852563601064        0.15646402051953
C            0.94080409306380        2.65257163505008       -0.52827747399349
C            2.01405348111430        1.84338542458958       -0.81373141746534
C            2.01684773029698        0.48019509252085       -0.42998090541162
C            0.88512138317664       -0.05984869366996        0.26300519501247
C            0.88581953262649       -1.42201268451465        0.64531162075498
C            1.96686051152273       -2.22020355756090        0.35331620531708
C            3.08646965846913       -1.69456349133552       -0.32703569520865
C            3.11071766672804       -0.37473016907722       -0.70942642139515
H           -4.24801060693648       -1.08077350915371       -0.86905748864681
H           -3.11200006441030       -1.47999755698403       -2.17660208705582
H           -3.90674207328407        0.11242043305677       -2.14089995236653
H           -1.60323425820570        0.28011511307586       -1.18841307929018
H           -1.03123853008419        2.76951049522134        0.38946666867840
H            0.94676335408213        3.69605164806280       -0.82461244827101
H            2.87827324167208        2.23834136914776       -1.33917600433072
H            0.02821558657479       -1.83020204317103        1.16967689640038
H            1.96237557600842       -3.26425030615224        0.64927221989921
H            3.93069255714005       -2.33995674090236       -0.54708464378666
H            3.96955800170473        0.03467061362131       -1.23324235973251
26
 energy: -668.992690838942 gnorm: 0.000959146568 xtb: 6.7.1 (edcfbbe)
C           -3.47099215619212       -0.68608300604548       -1.52320055515591
N           -2.38032326324996       -0.15780062781487       -0.71362540965053
C           -2.37824486558836       -0.21622641750480        0.62323087678915
O           -3.25522430583895       -0.69308441548107        1.33503591896786
O           -1.27950638059646        0.33196838992379        1.26859105823365
C           -0.19307231416525        0.82316066893602        0.53045193444577
C           -0.17846200530353        2.14239748987877        0.15744553797644
C            0.94339143099950        2.65555883399092       -0.52630067615125
C            2.01590269720206        1.84536864988194       -0.81254109174552
C            2.01620041744955        0.48149489642812       -0.43013154039078
C            0.88394523038978       -0.05705708811966        0.26220767805754
C            0.88212944940823       -1.41977659748692        0.64360728421983
C            1.96180142017715       -2.21986189071635        0.35129008563605
C            3.08227625507522       -1.69541364725001       -0.32882816787769
C            3.10862328500182       -0.37532073692867       -0.71048292423509
H           -4.24512562628742       -1.08472373225697       -0.86811094139542
H           -3.10962466075928       -1.48679793902245       -2.17508946157959
H           -3.90223074462461        0.10658790192081       -2.14124938294974
H           -1.60267122954786        0.27962509798586       -1.18732104163665
H           -1.02883316654747        2.77471723610488        0.39074221698332
H            0.95064879075324        3.69954260441497       -0.82118843628887
H            2.88101960904355        2.23957042692249       -1.33739075599242
H            0.02284045128198       -1.82564375565816        1.16715589620111
H            1.95553173435034       -3.26418200826600        0.64660502701014
H            3.92559335140732       -2.34209436923915       -0.54925603191254
H            3.96792199917073        0.03298392116527       -1.23457065112892
26
 energy: -668.992696420368 gnorm: 0.001256074914 xtb: 6.7.1 (edcfbbe)
C           -3.46596252625259       -0.69442244072772       -1.52236622863887
N           -2.37526291977906       -0.16541496075971       -0.71345175480938
C           -2.37621243716260       -0.21722909212240        0.62378099012556
O           -3.25164987339565       -0.69613769542648        1.33577084441423
O           -1.28056878517533        0.33894011922079        1.26857038811761
C           -0.19382062961207        0.82827134009228        0.53103775388467
C           -0.17598527563880        2.14788237612973        0.15921922776492
C            0.94716824583265        2.65958894114634       -0.52346216316206
C            2.01802178855339        1.84769124214119       -0.81090347596086
C            2.01509702929079        0.48315416267014       -0.43046053855502
C            0.88201028038072       -0.05358410407211        0.26122690792547
C            0.87703374935398       -1.41676242583930        0.64146567358969
C            1.95464868186496       -2.21917135714785        0.34823892353876
C            3.07615993258597       -1.69645822924464       -0.33160577708372
C            3.10549781634105       -0.37603490644448       -0.71190958875260
H           -4.24074994565006       -1.09094174365755       -0.86678530718795
H           -3.10547101840047       -1.49685387649425       -2.17264068992168
H           -3.89611458497058        0.09748337009928       -2.14212846241410
H           -1.60213638501910        0.28042627084803       -1.18668371994142
H           -1.02495346753897        2.78195471960982        0.39297685367443
H            0.95650733376863        3.70406404566062       -0.81659283393837
H            2.88419380183412        2.24081329634516       -1.33476587334092
H            0.01652685480363       -1.82042774253983        1.16481194592391
H            1.94600510154751       -3.26378988248396        0.64247341217526
H            3.91791394419990       -2.34490025407613       -0.55293966124637
H            3.96561603172536        0.03076286437707       -1.23580525906496
26
 energy: -668.992700461383 gnorm: 0.000775950063 xtb: 6.7.1 (edcfbbe)
C           -3.46109547748031       -0.70160146929310       -1.52195880530808
N           -2.37161275959526       -0.17006510493680       -0.71311780090942
C           -2.37496638151849       -0.21722006977645        0.62411482837089
O           -3.24846212729126       -0.69841309295105        1.33676032111002
O           -1.28204833620695        0.34498551974463        1.26906092756937
C           -0.19414720329030        0.83271726973299        0.53151197443726
C           -0.17382524548453        2.15269399496415        0.16115420450500
C            0.95035608963118        2.66296013231618       -0.52096531443718
C            2.01933689180999        1.84926669356440       -0.80963364990536
C            2.01380413351974        0.48434106770337       -0.43087979362106
C            0.87989268728061       -0.05096824533287        0.26052840225169
C            0.87251290822075       -1.41431327446827        0.63976078421927
C            1.94837013001827       -2.21846912089022        0.34545370087883
C            3.07061675568869       -1.69732280841462       -0.33432362673546
C            3.10245642382758       -0.37667507729848       -0.71337322812979
H           -4.23631991163243       -1.09702045894498       -0.86610123523493
H           -3.09978372639684       -1.50540703269543       -2.17013103649226
H           -3.89093926610681        0.08893031899783       -2.14367653380762
H           -1.60129098976240        0.28153829692977       -1.18619777682001
H           -1.02133103894669        2.78832345084655        0.39576323821688
H            0.96172009555320        3.70775260202688       -0.81274840494567
H            2.88610435090204        2.24128880898014       -1.33315887889891
H            0.01184459639038       -1.81690942311214        1.16363294232696
H            1.93791808481098       -3.26326493427072        0.63879772543497
H            3.91101150283774       -2.34714194773189       -0.55641121365452
H            3.96338797539615        0.02889285847615       -1.23679508014854
26
 energy: -668.992700461383 gnorm: 0.000775950063 xtb: 6.7.1 (edcfbbe)
C           -3.46109547748031       -0.70160146929310       -1.52195880530808
N           -2.37161275959526       -0.17006510493680       -0.71311780090942
C           -2.37496638151849       -0.21722006977645        0.62411482837089
O           -3.24846212729126       -0.69841309295105        1.33676032111002
O           -1.28204833620695        0.34498551974463        1.26906092756937
C           -0.19414720329030        0.83271726973299        0.53151197443726
C           -0.17382524548453        2.15269399496415        0.16115420450500
C            0.95035608963118        2.66296013231618       -0.52096531443718
C            2.01933689180999        1.84926669356440       -0.80963364990536
C            2.01380413351974        0.48434106770337       -0.43087979362106
C            0.87989268728061       -0.05096824533287        0.26052840225169
C            0.87251290822075       -1.41431327446827        0.63976078421927
C            1.94837013001827       -2.21846912089022        0.34545370087883
C            3.07061675568869       -1.69732280841462       -0.33432362673546
C            3.10245642382758       -0.37667507729848       -0.71337322812979
H           -4.23631991163243       -1.09702045894498       -0.86610123523493
H           -3.09978372639684       -1.50540703269543       -2.17013103649226
H           -3.89093926610681        0.08893031899783       -2.14367653380762
H           -1.60129098976240        0.28153829692977       -1.18619777682001
H           -1.02133103894669        2.78832345084655        0.39576323821688
H            0.96172009555320        3.70775260202688       -0.81274840494567
H            2.88610435090204        2.24128880898014       -1.33315887889891
H            0.01184459639038       -1.81690942311214        1.16363294232696
H            1.93791808481098       -3.26326493427072        0.63879772543497
H            3.91101150283774       -2.34714194773189       -0.55641121365452
H            3.96338797539615        0.02889285847615       -1.23679508014854
