
                                 *****************
                                 * O   R   C   A *
                                 *****************

                                            #,                                       
                                            ###                                      
                                            ####                                     
                                            #####                                    
                                            ######                                   
                                           ########,                                 
                                     ,,################,,,,,                         
                               ,,#################################,,                 
                          ,,##########################################,,             
                       ,#########################################, ''#####,          
                    ,#############################################,,   '####,        
                  ,##################################################,,,,####,       
                ,###########''''           ''''###############################       
              ,#####''   ,,,,##########,,,,          '''####'''          '####       
            ,##' ,,,,###########################,,,                        '##       
           ' ,,###''''                  '''############,,,                           
         ,,##''                                '''############,,,,        ,,,,,,###''
      ,#''                                            '''#######################'''  
     '                                                          ''''####''''         
             ,#######,   #######,   ,#######,      ##                                
            ,#'     '#,  ##    ##  ,#'     '#,    #''#        ,####,   ,####,        
            ##       ##  ##   ,#'  ##            #'  '#       #'       #'  '#        
            ##       ##  #######   ##           ,######,      #####,   #    #        
            '#,     ,#'  ##    ##  '#,     ,#' ,#      #,     #,   #   #,  ,#        
             '#######'   ##     ##  '#######'  #'      '#     '####' # '####'        



                #########################################################
                #                        -***-                          #
                #          Department of theory and spectroscopy        #
                #                                                       #
                #                      Frank Neese                      #
                #                                                       #
                #     Directorship, Architecture, Infrastructure        #
                #                    SHARK, DRIVERS                     #
                #        Core code/Algorithms in most modules           #
                #                                                       #
                #        Max Planck Institute fuer Kohlenforschung      #
                #                Kaiser Wilhelm Platz 1                 #
                #                 D-45470 Muelheim/Ruhr                 #
                #                      Germany                          #
                #                                                       #
                #                  All rights reserved                  #
                #                        -***-                          #
                #########################################################


                         Program Version 6.0.0  -   RELEASE  -


 With contributions from (in alphabetic order):
   Daniel Aravena         : Magnetic Suceptibility
   Michael Atanasov       : Ab Initio Ligand Field Theory (pilot matlab implementation)
   Alexander A. Auer      : GIAO ZORA, VPT2 properties, NMR spectrum
   Ute Becker             : All parallelization in ORCA, NUMFREQ, NUMCALC
   Giovanni Bistoni       : ED, misc. LED, open-shell LED, HFLD
   Martin Brehm           : Molecular dynamics
   Dmytro Bykov           : pre 5.0 version of the SCF Hessian
   Marcos Casanova-Páez   : Triplet and SCS-CIS(D). UHF-(DLPNO)-IP/EA/STEOM-CCSD. UHF-CVS-IP/STEOM-CCSD
   Vijay G. Chilkuri      : MRCI spin determinant printing, contributions to CSF-ICE
   Pauline Colinet        : FMM embedding
   Dipayan Datta          : RHF DLPNO-CCSD density
   Achintya Kumar Dutta   : EOM-CC, STEOM-CC
   Nicolas Foglia         : Exact transition moments, OPA infrastructure, MCD improvements
   Dmitry Ganyushin       : Spin-Orbit,Spin-Spin,Magnetic field MRCI
   Miquel Garcia          : C-PCM and meta-GGA Hessian, CCSD/C-PCM, Gaussian charge scheme
   Tiago L. C. Gouveia    : GS-ROHF, GS-ROCIS
   Yang Guo               : DLPNO-NEVPT2, F12-NEVPT2, CIM, IAO-localization
   Andreas Hansen         : Spin unrestricted coupled pair/coupled cluster methods
   Ingolf Harden          : AUTO-CI MPn and infrastructure 
   Benjamin Helmich-Paris : MC-RPA, TRAH-(SCF,CASSCF), AVAS, COSX integrals, SCF dyn. polar.
   Lee Huntington         : MR-EOM, pCC
   Robert Izsak           : Overlap fitted RIJCOSX, COSX-SCS-MP3, EOM
   Riya Kayal             : Wick's Theorem for AUTO-CI, AUTO-CI UHF-CCSDT
   Emily Kempfer          : AUTO-CI, RHF CISDT and CCSDT
   Christian Kollmar      : KDIIS, OOCD, Brueckner-CCSD(T), CCSD density, CASPT2, CASPT2-K, improved NEVPT2
   Axel Koslowski         : Symmetry handling
   Simone Kossmann        : Meta GGA functionals, TD-DFT gradient, OOMP2, (MP2 Hessian; deprecated post 5.0)
   Lucas Lang             : DCDCAS
   Marvin Lechner         : AUTO-CI (C++ implementation), FIC-MRCC
   Spencer Leger          : CASSCF response
   Dagmar Lenk            : GEPOL surface, SMD, ORCA-2-JSON
   Dimitrios Liakos       : Extrapolation schemes; Compound Job, initial MDCI parallelization
   Dimitrios Manganas     : Further ROCIS development; embedding schemes. LFT, Crystal Embedding
   Dimitrios Pantazis     : SARC Basis sets
   Anastasios Papadopoulos: AUTO-CI, single reference methods and gradients
   Taras Petrenko         : pre 6.0 DFT Hessian and TD-DFT gradient, (ASA, deprecated), ECA, 1-Electron XAS/XES, NRVS
   Peter Pinski           : DLPNO-MP2, DLPNO-MP2 Gradient
   Christoph Reimann      : Effective Core Potentials
   Marius Retegan         : Local ZFS, SOC
   Christoph Riplinger    : Optimizer, TS searches, QM/MM, DLPNO-CCSD(T), (RO)-DLPNO pert. Triples
   Michael Roemelt        : Original ROCIS implementation
   Masaaki Saitow         : Open-shell DLPNO-CCSD energy and density
   Barbara Sandhoefer     : DKH picture change effects
   Kantharuban Sivalingam : CASSCF convergence/infrastructure, NEVPT2 and variants, FIC-MRCI
   Bernardo de Souza      : ESD, SOC TD-DFT
   Georgi Stoychev        : AutoAux, RI-MP2 NMR, DLPNO-MP2 response, X2C
   Van Anh Tran           : RI-MP2 g-tensors
   Willem Van den Heuvel  : Paramagnetic NMR
   Zikuan Wang            : NOTCH, Electric field optimization 
   Frank Wennmohs         : Technical directorship and infrastructure
   Hang Xu                : AUTO-CI-Response properties 


 We gratefully acknowledge several colleagues who have allowed us to
 interface, adapt or use parts of their codes:
   Stefan Grimme, W. Hujo, H. Kruse, P. Pracht,  : VdW corrections, initial TS optimization,
                  C. Bannwarth, S. Ehlert,         DFT functionals, gCP, sTDA/sTD-DF
                  L. Wittmann, M. Mueller
   Ed Valeev, F. Pavosevic, A. Kumar             : LibInt (2-el integral package), F12 methods
   Garnet Chan, S. Sharma, J. Yang, R. Olivares  : DMRG
   Ulf Ekstrom                                   : XCFun DFT Library
   Mihaly Kallay                                 : mrcc  (arbitrary order and MRCC methods)
   Frank Weinhold                                : gennbo (NPA and NBO analysis)
   Simon Mueller                                 : openCOSMO-RS
   Christopher J. Cramer and Donald G. Truhlar   : smd solvation model
   Lars Goerigk                                  : TD-DFT with DH, B97 family of functionals
   V. Asgeirsson, H. Jonsson                     : NEB implementation
   FAccTs GmbH                                   : IRC, NEB, NEB-TS, DLPNO-Multilevel, CI-OPT
                                                   MM, QMMM, 2- and 3-layer-ONIOM, Crystal-QMMM,
                                                   LR-CPCM, SF, NACMEs, symmetry and pop. for TD-DFT,
                                                   nearIR, NL-DFT gradient (VV10), updates on ESD,
                                                   ML-optimized integration grids, MBIS, APM,
                                                   GOAT, DOCKER, SOLVATOR, interface openCOSMO-RS
   S Lehtola, MJT Oliveira, MAL Marques          : LibXC Library
   Liviu Ungur et al                             : ANISO software


 Your calculation uses the libint2 library for the computation of 2-el integrals
 For citations please refer to: http://libint.valeyev.net

 Your ORCA version has been built with support for libXC version: 6.2.2
 For citations please refer to: https://libxc.gitlab.io

 This ORCA versions uses:
   CBLAS   interface :  Fast vector & matrix operations
   LAPACKE interface :  Fast linear algebra routines
   SCALAPACK package :  Parallel linear algebra routines
   Shared memory     :  Shared parallel matrices
   BLAS/LAPACK       :  OpenBLAS 0.3.27  USE64BITINT DYNAMIC_ARCH NO_AFFINITY SkylakeX SINGLE_THREADED
        Core in use  :  SkylakeX
   Copyright (c) 2011-2014, The OpenBLAS Project


Your calculation utilizes the geometrical counterpoise correction gCP
Please cite in your paper:
H.Kruse, S. Grimme J.Chem.Phys., 136, (2012), 154101 
   

Your calculation utilizes the atom-pairwise dispersion correction
based on EEQ partial charges (D4)


================================================================================

----- Orbital basis set information -----
Your calculation utilizes the basis: def2-SV(P)
   F. Weigend and R. Ahlrichs, Phys. Chem. Chem. Phys. 7, 3297 (2005).

----- AuxJ basis set information -----
Your calculation utilizes the auxiliary basis: def2/J
   F. Weigend, Phys. Chem. Chem. Phys. 8, 1057 (2006).

================================================================================
                                        WARNINGS
                       Please study these warnings very carefully!
================================================================================


================================================================================
                                       INPUT FILE
================================================================================
NAME = sp.inp
|  1> ! pbe def2-sv(p) def2/J RI DEFGRID1 loosescf d4 GCP(DFT/SV(P)) printgap
|  2> %output
|  3>     printlevel normal
|  4> end
|  5> * xyz 0 1
|  6> C -2.79216e-05 1.39617e-05 -1.0436e-05
|  7> F 0.524409405 -0.3301346337 1.1584539796
|  8> F 0.4112820951 -0.8404307591 -0.9222576575
|  9> F 0.3746882002 1.2181433355 -0.319094432
| 10> F -1.3103620485 -0.0475867693 0.0829047075
| 11> *
| 12> 
| 13>                          ****END OF INPUT****
================================================================================

                       ****************************
                       * Single Point Calculation *
                       ****************************

---------------------------------
CARTESIAN COORDINATES (ANGSTROEM)
---------------------------------
  C     -0.000028    0.000014   -0.000010
  F      0.524409   -0.330135    1.158454
  F      0.411282   -0.840431   -0.922258
  F      0.374688    1.218143   -0.319094
  F     -1.310362   -0.047587    0.082905

----------------------------
CARTESIAN COORDINATES (A.U.)
----------------------------
  NO LB      ZA    FRAG     MASS         X           Y           Z
   0 C     6.0000    0    12.011   -0.000053    0.000026   -0.000020
   1 F     9.0000    0    18.998    0.990990   -0.623864    2.189161
   2 F     9.0000    0    18.998    0.777211   -1.588184   -1.742814
   3 F     9.0000    0    18.998    0.708058    2.301957   -0.603001
   4 F     9.0000    0    18.998   -2.476225   -0.089926    0.156667

--------------------------------
INTERNAL COORDINATES (ANGSTROEM)
--------------------------------
 C      0   0   0     0.000000000000     0.00000000     0.00000000
 F      1   0   0     1.313800748511     0.00000000     0.00000000
 F      1   2   0     1.313797243155   109.46617488     0.00000000
 F      1   2   3     1.313798287316   109.46909565   240.00366953
 F      1   2   3     1.313817443457   109.47311440   120.00034580

---------------------------
INTERNAL COORDINATES (A.U.)
---------------------------
 C      0   0   0     0.000000000000     0.00000000     0.00000000
 F      1   0   0     2.482723609226     0.00000000     0.00000000
 F      1   2   0     2.482716985065   109.46617488     0.00000000
 F      1   2   3     2.482718958242   109.46909565   240.00366953
 F      1   2   3     2.482755158102   109.47311440   120.00034580

---------------------
BASIS SET INFORMATION
---------------------
There are 2 groups of distinct atoms

 Group   1 Type C   : 7s4p1d contracted to 3s2p1d pattern {511/31/1}
 Group   2 Type F   : 7s4p1d contracted to 3s2p1d pattern {511/31/1}

Atom   0C    basis set group =>   1
Atom   1F    basis set group =>   2
Atom   2F    basis set group =>   2
Atom   3F    basis set group =>   2
Atom   4F    basis set group =>   2
---------------------------------
AUXILIARY/J BASIS SET INFORMATION
---------------------------------
There are 2 groups of distinct atoms

 Group   1 Type C   : 12s5p4d2f1g contracted to 6s4p3d1f1g pattern {711111/2111/211/2/1}
 Group   2 Type F   : 12s5p4d2f1g contracted to 6s4p3d1f1g pattern {711111/2111/211/2/1}

Atom   0C    basis set group =>   1
Atom   1F    basis set group =>   2
Atom   2F    basis set group =>   2
Atom   3F    basis set group =>   2
Atom   4F    basis set group =>   2
------------------------------------------------------------------------------
                             ORCA STARTUP CALCULATIONS
                           -- RI-GTO INTEGRALS CHOSEN --
------------------------------------------------------------------------------
------------------------------------------------------------------------------
                   ___                                                        
                  /   \      - P O W E R E D   B Y -                         
                 /     \                                                     
                 |  |  |   _    _      __       _____    __    __             
                 |  |  |  | |  | |    /  \     |  _  \  |  |  /  |          
                  \  \/   | |  | |   /    \    | | | |  |  | /  /          
                 / \  \   | |__| |  /  /\  \   | |_| |  |  |/  /          
                |  |  |   |  __  | /  /__\  \  |    /   |      \           
                |  |  |   | |  | | |   __   |  |    \   |  |\   \          
                \     /   | |  | | |  |  |  |  | |\  \  |  | \   \       
                 \___/    |_|  |_| |__|  |__|  |_| \__\ |__|  \__/        
                                                                              
                      - O R C A' S   B I G   F R I E N D -                    
                                      &                                       
                       - I N T E G R A L  F E E D E R -                       
                                                                              
 v1 FN, 2020, v2 2021, v3 2022-2024                                           
------------------------------------------------------------------------------


----------------------
SHARK INTEGRAL PACKAGE
----------------------

Number of atoms                             ...      5
Number of basis functions                   ...     70
Number of shells                            ...     30
Maximum angular momentum                    ...      2
Integral batch strategy                     ... SHARK/LIBINT Hybrid
RI-J (if used) integral strategy            ... SPLIT-RIJ (Revised 2003 algorithm where possible)
Printlevel                                  ...      1
Contraction scheme used                     ... SEGMENTED contraction
Prescreening option                         ... SCHWARTZ
   Thresh                                   ... 1.000e-09
   Tcut                                     ... 1.000e-10
   Tpresel                                  ... 1.000e-10 
Coulomb Range Separation                    ... NOT USED
Exchange Range Separation                   ... NOT USED
Multipole approximations                    ... NOT USED
Finite Nucleus Model                        ... NOT USED
CABS basis                                  ... NOT available
Auxiliary Coulomb fitting basis             ... AVAILABLE
   # of basis functions in Aux-J            ...    245
   # of shells in Aux-J                     ...     75
   Maximum angular momentum in Aux-J        ...      4
Auxiliary J/K fitting basis                 ... NOT available
Auxiliary Correlation fitting basis         ... NOT available
Auxiliary 'external' fitting basis          ... NOT available

Checking pre-screening integrals            ... done (  0.0 sec) Dimension = 30
Check shell pair data                       ... done (  0.0 sec)
Shell pair information
Shell pair cut-off parameter TPreSel        ...   1.0e-10
Total number of shell pairs                 ...       465
Shell pairs after pre-screening             ...       459
Total number of primitive shell pairs       ...      1895
Primitive shell pairs kept                  ...      1473
          la=0 lb=0:    114 shell pairs
          la=1 lb=0:    150 shell pairs
          la=1 lb=1:     55 shell pairs
          la=2 lb=0:     75 shell pairs
          la=2 lb=1:     50 shell pairs
          la=2 lb=2:     15 shell pairs

Calculating one electron integrals          ... done (  0.0 sec)
Calculating RI/J V-Matrix + Cholesky decomp.... done (  0.0 sec)
Calculating Nuclear repulsion               ... done (  0.0 sec) ENN=    206.874399394764 Eh

Diagonalization of the overlap matrix:
Smallest eigenvalue                        ... 1.790e-02
Time for diagonalization                   ...    0.000 sec
Threshold for overlap eigenvalues          ... 1.000e-07
Number of eigenvalues below threshold      ... 0
Time for construction of square roots      ...    0.012 sec
Total time needed                          ...    0.019 sec

-------------------
DFT GRID GENERATION
-------------------

General Integration Accuracy     IntAcc      ... 4.159
Radial Grid Type                 RadialGrid  ... OptM3 with GC (2021)
Angular Grid (max. ang.)         AngularGrid ... 3 (Lebedev-194)
Angular grid pruning method      GridPruning ... 4 (adaptive)
Weight generation scheme         WeightScheme... mBecke (2022)
Basis function cutoff            BFCut       ... 1.0000e-10
Integration weight cutoff        WCut        ... 1.0000e-14
Partially contracted basis set               ... off
Rotationally invariant grid construction     ... off
Angular grids for H and He will be reduced by one unit

Total number of grid points                  ...    16690
Total number of batches                      ...      263
Average number of points per batch           ...       63
Average number of grid points per atom       ...     3338
Initializing property integral containers    ... done (  0.0 sec)

SHARK setup successfully completed in   0.3 seconds

Maximum memory used throughout the entire STARTUP-calculation: 9.5 MB
-------------------------------------------------------------------------------
                                 ORCA GUESS
                   Start orbitals & Density for SCF / CASSCF
-------------------------------------------------------------------------------

------------
SCF SETTINGS
------------
Hamiltonian:
 Density Functional     Method          .... DFT(GTOs)
 Exchange Functional    Exchange        .... PBE
   PBE kappa parameter   XKappa         ....  0.804000
   PBE mue parameter    XMuePBE         ....  0.219520
 Correlation Functional Correlation     .... PBE
   PBE beta parameter  CBetaPBE         ....  0.066725
 LDA part of GGA corr.  LDAOpt          .... PW91-LDA
 Gradients option       PostSCFGGA      .... off
   NL short-range parameter             ....  6.400000
 RI-approximation to the Coulomb term is turned on
   Number of AuxJ basis functions       .... 245


General Settings:
 Integral files         IntName         .... sp
 Hartree-Fock type      HFTyp           .... RHF
 Total Charge           Charge          ....    0
 Multiplicity           Mult            ....    1
 Number of Electrons    NEL             ....   42
 Basis Dimension        Dim             ....   70
 Nuclear Repulsion      ENuc            ....    206.8743993948 Eh

Convergence Acceleration:
 AO-DIIS                CNVDIIS         .... on
   Start iteration      DIISMaxIt       ....    12
   Startup error        DIISStart       ....  0.200000
   # of expansion vecs  DIISMaxEq       ....     5
   Bias factor          DIISBfac        ....   1.050
   Max. coefficient     DIISMaxC        ....  10.000
 MO-DIIS                CNVKDIIS        .... off
 Trust-Rad. Augm. Hess. CNVTRAH         .... auto
   Auto Start mean grad. ratio tolernc. ....  1.125000
   Auto Start start iteration           ....    50
   Auto Start num. interpolation iter.  ....    10
   Max. Number of Micro iterations      ....    24
   Max. Number of Macro iterations      .... Maxiter - #DIIS iter
   Number of Davidson start vectors     ....     2
   Converg. threshold    (grad. norm)   ....   1.000e-04
   Grad. Scal. Fac. for Micro threshold ....   0.100
   Minimum threshold for Micro iter.    ....   1.000e-02
   NR start threshold (gradient norm)   ....   1.000e-04
   Initial trust radius                 ....   0.400
   Minimum AH scaling param. (alpha)    ....   1.000
   Maximum AH scaling param. (alpha)    .... 1000.000
   Quad. conv. algorithm                .... NR
   White noise on init. David. guess    .... on
   Maximum white noise                  ....   0.010
   Pseudo random numbers                .... off
   Inactive MOs                         .... canonical
   Orbital update algorithm             .... Taylor
   Preconditioner                       .... Diag
   Full preconditioner red. dimension   ....   250
 SOSCF                  CNVSOSCF        .... on
   Start iteration      SOSCFMaxIt      ....   150
   Startup grad/error   SOSCFStart      ....  0.003300
   Hessian update       SOSCFHessUp     .... L-BFGS
 Level Shifting         CNVShift        .... on
   Level shift para.    LevelShift      ....    0.2500
   Turn off err/grad.   ShiftErr        ....    0.0010
 Zerner damping         CNVZerner       .... off
 Static damping         CNVDamp         .... on
   Fraction old density DampFac         ....    0.7000
   Max. Damping (<1)    DampMax         ....    0.9800
   Min. Damping (>=0)   DampMin         ....    0.0000
   Turn off err/grad.   DampErr         ....    0.1000

SCF Procedure:
 Maximum # iterations   MaxIter         ....   125
 SCF integral mode      SCFMode         .... Direct
   Integral package                     .... SHARK and LIBINT hybrid scheme
 Reset frequency        DirectResetFreq ....    20
 Integral Threshold     Thresh          ....  1.000e-09 Eh
 Primitive CutOff       TCut            ....  1.000e-10 Eh

Convergence Tolerance:
 Convergence Check Mode ConvCheckMode   .... Total+1el-Energy
 Convergence forced     ConvForced      .... 0
 Energy Change          TolE            ....  1.000e-05 Eh
 1-El. energy change                    ....  1.000e-02 Eh
 Orbital Gradient       TolG            ....  1.000e-04
 Orbital Rotation angle TolX            ....  1.000e-04
 DIIS Error             TolErr          ....  5.000e-04

------------------------------
INITIAL GUESS: MODEL POTENTIAL
------------------------------
Loading Hartree-Fock densities                     ... done
Calculating cut-offs                               ... done
Initializing the effective Hamiltonian             ... done
Setting up the integral package (SHARK)            ... done
Starting the Coulomb interaction                   ... done (   0.0 sec)
Making the grid                                    ... done (   0.0 sec)
Mapping shells                                     ... done
Starting the XC term evaluation                    ... done (   0.0 sec)
  promolecular density results
     # of electrons  =     42.000131303
     EX              =    -45.159741267
     EC              =     -1.478248644
     EX+EC           =    -46.637989911
Transforming the Hamiltonian                       ... done (   0.0 sec)
Diagonalizing the Hamiltonian                      ... done (   0.0 sec)
Back transforming the eigenvectors                 ... done (   0.0 sec)
Now organizing SCF variables                       ... done
                      ------------------
                      INITIAL GUESS DONE (   0.1 sec)
                      ------------------
             **** ENERGY FILE WAS UPDATED (sp.en.tmp) ****
Finished Guess after   0.3 sec
Maximum memory used throughout the entire GUESS-calculation: 7.8 MB

-------------------------------------------------------------------------------------------
                                      ORCA LEAN-SCF
                              memory conserving SCF solver
-------------------------------------------------------------------------------------------

----------------------------------------D-I-I-S--------------------------------------------
Iteration    Energy (Eh)           Delta-E    RMSDP     MaxDP     DIISErr   Damp  Time(sec)
-------------------------------------------------------------------------------------------
               ***  Starting incremental Fock matrix formation  ***
    1    -436.6436796478135420     0.00e+00  5.48e-03  1.25e-01  1.88e-01  0.700   0.2
    2    -436.6950237060423206    -5.13e-02  2.65e-03  5.94e-02  6.43e-02  0.700   0.3
                               ***Turning on AO-DIIS***
    3    -436.7096566435740215    -1.46e-02  4.60e-04  6.87e-03  9.72e-03  0.700   0.3
    4    -436.7202100158231133    -1.06e-02  5.33e-04  6.78e-03  5.40e-03  0.000   0.2
                              *** Initializing SOSCF ***
---------------------------------------S-O-S-C-F--------------------------------------
Iteration    Energy (Eh)           Delta-E    RMSDP     MaxDP     MaxGrad    Time(sec)
--------------------------------------------------------------------------------------
    5    -436.7453314953276049    -2.51e-02  1.25e-04  9.32e-04  8.97e-04     0.3
               *** Restarting incremental Fock matrix formation ***
    6    -436.7453436173796035    -1.21e-05  3.62e-05  7.02e-04  1.47e-04     0.2
    7    -436.7453439673091680    -3.50e-07  1.17e-05  2.40e-04  6.13e-05     0.3
                 **** Energy Check signals convergence ****

               *****************************************************
               *                     SUCCESS                       *
               *           SCF CONVERGED AFTER   7 CYCLES          *
               *****************************************************

             **** ENERGY FILE WAS UPDATED (sp.en.tmp) ****

----------------
TOTAL SCF ENERGY
----------------

Total Energy       :       -436.74534396730917 Eh          -11884.44500 eV

Components:
Nuclear Repulsion  :        206.87439939476371 Eh            5629.33860 eV
Electronic Energy  :       -643.61974336207288 Eh          -17513.78360 eV
One Electron Energy:      -1018.33718986882923 Eh          -27710.36370 eV
Two Electron Energy:        374.71744650675635 Eh           10196.58010 eV

Virial components:
Potential Energy   :       -871.32535902145401 Eh          -23709.96841 eV
Kinetic Energy     :        434.58001505414484 Eh           11825.52341 eV
Virial Ratio       :          2.00498257820920

DFT components:
N(Alpha)           :       21.000001308199 electrons
N(Beta)            :       21.000001308199 electrons
N(Total)           :       42.000002616398 electrons
E(X)               :      -45.393160910601 Eh       
E(C)               :       -1.480716385132 Eh       
E(XC)              :      -46.873877295733 Eh       

---------------
SCF CONVERGENCE
---------------

  Last Energy change         ...    3.4993e-07  Tolerance :   1.0000e-05
  Last MAX-Density change    ...    2.3974e-04  Tolerance :   1.0000e-03
  Last RMS-Density change    ...    1.1731e-05  Tolerance :   1.0000e-04
  Last DIIS Error            ...    8.9690e-04  Tolerance :   5.0000e-04
  Last Orbital Gradient      ...    6.1300e-05  Tolerance :   1.0000e-04
  Last Orbital Rotation      ...    7.3203e-05  Tolerance :   1.0000e-04


----------------
ORBITAL ENERGIES
----------------

  NO   OCC          E(Eh)            E(eV) 
   0   2.0000     -24.316710      -661.6913 
   1   2.0000     -24.316621      -661.6889 
   2   2.0000     -24.316618      -661.6888 
   3   2.0000     -24.316600      -661.6883 
   4   2.0000     -10.209539      -277.8157 
   5   2.0000      -1.260257       -34.2933 
   6   2.0000      -1.140427       -31.0326 
   7   2.0000      -1.140425       -31.0325 
   8   2.0000      -1.140413       -31.0322 
   9   2.0000      -0.647221       -17.6118 
  10   2.0000      -0.574131       -15.6229 
  11   2.0000      -0.574123       -15.6227 
  12   2.0000      -0.574121       -15.6226 
  13   2.0000      -0.435868       -11.8606 
  14   2.0000      -0.435857       -11.8603 
  15   2.0000      -0.415576       -11.3084 
  16   2.0000      -0.415571       -11.3083 
  17   2.0000      -0.415568       -11.3082 
  18   2.0000      -0.366239        -9.9659 
  19   2.0000      -0.366228        -9.9656 
  20   2.0000      -0.366220        -9.9654 
  21   0.0000       0.146420         3.9843 
  22   0.0000       0.154256         4.1975 
  23   0.0000       0.154283         4.1983 
  24   0.0000       0.154292         4.1985 
  25   0.0000       0.278787         7.5862 
  26   0.0000       0.392386        10.6774 
  27   0.0000       0.392397        10.6777 
  28   0.0000       0.392429        10.6785 
  29   0.0000       0.944927        25.7128 
  30   0.0000       0.944939        25.7131 
  31   0.0000       1.007070        27.4038 
*Only the first 10 virtual orbitals were printed.

                    ********************************
                    * MULLIKEN POPULATION ANALYSIS *
                    ********************************

-----------------------
MULLIKEN ATOMIC CHARGES
-----------------------
   0 C :    0.423974
   1 F :   -0.105980
   2 F :   -0.106005
   3 F :   -0.105988
   4 F :   -0.106001
Sum of atomic charges:    0.0000000

--------------------------------
MULLIKEN REDUCED ORBITAL CHARGES
--------------------------------
  0 C s       :     2.903387  s :     2.903387
      pz      :     0.807273  p :     2.421815
      px      :     0.807260
      py      :     0.807282
      dz2     :     0.051934  d :     0.250823
      dxz     :     0.046191
      dyz     :     0.051777
      dx2y2   :     0.057489
      dxy     :     0.043432

  1 F s       :     3.882445  s :     3.882445
      pz      :     1.535925  p :     5.214752
      px      :     1.817494
      py      :     1.861333
      dz2     :     0.003122  d :     0.008783
      dxz     :     0.002626
      dyz     :     0.001978
      dx2y2   :     0.000518
      dxy     :     0.000539

  2 F s       :     3.882453  s :     3.882453
      pz      :     1.665634  p :     5.214769
      px      :     1.845452
      py      :     1.703684
      dz2     :     0.001759  d :     0.008783
      dxz     :     0.001487
      dyz     :     0.003067
      dx2y2   :     0.001198
      dxy     :     0.001272

  3 F s       :     3.882458  s :     3.882458
      pz      :     1.863232  p :     5.214747
      px      :     1.853032
      py      :     1.498483
      dz2     :     0.001174  d :     0.008783
      dxz     :     0.000355
      dyz     :     0.002136
      dx2y2   :     0.002832
      dxy     :     0.002284

  4 F s       :     3.882449  s :     3.882449
      pz      :     1.888290  p :     5.214770
      px      :     1.436976
      py      :     1.889504
      dz2     :     0.001229  d :     0.008782
      dxz     :     0.001979
      dyz     :     0.000080
      dx2y2   :     0.003545
      dxy     :     0.001951


------------------------
MULLIKEN OVERLAP CHARGES
------------------------
B(  0-C ,  1-F ) :   0.7611 B(  0-C ,  2-F ) :   0.7610 B(  0-C ,  3-F ) :   0.7610 
B(  0-C ,  4-F ) :   0.7610 B(  1-F ,  2-F ) :  -0.0976 B(  1-F ,  3-F ) :  -0.0976 
B(  1-F ,  4-F ) :  -0.0975 B(  2-F ,  3-F ) :  -0.0976 B(  2-F ,  4-F ) :  -0.0975 
B(  3-F ,  4-F ) :  -0.0975 


                     *******************************
                     * LOEWDIN POPULATION ANALYSIS *
                     *******************************

----------------------
LOEWDIN ATOMIC CHARGES
----------------------
   0 C :    0.051136
   1 F :   -0.012782
   2 F :   -0.012786
   3 F :   -0.012775
   4 F :   -0.012794

-------------------------------
LOEWDIN REDUCED ORBITAL CHARGES
-------------------------------
  0 C s       :     2.809606  s :     2.809606
      pz      :     0.874466  p :     2.623412
      px      :     0.874465
      py      :     0.874481
      dz2     :     0.108563  d :     0.515846
      dxz     :     0.091053
      dyz     :     0.108087
      dx2y2   :     0.125504
      dxy     :     0.082640

  1 F s       :     3.725022  s :     3.725022
      pz      :     1.590601  p :     5.273170
      px      :     1.823177
      py      :     1.859391
      dz2     :     0.005520  d :     0.014590
      dxz     :     0.004627
      dyz     :     0.003003
      dx2y2   :     0.000675
      dxy     :     0.000765

  2 F s       :     3.725021  s :     3.725021
      pz      :     1.697733  p :     5.273174
      px      :     1.846269
      py      :     1.729172
      dz2     :     0.002398  d :     0.014590
      dxz     :     0.002374
      dyz     :     0.006044
      dx2y2   :     0.001764
      dxy     :     0.002010

  3 F s       :     3.725023  s :     3.725023
      pz      :     1.860958  p :     5.273161
      px      :     1.852535
      py      :     1.559669
      dz2     :     0.002082  d :     0.014590
      dxz     :     0.000482
      dyz     :     0.003218
      dx2y2   :     0.005206
      dxy     :     0.003602

  4 F s       :     3.725030  s :     3.725030
      pz      :     1.881656  p :     5.273174
      px      :     1.508856
      py      :     1.882662
      dz2     :     0.002425  d :     0.014590
      dxz     :     0.002497
      dyz     :     0.000095
      dx2y2   :     0.007145
      dxy     :     0.002428


---------------------------------
LOEWDIN BOND ORDERS (THRESH 0.050000)
---------------------------------
B(  0-C ,  1-F ) :   1.4019 B(  0-C ,  2-F ) :   1.4019 B(  0-C ,  3-F ) :   1.4019 
B(  0-C ,  4-F ) :   1.4019 B(  1-F ,  2-F ) :   0.0757 B(  1-F ,  3-F ) :   0.0757 
B(  1-F ,  4-F ) :   0.0757 B(  2-F ,  3-F ) :   0.0757 B(  2-F ,  4-F ) :   0.0757 
B(  3-F ,  4-F ) :   0.0757 

------------------------------------------
LOEWDIN REDUCED ORBITAL POPULATIONS PER MO
-------------------------------------------
THRESHOLD FOR PRINTING IS 0.1%%
                      0         1         2         3         4         5   
                 -24.31671 -24.31662 -24.31662 -24.31660 -10.20954  -1.26026
                   2.00000   2.00000   2.00000   2.00000   2.00000   2.00000
                  --------  --------  --------  --------  --------  --------
 0 C  s               0.0       0.0       0.0       0.0      99.5      27.8
 1 F  s              16.9       0.1       0.2      82.7       0.0      15.7
 1 F  pz              0.0       0.0       0.0       0.0       0.1       1.8
 1 F  px              0.0       0.0       0.0       0.0       0.0       0.4
 1 F  py              0.0       0.0       0.0       0.0       0.0       0.1
 2 F  s              27.9      37.9      28.9       5.3       0.0      15.7
 2 F  pz              0.0       0.0       0.0       0.0       0.1       1.1
 2 F  px              0.0       0.0       0.0       0.0       0.0       0.2
 2 F  py              0.0       0.0       0.0       0.0       0.1       0.9
 3 F  s              25.8       2.5      63.9       7.7       0.0      15.7
 3 F  pz              0.0       0.0       0.0       0.0       0.0       0.1
 3 F  px              0.0       0.0       0.0       0.0       0.0       0.2
 3 F  py              0.0       0.0       0.0       0.0       0.1       1.9
 4 F  s              29.3      59.5       6.9       4.3       0.0      15.7
 4 F  px              0.0       0.0       0.0       0.0       0.1       2.2

                      6         7         8         9        10        11   
                  -1.14043  -1.14042  -1.14041  -0.64722  -0.57413  -0.57412
                   2.00000   2.00000   2.00000   2.00000   2.00000   2.00000
                  --------  --------  --------  --------  --------  --------
 0 C  s               0.0       0.0       0.0      13.2       0.0       0.0
 0 C  pz              0.1       0.3      19.4       0.0       0.8       6.5
 0 C  px             15.6       3.9       0.3       0.0      18.3       0.6
 0 C  py              4.1      15.5       0.1       0.0       0.1      12.1
 0 C  dz2             0.1       1.1       0.6       0.0       0.0       0.0
 0 C  dxz             0.0       0.0       1.0       0.0       0.0       0.0
 0 C  dyz             0.1       0.8       0.7       0.0       0.0       0.0
 0 C  dx2y2           2.2       0.0       0.2       0.0       0.0       0.0
 0 C  dxy             0.1       0.6       0.0       0.0       0.0       0.0
 1 F  s               1.9       4.6      49.9       5.9       2.5       0.5
 1 F  pz              0.1       0.2       0.9      12.2      14.0       0.1
 1 F  px              0.0       0.0       0.3       2.5       0.6       1.8
 1 F  py              0.1       0.0       0.1       1.0       2.0       7.5
 2 F  s               0.1      35.9      20.6       5.9       0.1       7.6
 2 F  pz              0.0       0.7       0.1       7.7       1.7      19.5
 2 F  px              0.1       0.1       0.1       1.5       5.7       4.8
 2 F  py              0.0       0.3       0.4       6.4       0.7      10.9
 2 F  dyz             0.0       0.0       0.0       0.1       0.0       0.1
 3 F  s              27.0      24.8       4.7       5.9       0.7       2.4
 3 F  pz              0.1       0.1       0.1       0.9       1.4       7.7
 3 F  px              0.0       0.2       0.0       1.3       3.9       3.5
 3 F  py              0.7       0.5       0.1      13.4       4.9       5.1
 4 F  s              46.3      10.0       0.1       5.9       7.5       0.3
 4 F  pz              0.0       0.0       0.1       0.1       1.2       2.3
 4 F  px              1.2       0.3       0.0      15.6      33.4       1.3
 4 F  py              0.0       0.1       0.0       0.0       0.0       5.1
 4 F  dx2y2           0.0       0.0       0.0       0.1       0.1       0.0

                     12        13        14        15        16        17   
                  -0.57412  -0.43587  -0.43586  -0.41558  -0.41557  -0.41557
                   2.00000   2.00000   2.00000   2.00000   2.00000   2.00000
                  --------  --------  --------  --------  --------  --------
 0 C  pz             11.9       0.0       0.0       0.3       0.1       4.4
 0 C  px              0.3       0.0       0.0       4.0       0.6       0.1
 0 C  py              7.0       0.0       0.0       0.5       4.0       0.2
 0 C  dz2             0.0       0.1       0.9       2.1       0.4       0.1
 0 C  dxz             0.0       0.3       1.7       0.3       0.0       1.3
 0 C  dyz             0.0       0.7       0.3       0.0       0.8       1.8
 0 C  dx2y2           0.0       0.0       0.1       1.2       1.9       0.7
 0 C  dxy             0.0       2.1       0.3       0.2       0.8       0.0
 1 F  s               5.1       0.0       0.0       0.1       0.0       0.1
 1 F  pz             16.2       1.5       3.9       0.7       0.3      19.3
 1 F  px              9.9       0.1      20.2      19.3       3.4       1.1
 1 F  py              0.0      22.6       0.1       2.3      20.8       1.2
 1 F  dxz             0.1       0.0       0.0       0.0       0.0       0.0
 2 F  s               0.3       0.0       0.0       0.0       0.0       0.1
 2 F  pz              0.9       5.1       7.2       1.7       0.7      19.5
 2 F  px              0.1      19.0       2.9      20.1       3.5       0.5
 2 F  py              8.0       0.1      14.2       2.2      19.7       0.5
 3 F  s               5.0       0.0       0.0       0.0       0.1       0.0
 3 F  pz              0.3       7.8      15.0       1.3       0.2      22.8
 3 F  px              2.7      16.2       6.0      20.9       2.6       0.7
 3 F  py             22.7       0.3       3.1       2.4      16.3       1.1
 4 F  s               0.3       0.0       0.0       0.1       0.0       0.0
 4 F  pz              4.3       3.1      21.0       1.4       0.4      22.9
 4 F  px              1.9       0.0       0.1      16.2       2.4       0.5
 4 F  py              2.6      21.1       3.0       2.7      21.0       1.0

                     18        19        20        21        22        23   
                  -0.36624  -0.36623  -0.36622   0.14642   0.15426   0.15428
                   2.00000   2.00000   2.00000   0.00000   0.00000   0.00000
                  --------  --------  --------  --------  --------  --------
 0 C  s               0.0       0.0       0.0      51.9       0.0       0.0
 0 C  pz              0.0       0.0       0.0       0.0      50.9       1.5
 0 C  px              0.0       0.0       0.0       0.0       1.7      46.3
 0 C  py              0.0       0.0       0.0       0.0       0.0       4.8
 0 C  dz2             0.0       0.0       0.0       0.0       1.3       2.3
 0 C  dxz             0.0       0.0       0.0       0.0       2.7       0.0
 0 C  dyz             0.0       0.0       0.0       0.0       2.3       0.4
 0 C  dx2y2           0.0       0.0       0.0       0.0       0.3       3.4
 0 C  dxy             0.0       0.0       0.0       0.0       0.0       0.3
 1 F  s               0.0       0.0       0.0       5.9       4.9       0.5
 1 F  pz              0.8       5.7       1.8       4.6       5.8       3.8
 1 F  px              1.7       5.0      24.9       1.0       3.0       2.5
 1 F  py              1.3      23.5      10.4       0.4       1.9       0.1
 1 F  dz2             0.0       0.0       0.0       0.1       0.2       0.5
 1 F  dxz             0.0       0.0       0.0       0.1       0.4       0.1
 1 F  dyz             0.0       0.0       0.0       0.0       0.2       0.0
 2 F  s               0.0       0.0       0.0       5.9       2.3       2.1
 2 F  pz              0.1      19.0       0.0       2.9       0.2       4.1
 2 F  px             29.6       2.5       1.7       0.6       2.5       1.4
 2 F  py              5.8      16.0       0.3       2.4       5.4       2.3
 2 F  dz2             0.0       0.0       0.0       0.0       0.1       0.1
 2 F  dyz             0.0       0.0       0.0       0.1       0.2       0.5
 2 F  dx2y2           0.0       0.0       0.0       0.0       0.1       0.1
 2 F  dxy             0.0       0.0       0.0       0.0       0.3       0.0
 3 F  s               0.0       0.0       0.0       5.9       0.2       0.0
 3 F  pz              3.5      20.2      11.6       0.3       4.5       0.1
 3 F  px             17.1       0.7      16.7       0.5       0.5       4.9
 3 F  py              3.1       2.0       0.1       5.1       1.0       0.8
 3 F  dz2             0.0       0.0       0.0       0.0       0.1       0.0
 3 F  dyz             0.0       0.0       0.0       0.0       0.3       0.0
 3 F  dx2y2           0.0       0.0       0.0       0.1       0.0       0.2
 3 F  dxy             0.0       0.0       0.0       0.0       0.1       0.4
 4 F  s               0.0       0.0       0.0       5.9       0.1       4.8
 4 F  pz              9.1       5.1      23.2       0.0       5.8       0.0
 4 F  px              0.0       0.0       0.2       6.0       0.1       9.7
 4 F  py             28.0       0.3       9.1       0.0       0.0       0.8
 4 F  dz2             0.0       0.0       0.0       0.0       0.0       0.2
 4 F  dxz             0.0       0.0       0.0       0.0       0.6       0.0
 4 F  dx2y2           0.0       0.0       0.0       0.1       0.0       0.7
 4 F  dxy             0.0       0.0       0.0       0.0       0.0       0.1

                     24        25        26        27        28        29   
                   0.15429   0.27879   0.39239   0.39240   0.39243   0.94493
                   0.00000   0.00000   0.00000   0.00000   0.00000   0.00000
                  --------  --------  --------  --------  --------  --------
 0 C  s               0.0      77.0       0.0       0.0       0.0       0.0
 0 C  pz              0.2       0.0      47.0      22.9      11.2       0.0
 0 C  px              4.6       0.0      20.7      57.9       2.4       0.0
 0 C  py             47.8       0.0      13.4       0.3      67.4       0.0
 0 C  dz2             0.8       0.0       0.0       0.0       0.0       0.0
 0 C  dxz             0.0       0.0       0.0       0.0       0.0       2.2
 0 C  dyz             1.7       0.0       0.0       0.0       0.0       2.0
 0 C  dx2y2           2.6       0.0       0.0       0.0       0.0       0.0
 0 C  dxy             1.4       0.0       0.0       0.0       0.0       2.0
 1 F  s               0.2       0.3       1.5       0.0       0.0       0.0
 1 F  pz              0.6       3.2       2.8       1.0       0.5       0.0
 1 F  px              1.2       0.7       1.1       2.4       0.1       5.6
 1 F  py              4.2       0.3       0.6       0.0       2.8      17.7
 1 F  dz2             0.0       0.6       0.5       0.0       0.0       0.0
 1 F  dxz             0.2       0.5       0.5       0.0       0.0       0.0
 1 F  dyz             0.3       0.2       0.2       0.0       0.0       0.1
 2 F  s               1.3       0.3       0.0       0.6       1.0       0.0
 2 F  pz              4.2       2.0       2.0       1.2       0.8       0.5
 2 F  px              2.4       0.4       0.9       2.5       0.1      20.7
 2 F  py              0.4       1.7       0.6       0.1       3.2       2.2
 2 F  dz2             0.2       0.1       0.0       0.0       0.0       0.0
 2 F  dxz             0.3       0.2       0.0       0.1       0.1       0.0
 2 F  dyz             0.0       0.8       0.0       0.2       0.5       0.0
 2 F  dxy             0.0       0.2       0.0       0.1       0.1       0.0
 3 F  s               5.4       0.3       0.3       0.3       1.0       0.0
 3 F  pz              1.5       0.2       2.0       1.0       0.5      17.9
 3 F  px              0.8       0.3       0.9       2.4       0.2       5.3
 3 F  py              8.7       3.5       0.7       0.2       3.5       0.2
 3 F  dz2             0.1       0.2       0.0       0.0       0.2       0.0
 3 F  dyz             0.3       0.2       0.1       0.0       0.1       0.1
 3 F  dx2y2           0.4       0.6       0.1       0.1       0.4       0.0
 3 F  dxy             0.2       0.3       0.0       0.1       0.2       0.0
 4 F  s               0.6       0.3       0.3       1.2       0.1       0.0
 4 F  pz              0.0       0.0       1.9       1.0       0.5      13.5
 4 F  px              1.4       4.1       1.1       3.3       0.1       0.0
 4 F  py              5.0       0.0       0.6       0.0       2.8       9.8
 4 F  dz2             0.1       0.3       0.1       0.2       0.0       0.0
 4 F  dx2y2           0.1       1.0       0.2       0.8       0.0       0.0
 4 F  dxy             0.5       0.0       0.0       0.0       0.0       0.0

                     30        31        32        33        34        35   
                   0.94494   1.00707   1.00708   1.00708   1.02871   1.23681
                   0.00000   0.00000   0.00000   0.00000   0.00000   0.00000
                  --------  --------  --------  --------  --------  --------
 0 C  s               0.0       0.0       0.0       0.0       8.3       0.0
 0 C  pz              0.0       0.0       0.9       0.9       0.0       0.0
 0 C  px              0.0       1.8       0.0       0.0       0.0       0.0
 0 C  py              0.0       0.0       0.9       0.9       0.0       0.0
 0 C  dz2             1.9       1.0       1.1       0.0       0.0       0.0
 0 C  dxz             1.5       0.1       0.6       0.6       0.0       0.0
 0 C  dyz             0.0       0.0       0.0       2.1       0.0       0.0
 0 C  dx2y2           0.3       1.9       1.0       0.0       0.0       0.0
 0 C  dxy             2.5       0.1       0.4       0.4       0.0       0.0
 1 F  s               0.0       2.3       8.8       3.3       0.7       0.0
 1 F  pz              5.2      10.5      20.5       4.6      16.4       0.8
 1 F  px             14.0       1.0       8.7       2.2       3.4       2.4
 1 F  py              4.1       0.4       0.1       7.7       1.3       0.5
 1 F  dz2             0.0       0.0       0.3       0.2       0.5       0.0
 1 F  dxz             0.0       0.1       0.2       0.1       0.4       0.0
 1 F  dyz             0.0       0.0       0.1       0.0       0.2       0.0
 2 F  s               0.0       2.3       0.1      12.1       0.7       0.0
 2 F  pz             11.4       6.0       1.6      17.1      10.4       0.0
 2 F  px              0.4       1.7       0.0       7.9       2.1      29.3
 2 F  py             11.6       4.2       4.3      13.0       8.6       6.8
 2 F  dxz             0.0       0.1       0.0       0.1       0.2       0.1
 2 F  dyz             0.0       0.1       0.0       0.6       0.7       0.0
 2 F  dx2y2           0.0       0.0       0.0       0.1       0.1       0.2
 2 F  dxy             0.0       0.1       0.0       0.1       0.1       0.0
 3 F  s               0.0       0.5      10.1       3.8       0.7       0.0
 3 F  pz              4.1       0.1       0.1       7.8       1.2       5.2
 3 F  px             16.1       3.6       4.1       1.2       1.7      14.9
 3 F  py              3.1       3.5      28.5       6.8      18.1       3.2
 3 F  dz2             0.0       0.0       0.1       0.1       0.2       0.0
 3 F  dyz             0.0       0.0       0.2       0.0       0.2       0.0
 3 F  dx2y2           0.1       0.0       0.3       0.2       0.5       0.1
 3 F  dxy             0.0       0.1       0.1       0.1       0.2       0.1
 4 F  s               0.0      14.1       0.2       0.1       0.7       0.0
 4 F  pz              9.7       0.2       2.7       3.0       0.1      10.3
 4 F  px              0.1      42.8       1.0       0.2      21.0       0.0
 4 F  py             13.5       0.3       2.7       2.8       0.0      25.7
 4 F  dz2             0.0       0.2       0.0       0.0       0.3       0.0
 4 F  dx2y2           0.0       0.8       0.0       0.0       0.8       0.0
 4 F  dxy             0.0       0.0       0.0       0.0       0.0       0.2

                     36        37        38        39        40        41   
                   1.23684   1.23685   1.35967   1.35969   1.35973   1.46202
                   0.00000   0.00000   0.00000   0.00000   0.00000   0.00000
                  --------  --------  --------  --------  --------  --------
 0 C  pz              0.0       0.0       0.3       3.5       2.4       0.0
 0 C  px              0.0       0.0       5.9       0.2       0.1       0.0
 0 C  py              0.0       0.0       0.0       2.4       3.7       0.0
 0 C  dz2             0.0       0.0       1.7       0.1       1.6      10.6
 0 C  dxz             0.0       0.0       0.4       0.9       0.7       0.0
 0 C  dyz             0.0       0.0       0.1       3.2       0.0       7.3
 0 C  dx2y2           0.0       0.0       2.7       0.2       1.8       1.8
 0 C  dxy             0.0       0.0       0.0       0.5       0.8      52.3
 1 F  s               0.0       0.0       0.6       0.3       0.8       0.0
 1 F  pz              7.1       0.4       0.2       9.6       4.6       0.3
 1 F  px             24.1       4.7      18.9       1.4       0.8       0.2
 1 F  py              2.3      32.0       0.2       9.9      12.1       1.8
 1 F  dz2             0.1       0.0       0.0       1.7       0.9       1.7
 1 F  dxz             0.1       0.0       1.9       0.1       0.2       0.1
 1 F  dyz             0.0       0.2       0.0       0.1       1.5       2.4
 1 F  dx2y2           0.1       0.1       0.3       0.0       0.1       0.0
 1 F  dxy             0.0       0.0       0.1       0.1       0.2       0.5
 2 F  s               0.0       0.0       0.0       1.7       0.0       0.0
 2 F  pz             11.0       7.9       1.4       7.2       8.9       0.9
 2 F  px              3.9       0.2      21.2       0.3       0.3       1.1
 2 F  py              7.1       8.1       0.1       4.6      13.6       0.3
 2 F  dz2             0.2       0.1       0.2       0.3       1.0       3.1
 2 F  dxz             0.0       0.0       0.7       0.5       0.1       0.5
 2 F  dyz             0.0       0.0       0.0       2.5       0.0       0.1
 2 F  dx2y2           0.0       0.0       0.2       0.3       0.5       0.0
 2 F  dxy             0.0       0.0       0.6       0.3       0.1       1.0
 3 F  s               0.0       0.0       0.1       0.2       1.4       0.0
 3 F  pz              1.4      28.4       1.3      13.8       7.1       0.1
 3 F  px             11.0       8.2      20.7       1.2       0.0       2.1
 3 F  py              1.8       0.3       0.0       6.6       6.8       0.1
 3 F  dz2             0.0       0.1       0.1       0.5       0.3       0.2
 3 F  dxz             0.0       0.0       0.1       0.1       0.1       0.2
 3 F  dyz             0.0       0.2       0.0       0.4       1.3       0.3
 3 F  dx2y2           0.1       0.0       0.0       0.9       1.4       1.3
 3 F  dxy             0.1       0.0       1.5       0.0       0.4       2.7
 4 F  s               0.0       0.0       1.6       0.1       0.1       0.0
 4 F  pz             23.1       3.6       1.3      12.8       8.7       0.0
 4 F  px              0.2       0.0      11.5       0.4       0.1       0.0
 4 F  py              6.1       5.3       0.0       9.0      13.8       2.3
 4 F  dz2             0.0       0.0       1.0       0.0       0.0       0.0
 4 F  dxz             0.2       0.0       0.0       1.0       0.7       0.0
 4 F  dx2y2           0.0       0.0       2.8       0.1       0.0       0.1
 4 F  dxy             0.1       0.0       0.0       0.6       1.0       4.5

                     42        43        44        45        46        47   
                   1.46202   1.65324   1.65330   1.65334   1.78746   1.87101
                   0.00000   0.00000   0.00000   0.00000   0.00000   0.00000
                  --------  --------  --------  --------  --------  --------
 0 C  s               0.0       0.0       0.0       0.0      10.9       0.0
 0 C  pz              0.0       2.7       0.0       0.7       0.0       0.0
 0 C  px              0.0       0.4       1.6       1.4       0.0       3.7
 0 C  py              0.0       0.3       1.8       1.3       0.0       0.0
 0 C  dz2            12.0       0.0       0.0       0.0       0.0      14.5
 0 C  dxz            42.7       0.0       0.0       0.0       0.0       1.0
 0 C  dyz            15.9       0.0       0.0       0.0       0.0       0.1
 0 C  dx2y2           1.4       0.0       0.0       0.0       0.0      47.8
 1 F  s               0.0      38.9      10.4       5.1      20.3       0.3
 1 F  pz              0.2       1.9       2.5       0.1       0.2       0.7
 1 F  px              1.8       0.5       0.3       2.7       0.0       1.4
 1 F  py              0.4       1.9       0.8       0.7       0.0       0.0
 1 F  dz2             0.8       1.5       0.9       0.0       0.8       0.1
 1 F  dxz             1.7       1.1       0.2       1.1       0.6       2.2
 1 F  dyz             0.7       0.8       0.2       0.0       0.3       0.1
 1 F  dx2y2           1.4       0.0       0.1       0.0       0.0       0.0
 1 F  dxy             0.0       0.6       0.2       0.0       0.1       0.1
 2 F  s               0.0      27.4      26.2       0.8      20.3       0.2
 2 F  pz              0.3       0.2       3.6       0.2       0.1       0.3
 2 F  px              1.0       2.3       0.2       1.0       0.0       1.1
 2 F  py              1.1       1.6       0.2       2.1       0.1       0.2
 2 F  dz2             0.7       0.1       0.3       0.1       0.1       0.0
 2 F  dxz             1.1       0.4       0.5       0.3       0.3       1.1
 2 F  dyz             0.2       1.0       2.1       0.4       1.1       0.2
 2 F  dx2y2           2.4       0.3       0.1       0.0       0.1       0.0
 2 F  dxy             0.2       1.2       0.0       0.0       0.2       1.1
 3 F  s               0.0       1.4      11.8      41.2      20.3       0.4
 3 F  pz              2.1       3.1       0.2       0.0       0.0       0.1
 3 F  px              0.1       0.2       3.2       0.0       0.0       1.2
 3 F  py              0.2       0.0       0.2       4.4       0.2       1.0
 3 F  dz2             0.7       0.0       0.0       1.2       0.3       0.1
 3 F  dxz             0.2       0.5       0.1       0.0       0.0       0.1
 3 F  dyz             3.3       0.2       0.1       0.6       0.3       0.0
 3 F  dx2y2           0.5       0.0       0.5       1.9       0.8       0.0
 3 F  dxy             0.0       0.0       1.1       0.5       0.4       2.3
 4 F  s               0.0       4.8      24.1      25.4      20.3       2.7
 4 F  pz              2.3       2.9       0.0       0.4       0.0       0.0
 4 F  px              0.0       0.3       2.0       2.5       0.2      12.4
 4 F  py              0.0       0.3       2.0       1.1       0.0       0.0
 4 F  dz2             0.0       0.0       0.2       1.4       0.4       0.8
 4 F  dxz             4.6       0.3       0.0       0.0       0.0       0.0
 4 F  dyz             0.0       0.3       0.1       0.0       0.0       0.0
 4 F  dx2y2           0.0       0.5       2.1       1.4       1.3       2.4
 4 F  dxy             0.0       0.0       0.3       0.1       0.0       0.0

                     48        49        50        51        52        53   
                   1.87107   1.87109   2.87654   2.87655   2.87656   2.91028
                   0.00000   0.00000   0.00000   0.00000   0.00000   0.00000
                  --------  --------  --------  --------  --------  --------
 0 C  pz              0.2       3.6       0.0       0.0       0.0       0.0
 0 C  py              3.5       0.2       0.0       0.0       0.0       0.0
 0 C  dz2            24.7       4.3       0.0       0.0       0.0       0.0
 0 C  dxz             1.5      23.4       0.0       0.0       0.0       0.0
 0 C  dyz            12.0      31.0       0.0       0.0       0.0       0.0
 0 C  dx2y2           8.6       4.3       0.0       0.0       0.0       0.0
 0 C  dxy            16.7       0.6       0.0       0.0       0.0       0.0
 1 F  s               0.6       1.8       0.0       0.0       0.0       0.0
 1 F  pz              1.6       7.6       0.0       0.0       0.0       0.0
 1 F  px              0.3       0.8       0.2       0.0       0.0       0.0
 1 F  py              1.2       0.2       0.0       0.0       0.2       0.0
 1 F  dz2             0.1       2.0      14.5       0.1       1.0       0.0
 1 F  dxz             0.0       0.5      16.3       0.1       5.3       0.5
 1 F  dyz             1.0       0.2       0.8       0.5      15.7       4.0
 1 F  dx2y2           0.0       0.1       0.0       0.0       1.1       7.2
 1 F  dxy             1.5       0.2       5.7       0.7      12.9      13.4
 2 F  s               0.7       1.8       0.0       0.0       0.0       0.0
 2 F  pz              0.7       5.5       0.0       0.0       0.1       0.0
 2 F  px              0.3       0.5       0.1       0.1       0.0       0.0
 2 F  py              2.8       2.5       0.0       0.0       0.1       0.0
 2 F  dz2             0.3       0.6       5.8       0.9      11.5       0.7
 2 F  dxz             0.2       0.6       0.4      15.4       4.1       9.8
 2 F  dyz             0.9       1.7       1.6       7.1       0.2       0.1
 2 F  dx2y2           0.3       0.0       0.2       2.3       2.4       0.1
 2 F  dxy             1.0       0.0      12.1       4.9       5.6      14.4
 3 F  s               2.4       0.0       0.0       0.0       0.0       0.0
 3 F  pz              0.6       0.6       0.0       0.0       0.2       0.0
 3 F  px              0.4       0.0       0.0       0.1       0.0       0.0
 3 F  py              9.8       0.0       0.0       0.0       0.0       0.0
 3 F  dz2             0.9       0.2       0.5       4.9       2.8      14.9
 3 F  dxz             0.0       1.4       0.2       4.5       9.9       2.2
 3 F  dyz             0.6       0.7       0.4       0.1      17.7       2.0
 3 F  dx2y2           1.6       0.0       0.8       4.1       0.1       3.4
 3 F  dxy             0.1       0.1       5.6      17.2       5.7       2.4
 4 F  pz              0.0       0.6       0.2       0.0       0.0       0.0
 4 F  py              0.6       0.0       0.0       0.2       0.0       0.0
 4 F  dz2             0.5       0.2       4.5       0.8       0.5      18.0
 4 F  dxz             0.0       1.4      26.0       2.4       1.4       0.0
 4 F  dyz             0.1       0.6       2.3       2.6       0.0       0.5
 4 F  dx2y2           0.0       0.0       0.2       0.1       0.0       5.6
 4 F  dxy             1.7       0.1       1.6      30.7       1.4       0.7

                     54        55        56        57        58        59   
                   2.91033   2.91861   2.91863   2.91864   2.92785   2.92787
                   0.00000   0.00000   0.00000   0.00000   0.00000   0.00000
                  --------  --------  --------  --------  --------  --------
 0 C  dz2             0.0       0.0       0.0       0.0       0.1       0.1
 1 F  s               0.0       0.0       0.0       0.0       0.0       0.3
 1 F  pz              0.0       0.0       0.0       0.0       0.0       0.3
 1 F  py              0.0       0.0       0.0       0.1       0.0       0.0
 1 F  dz2             0.8       2.3       1.7       1.1       2.3       0.0
 1 F  dxz             6.1       0.0       0.3       1.6       0.0       0.0
 1 F  dyz             0.1       5.6       4.9       4.2       7.6       0.5
 1 F  dx2y2           9.3      17.1       0.9      18.0      16.7       4.2
 1 F  dxy             8.4       3.2       4.8       9.1       6.3       0.0
 2 F  s               0.0       0.0       0.0       0.0       0.2       0.1
 2 F  pz              0.0       0.1       0.0       0.0       0.1       0.1
 2 F  px              0.0       0.0       0.1       0.0       0.1       0.0
 2 F  dz2             2.6       6.9       8.4       1.4       6.8       7.3
 2 F  dxz             2.9       7.2       1.1       3.8       1.3       9.9
 2 F  dyz             8.5       0.0       5.1       0.7       2.6       0.1
 2 F  dx2y2           9.7       2.0      18.5       9.0       7.3       1.6
 2 F  dxy             1.3       6.2       0.8       3.4       2.4       8.7
 3 F  pz              0.0       0.0       0.0       0.1       0.0       0.0
 3 F  dz2             1.3       8.3       9.6       4.9      19.5       2.2
 3 F  dxz            20.8       0.9       0.1      21.4       0.2      19.5
 3 F  dyz             0.1       3.5       0.8       9.0       3.4       6.3
 3 F  dx2y2           0.0       8.6       6.6       0.0      13.2       0.3
 3 F  dxy             2.9       0.2       0.0       0.7       0.0       0.8
 4 F  s               0.0       0.0       0.0       0.0       0.3       0.0
 4 F  px              0.0       0.0       0.0       0.0       0.3       0.0
 4 F  py              0.0       0.1       0.1       0.0       0.0       0.0
 4 F  dz2             0.5      16.0       2.2       4.4       2.5      15.8
 4 F  dxz             0.1       3.2       1.6       2.0       0.0       4.5
 4 F  dyz            23.7       0.4      29.3       2.9       5.3       9.8
 4 F  dx2y2           0.2       6.8       0.7       2.0       0.4       6.7
 4 F  dxy             0.4       1.2       2.1       0.1       0.4       0.2

                     60        61        62        63        64        65   
                   2.92790   3.22615   3.22617   3.22622   3.52358   3.53801
                   0.00000   0.00000   0.00000   0.00000   0.00000   0.00000
                  --------  --------  --------  --------  --------  --------
 0 C  s               0.0       0.0       0.0       0.0      11.5       0.0
 0 C  pz              0.0       3.2       0.0       0.1       0.0       0.0
 0 C  px              0.0       0.1       0.2       3.0       0.0       0.0
 0 C  py              0.1       0.0       3.1       0.2       0.0       0.0
 0 C  dz2             0.0       0.8       1.2       0.3       0.0       3.6
 0 C  dxz             0.0       1.4       0.0       0.0       0.0      10.9
 0 C  dyz             0.1       1.1       1.3       0.0       0.0       3.5
 0 C  dx2y2           0.1       0.2       0.1       3.1       0.0       0.4
 0 C  dxy             0.0       0.0       0.9       0.0       0.0       0.0
 1 F  s               0.0       1.6       0.1       0.0       1.2       0.0
 1 F  pz              0.0       0.1       0.1       0.1       0.4       0.0
 1 F  px              0.0       0.1       0.0       0.3       0.1       0.1
 1 F  py              0.0       0.1       0.3       0.1       0.0       0.0
 1 F  dz2             1.6       0.9       7.8       8.6       9.0       4.2
 1 F  dxz             2.6       5.8       0.6      13.2       7.6       7.3
 1 F  dyz             5.0       2.6       7.7       5.5       3.0       2.1
 1 F  dx2y2          13.9       0.0       0.8       0.6       0.1       6.4
 1 F  dxy            13.4       2.2      10.3       0.1       0.6       0.2
 2 F  s               0.1       0.6       1.0       0.1       1.2       0.0
 2 F  pz              0.0       0.0       0.3       0.0       0.3       0.0
 2 F  px              0.0       0.1       0.0       0.3       0.1       0.1
 2 F  py              0.1       0.2       0.0       0.1       0.2       0.1
 2 F  dz2             0.4       6.7       9.6       0.1       1.2       4.2
 2 F  dxz             1.6       0.2       5.1      10.5       2.9       3.9
 2 F  dyz             4.2       0.9       2.3       8.7      12.3       0.7
 2 F  dx2y2          18.6       1.9       0.4       3.7       1.5      10.6
 2 F  dxy             0.9      12.2       0.4       4.3       2.4       0.7
 3 F  s               0.3       0.1       1.1       0.5       1.2       0.0
 3 F  pz              0.0       0.4       0.1       0.0       0.0       0.1
 3 F  px              0.0       0.0       0.2       0.2       0.0       0.0
 3 F  py              0.3       0.0       0.1       0.2       0.5       0.0
 3 F  dz2             1.5       3.8       0.1       3.4       3.5       2.5
 3 F  dxz             4.9       5.4       3.0       0.8       0.3       0.7
 3 F  dyz             1.4      12.7       3.1       1.3       3.1      13.4
 3 F  dx2y2           0.2       0.7       0.1       8.7       9.3       3.2
 3 F  dxy             0.4       4.9      10.3       8.6       4.3       0.5
 4 F  s               0.1       0.0       0.1       1.6       1.2       0.0
 4 F  pz              0.0       0.5       0.0       0.0       0.0       0.1
 4 F  px              0.1       0.0       0.0       0.3       0.6       0.0
 4 F  py              0.0       0.0       0.4       0.0       0.0       0.0
 4 F  dz2             5.6       1.6       0.3       3.6       5.0       0.0
 4 F  dxz             0.2      24.5       0.2       0.0       0.2      19.7
 4 F  dyz            18.6       1.7       0.6       0.0       0.0       0.1
 4 F  dx2y2           2.4       0.3       0.6       6.5      15.1       0.3
 4 F  dxy             1.2       0.1      26.0       1.0       0.1       0.1

                     66        67        68        69   
                   3.53803   3.75323   3.75324   3.75325
                   0.00000   0.00000   0.00000   0.00000
                  --------  --------  --------  --------
 0 C  pz              0.0       0.0       0.9       3.3
 0 C  px              0.0       4.0       0.1       0.1
 0 C  py              0.0       0.1       3.2       0.8
 0 C  dz2             2.2       4.8       0.5       2.8
 0 C  dxz             0.1       0.4       1.0       3.4
 0 C  dyz             2.4       0.0       7.1       0.8
 0 C  dx2y2           0.4       6.2       0.9       4.2
 0 C  dxy            13.4       0.4       2.2       0.6
 1 F  s               0.0       0.7       0.2       2.0
 1 F  pz              0.0       0.3       0.2       1.7
 1 F  px              0.0       0.5       0.0       0.1
 1 F  py              0.1       0.1       0.1       0.2
 1 F  dz2             6.3       1.3       3.3      19.1
 1 F  dxz             0.1      10.6       2.0       7.8
 1 F  dyz            11.8       1.1       0.5       7.8
 1 F  dx2y2           0.4       0.3       0.3       0.0
 1 F  dxy             1.6       1.3       0.6       1.0
 2 F  s               0.0       0.4       2.0       0.4
 2 F  pz              0.1       0.1       0.9       0.5
 2 F  px              0.1       0.4       0.1       0.0
 2 F  py              0.0       0.1       1.1       0.0
 2 F  dz2            12.3       0.0       1.1       4.1
 2 F  dxz             3.0       4.0       2.3       2.8
 2 F  dyz             0.3       1.9      25.1       3.3
 2 F  dx2y2           0.2       0.1       4.4       0.0
 2 F  dxy             4.4       4.7       3.2       0.1
 3 F  s               0.0       0.0       1.5       1.3
 3 F  pz              0.0       0.0       0.0       0.4
 3 F  px              0.1       0.3       0.1       0.1
 3 F  py              0.0       0.0       1.5       0.9
 3 F  dz2             1.2       0.0       7.2       1.8
 3 F  dxz             0.6       0.2       0.0       1.6
 3 F  dyz             2.1       0.0       1.0       8.8
 3 F  dx2y2           5.1       0.1      14.5       8.5
 3 F  dxy            11.2       4.2       5.7       3.5
 4 F  s               0.0       2.7       0.1       0.1
 4 F  pz              0.0       0.0       0.0       0.2
 4 F  px              0.0       2.6       0.1       0.1
 4 F  py              0.1       0.0       0.2       0.1
 4 F  dz2             0.2      12.0       0.2       0.0
 4 F  dxz             0.1       0.3       0.7       3.3
 4 F  dyz             0.5       0.0       0.1       0.1
 4 F  dx2y2           0.3      33.9       0.7       1.6
 4 F  dxy            19.1       0.0       3.2       0.9


                      *****************************
                      * MAYER POPULATION ANALYSIS *
                      *****************************

  NA   - Mulliken gross atomic population
  ZA   - Total nuclear charge
  QA   - Mulliken gross atomic charge
  VA   - Mayer's total valence
  BVA  - Mayer's bonded valence
  FA   - Mayer's free valence

  ATOM       NA         ZA         QA         VA         BVA        FA
  0 C      5.5760     6.0000     0.4240     4.8132     4.8132    -0.0000
  1 F      9.1060     9.0000    -0.1060     1.2494     1.2494    -0.0000
  2 F      9.1060     9.0000    -0.1060     1.2493     1.2493    -0.0000
  3 F      9.1060     9.0000    -0.1060     1.2493     1.2493    -0.0000
  4 F      9.1060     9.0000    -0.1060     1.2493     1.2493     0.0000

  Mayer bond orders larger than 0.100000
B(  0-C ,  1-F ) :   1.2034 B(  0-C ,  2-F ) :   1.2033 B(  0-C ,  3-F ) :   1.2033 
B(  0-C ,  4-F ) :   1.2033 

-------
TIMINGS
-------

Total SCF time: 0 days 0 hours 0 min 2 sec 

Total time                  ....       2.031 sec
Sum of individual times     ....       1.793 sec  ( 88.3%)

SCF preparation             ....       0.140 sec  (  6.9%)
Fock matrix formation       ....       1.275 sec  ( 62.8%)
  Startup                   ....       0.040 sec  (  3.1% of F)
  Split-RI-J                ....       0.215 sec  ( 16.8% of F)
  XC integration            ....       0.696 sec  ( 54.6% of F)
    XC Preparation          ....       0.000 sec  (  0.0% of XC)
    Basis function eval.    ....       0.172 sec  ( 24.7% of XC)
    Density eval.           ....       0.058 sec  (  8.3% of XC)
    XC-Functional eval.     ....       0.074 sec  ( 10.7% of XC)
    XC-Potential eval.      ....       0.104 sec  ( 14.9% of XC)
Diagonalization             ....       0.000 sec  (  0.0%)
Density matrix formation    ....       0.097 sec  (  4.8%)
Total Energy calculation    ....       0.019 sec  (  0.9%)
Population analysis         ....       0.036 sec  (  1.8%)
Orbital Transformation      ....       0.033 sec  (  1.6%)
Orbital Orthonormalization  ....       0.000 sec  (  0.0%)
DIIS solution               ....       0.141 sec  (  6.9%)
  MO trafo                  ....       0.000 sec  (  0.0 % of DIIS)
  Orb grad                  ....       0.000 sec  (  0.0 % of DIIS)
  Energy W gradient         ....       0.000 sec  (  0.0 % of DIIS)
  DIIS error                ....       0.001 sec  (  0.4 % of DIIS)
  DIIS work                 ....       0.113 sec  ( 80.6 % of DIIS)
  Form Q                    ....       0.000 sec  (  0.0 % of DIIS)
  Form QpQm                 ....       0.000 sec  (  0.0 % of DIIS)
  Exp/Cayley                ....       0.000 sec  (  0.0 % of DIIS)
  Orb update                ....       0.000 sec  (  0.0 % of DIIS)
  Wake-sleep                ....       0.010 sec  (  7.2 % of DIIS)
SOSCF solution              ....       0.052 sec  (  2.6%)
  MO trafo                  ....       0.031 sec  ( 59.4 % of SOSCF)
  Orb grad                  ....       0.001 sec  (  2.3 % of SOSCF)
  Rot update                ....       0.009 sec  ( 18.2 % of SOSCF)
  Step                      ....       0.010 sec  ( 20.1 % of SOSCF)
Finished LeanSCF after   2.1 sec

Maximum memory used throughout the entire LEANSCF-calculation: 6.5 MB


-------------------------------------------------------------------------------
                          DFT DISPERSION CORRECTION                            
                                                                               
                                DFTD4 V3.4.0                                   
-------------------------------------------------------------------------------
The PBE functional is recognized
Active option DFTDOPT                   ...         5   

-------------------------   ----------------
Dispersion correction           -0.002184293
-------------------------   ----------------

------------------   -----------------
gCP correction             0.043839015
------------------   -----------------

-------------------------   --------------------
FINAL SINGLE POINT ENERGY      -436.703689244844
-------------------------   --------------------


------------------------------------------------------------------------------
                              ORCA PROPERTY CALCULATIONS
------------------------------------------------------------------------------

GBWName                                 ... sp.gbw
Number of atoms                         ...      5
Number of basis functions               ...     70
Max core memory                         ...   1024 MB

Electric properties:
Dipole moment                           ... YES
Quadrupole moment                       ...  NO
Static polarizability (Dipole/Dipole)   ...  NO
Static polarizability (Dipole/Quad.)    ...  NO
Static polarizability (Quad./Quad.)     ...  NO
Static polarizability (Velocity)        ...  NO

Atomic electric properties:
Dipole moment                           ...  NO
Quadrupole moment                       ...  NO
Static polarizability                   ...  NO

Choice of electric origin               ... Center of mass
Position of electric origin             ...    -0.000000     0.000000    -0.000000

General magnetic properties:
Magnetizability                         ...  NO

EPR properties:
g-Tensor (aka g-matrix)                 ...  NO
Zero-Field splitting spin-orbit         ...  NO
Zero-field splitting spin-spin          ...  NO
Hyperfine couplings                     ...  NO (   0 nuclei)
Quadrupole couplings                    ...  NO (   0 nuclei)
Contact density                         ...  NO (   0 nuclei)

NMR properties:
Chemical shifts                         ...  NO (   0 nuclei)
Spin-rotation constants                 ...  NO (   0 nuclei)
Spin-spin couplings                     ...  NO (   0 nuclei,    0 pairs)

Choice of magnetic origin               ... GIAO
Position of magnetic origin             ...     0.000000     0.000000     0.000000

Properties with geometric perturbations:
SCF Hessian                             ...  NO
IR spectrum                             ...  NO
VCD spectrum                            ...  NO
X-ray spectroscopy properties:
SCF XES/XAS/RIXS spectra                ...  NO


-------------
DIPOLE MOMENT
-------------

Method             : SCF
Type of density    : Electron Density
Multiplicity       :   1
Irrep              :   0
Energy             :  -436.7453439673091680 Eh
Relativity type    : 
Basis              : AO
                                X                 Y                 Z
Electronic contribution:     -0.000018314       0.000059289      -0.000013974
Nuclear contribution   :     -0.000016356       0.000008178      -0.000006113
                        -----------------------------------------
Total Dipole Moment    :     -0.000034670       0.000067467      -0.000020087
                        -----------------------------------------
Magnitude (a.u.)       :      0.000078469
Magnitude (Debye)      :      0.000199452



--------------------
Rotational spectrum 
--------------------
 
Rotational constants in cm-1:             0.192786             0.192779             0.192772 
Rotational constants in MHz :          5779.565564          5779.380095          5779.152630 

Dipole components along the rotational axes: 
x,y,z [a.u.] :    -0.000035     0.000067    -0.000020 
x,y,z [Debye]:    -0.000088     0.000171    -0.000051 

 

Dipole moment calculation done in   0.0 sec 

Maximum memory used throughout the entire PROP-calculation: 4.6 MB

--------------------------------
SUGGESTED CITATIONS FOR THIS RUN
--------------------------------

Below you find a list of papers that are relevant to this ORCA run
We neither can nor want to force you to cite these papers, but we appreciate if you do
You receive ORCA, which is the product of decades of hard work by many enthusiastic individuals, for free
The only thing we kindly ask in return is that you cite our papers,
We deeply appreciate it, if you show your appreciation for ORCA by not just citing the generic ORCA reference.

Please note that relegating all ORCA citations to the supporting information does *not* help us.
SI sections are not indexed - citations you put there will not count into any citation statistics
But we need these citations in order to attract the funding resources that allow us to do what we are doing

Therefore, if you are a happy ORCA user, please consider citing a few of the papers listed below in the main body of your paper

In addition to the list printed below, the program has created the file sp.bibtex that contains the list in bibtex format
You can import this file easily into all common literature databanks and citation aid programs


List of essential papers. We consider these as the minimum necessary citations

  1. Neese,F.
     Software update: the ORCA program system, version 5.0
     WIRES Comput. Molec. Sci., 2022 12(1)e1606
     doi.org/10.1002/wcms.1606

List of papers to cite with high priority. The work reported in these papers was absolutely
necessary for this run to complete.
Our perspective: the developers of density functionals and basis sets usually get cited in chemistry papers
Good! But without the algorithms to do something with them, the functionals or basis sets would not do anything.
Hence, in our opinion, the algorithm design and method developments papers are equally worthy of getting cited

  1. Neese,F.
     An improvement of the resolution of the identity approximation for the formation of the Coulomb matrix
     J. Comp. Chem., 2003 24(14)1740-1747
     doi.org/10.1002/jcc.10318
  2. Neese,F.
     The SHARK Integral Generation and Digestion System
     J. Comp. Chem., 2022  1-16
     doi.org/10.1002/jcc.26942
  3. Caldeweyher,E.; Bannwarth,C.; Grimme,S.
     Extension of the D3 dispersion coefficient model
     J. Chem. Phys., 2017 147 034112-XXXX
     doi.org/10.1063/1.4993215
  4. Caldeweyher,E.; Ehlert,S.; Hansen,A.; Neugebauer,H.; Spicher,S.; Bannwarth,C.; Grimme,S.
     A generally applicable atomic-charge dependent London dispersion correction
     J. Chem. Phys., 2019 150 154122-XXXX
     doi.org/10.1063/1.5090222
  5. Caldeweyher,E.; Mewes,J.; Ehlert,S.; Grimme,S.
     Extension and evaluation of the D4 London-dispersion model for periodic systems
     Phys. Chem. Chem. Phys., 2020 22(16)8499-8512
     doi.org/10.1039/D0CP00502A

List of suggested additional citations. These are papers that are important in the 'surrounding' of 
of this run, or papers that preceded the highly important papers. If you like your results we are grateful for a citation.

  1. Neese,F.
     The ORCA program system
     WIRES Comput. Molec. Sci., 2012 2(1)73-78
     doi.org/10.1002/wcms.81
  2. Neese,F.
     Software update: the ORCA program system, version 4.0
     WIRES Comput. Molec. Sci., 2018 8(1)1-6
     doi.org/10.1002/wcms.1327
  3. Neese,F.; Wennmohs,F.; Becker,U.; Riplinger,C.
     The ORCA quantum chemistry program package
     J. Chem. Phys., 2020 152 Art. No. L224108
     doi.org/10.1063/5.0004608

List of optional additional citations

  1. Neese,F.
     Approximate second-order SCF convergence for spin unrestricted wavefunctions
     Chem. Phys. Lett., 2000 325(1-3)93-98
     doi.org/10.1016/s0009-2614(00)00662-x

Timings for individual modules:

Sum of individual times          ...        2.756 sec (=   0.046 min)
Startup calculation              ...        0.290 sec (=   0.005 min)  10.5 %
SCF iterations                   ...        2.378 sec (=   0.040 min)  86.3 %
Property calculations            ...        0.089 sec (=   0.001 min)   3.2 %
                             ****ORCA TERMINATED NORMALLY****
TOTAL RUN TIME: 0 days 0 hours 0 minutes 3 seconds 329 msec
