
                                 *****************
                                 * O   R   C   A *
                                 *****************

                                            #,                                       
                                            ###                                      
                                            ####                                     
                                            #####                                    
                                            ######                                   
                                           ########,                                 
                                     ,,################,,,,,                         
                               ,,#################################,,                 
                          ,,##########################################,,             
                       ,#########################################, ''#####,          
                    ,#############################################,,   '####,        
                  ,##################################################,,,,####,       
                ,###########''''           ''''###############################       
              ,#####''   ,,,,##########,,,,          '''####'''          '####       
            ,##' ,,,,###########################,,,                        '##       
           ' ,,###''''                  '''############,,,                           
         ,,##''                                '''############,,,,        ,,,,,,###''
      ,#''                                            '''#######################'''  
     '                                                          ''''####''''         
             ,#######,   #######,   ,#######,      ##                                
            ,#'     '#,  ##    ##  ,#'     '#,    #''#        ,####,   ,####,        
            ##       ##  ##   ,#'  ##            #'  '#       #'       #'  '#        
            ##       ##  #######   ##           ,######,      #####,   #    #        
            '#,     ,#'  ##    ##  '#,     ,#' ,#      #,     #,   #   #,  ,#        
             '#######'   ##     ##  '#######'  #'      '#     '####' # '####'        



                #########################################################
                #                        -***-                          #
                #          Department of theory and spectroscopy        #
                #                                                       #
                #                      Frank Neese                      #
                #                                                       #
                #     Directorship, Architecture, Infrastructure        #
                #                    SHARK, DRIVERS                     #
                #        Core code/Algorithms in most modules           #
                #                                                       #
                #        Max Planck Institute fuer Kohlenforschung      #
                #                Kaiser Wilhelm Platz 1                 #
                #                 D-45470 Muelheim/Ruhr                 #
                #                      Germany                          #
                #                                                       #
                #                  All rights reserved                  #
                #                        -***-                          #
                #########################################################


                         Program Version 6.0.0  -   RELEASE  -


 With contributions from (in alphabetic order):
   Daniel Aravena         : Magnetic Suceptibility
   Michael Atanasov       : Ab Initio Ligand Field Theory (pilot matlab implementation)
   Alexander A. Auer      : GIAO ZORA, VPT2 properties, NMR spectrum
   Ute Becker             : All parallelization in ORCA, NUMFREQ, NUMCALC
   Giovanni Bistoni       : ED, misc. LED, open-shell LED, HFLD
   Martin Brehm           : Molecular dynamics
   Dmytro Bykov           : pre 5.0 version of the SCF Hessian
   Marcos Casanova-Páez   : Triplet and SCS-CIS(D). UHF-(DLPNO)-IP/EA/STEOM-CCSD. UHF-CVS-IP/STEOM-CCSD
   Vijay G. Chilkuri      : MRCI spin determinant printing, contributions to CSF-ICE
   Pauline Colinet        : FMM embedding
   Dipayan Datta          : RHF DLPNO-CCSD density
   Achintya Kumar Dutta   : EOM-CC, STEOM-CC
   Nicolas Foglia         : Exact transition moments, OPA infrastructure, MCD improvements
   Dmitry Ganyushin       : Spin-Orbit,Spin-Spin,Magnetic field MRCI
   Miquel Garcia          : C-PCM and meta-GGA Hessian, CCSD/C-PCM, Gaussian charge scheme
   Tiago L. C. Gouveia    : GS-ROHF, GS-ROCIS
   Yang Guo               : DLPNO-NEVPT2, F12-NEVPT2, CIM, IAO-localization
   Andreas Hansen         : Spin unrestricted coupled pair/coupled cluster methods
   Ingolf Harden          : AUTO-CI MPn and infrastructure 
   Benjamin Helmich-Paris : MC-RPA, TRAH-(SCF,CASSCF), AVAS, COSX integrals, SCF dyn. polar.
   Lee Huntington         : MR-EOM, pCC
   Robert Izsak           : Overlap fitted RIJCOSX, COSX-SCS-MP3, EOM
   Riya Kayal             : Wick's Theorem for AUTO-CI, AUTO-CI UHF-CCSDT
   Emily Kempfer          : AUTO-CI, RHF CISDT and CCSDT
   Christian Kollmar      : KDIIS, OOCD, Brueckner-CCSD(T), CCSD density, CASPT2, CASPT2-K, improved NEVPT2
   Axel Koslowski         : Symmetry handling
   Simone Kossmann        : Meta GGA functionals, TD-DFT gradient, OOMP2, (MP2 Hessian; deprecated post 5.0)
   Lucas Lang             : DCDCAS
   Marvin Lechner         : AUTO-CI (C++ implementation), FIC-MRCC
   Spencer Leger          : CASSCF response
   Dagmar Lenk            : GEPOL surface, SMD, ORCA-2-JSON
   Dimitrios Liakos       : Extrapolation schemes; Compound Job, initial MDCI parallelization
   Dimitrios Manganas     : Further ROCIS development; embedding schemes. LFT, Crystal Embedding
   Dimitrios Pantazis     : SARC Basis sets
   Anastasios Papadopoulos: AUTO-CI, single reference methods and gradients
   Taras Petrenko         : pre 6.0 DFT Hessian and TD-DFT gradient, (ASA, deprecated), ECA, 1-Electron XAS/XES, NRVS
   Peter Pinski           : DLPNO-MP2, DLPNO-MP2 Gradient
   Christoph Reimann      : Effective Core Potentials
   Marius Retegan         : Local ZFS, SOC
   Christoph Riplinger    : Optimizer, TS searches, QM/MM, DLPNO-CCSD(T), (RO)-DLPNO pert. Triples
   Michael Roemelt        : Original ROCIS implementation
   Masaaki Saitow         : Open-shell DLPNO-CCSD energy and density
   Barbara Sandhoefer     : DKH picture change effects
   Kantharuban Sivalingam : CASSCF convergence/infrastructure, NEVPT2 and variants, FIC-MRCI
   Bernardo de Souza      : ESD, SOC TD-DFT
   Georgi Stoychev        : AutoAux, RI-MP2 NMR, DLPNO-MP2 response, X2C
   Van Anh Tran           : RI-MP2 g-tensors
   Willem Van den Heuvel  : Paramagnetic NMR
   Zikuan Wang            : NOTCH, Electric field optimization 
   Frank Wennmohs         : Technical directorship and infrastructure
   Hang Xu                : AUTO-CI-Response properties 


 We gratefully acknowledge several colleagues who have allowed us to
 interface, adapt or use parts of their codes:
   Stefan Grimme, W. Hujo, H. Kruse, P. Pracht,  : VdW corrections, initial TS optimization,
                  C. Bannwarth, S. Ehlert,         DFT functionals, gCP, sTDA/sTD-DF
                  L. Wittmann, M. Mueller
   Ed Valeev, F. Pavosevic, A. Kumar             : LibInt (2-el integral package), F12 methods
   Garnet Chan, S. Sharma, J. Yang, R. Olivares  : DMRG
   Ulf Ekstrom                                   : XCFun DFT Library
   Mihaly Kallay                                 : mrcc  (arbitrary order and MRCC methods)
   Frank Weinhold                                : gennbo (NPA and NBO analysis)
   Simon Mueller                                 : openCOSMO-RS
   Christopher J. Cramer and Donald G. Truhlar   : smd solvation model
   Lars Goerigk                                  : TD-DFT with DH, B97 family of functionals
   V. Asgeirsson, H. Jonsson                     : NEB implementation
   FAccTs GmbH                                   : IRC, NEB, NEB-TS, DLPNO-Multilevel, CI-OPT
                                                   MM, QMMM, 2- and 3-layer-ONIOM, Crystal-QMMM,
                                                   LR-CPCM, SF, NACMEs, symmetry and pop. for TD-DFT,
                                                   nearIR, NL-DFT gradient (VV10), updates on ESD,
                                                   ML-optimized integration grids, MBIS, APM,
                                                   GOAT, DOCKER, SOLVATOR, interface openCOSMO-RS
   S Lehtola, MJT Oliveira, MAL Marques          : LibXC Library
   Liviu Ungur et al                             : ANISO software


 Your calculation uses the libint2 library for the computation of 2-el integrals
 For citations please refer to: http://libint.valeyev.net

 Your ORCA version has been built with support for libXC version: 6.2.2
 For citations please refer to: https://libxc.gitlab.io

 This ORCA versions uses:
   CBLAS   interface :  Fast vector & matrix operations
   LAPACKE interface :  Fast linear algebra routines
   SCALAPACK package :  Parallel linear algebra routines
   Shared memory     :  Shared parallel matrices
   BLAS/LAPACK       :  OpenBLAS 0.3.27  USE64BITINT DYNAMIC_ARCH NO_AFFINITY SapphireRapids SINGLE_THREADED
        Core in use  :  SapphireRapids
   Copyright (c) 2011-2014, The OpenBLAS Project


Your calculation utilizes the geometrical counterpoise correction gCP
Please cite in your paper:
H.Kruse, S. Grimme J.Chem.Phys., 136, (2012), 154101 
   

Your calculation utilizes the atom-pairwise dispersion correction
based on EEQ partial charges (D4)


================================================================================

----- Orbital basis set information -----
Your calculation utilizes the basis: def2-SV(P)
   F. Weigend and R. Ahlrichs, Phys. Chem. Chem. Phys. 7, 3297 (2005).

----- AuxJ basis set information -----
Your calculation utilizes the auxiliary basis: def2/J
   F. Weigend, Phys. Chem. Chem. Phys. 8, 1057 (2006).

================================================================================
                                        WARNINGS
                       Please study these warnings very carefully!
================================================================================


================================================================================
                                       INPUT FILE
================================================================================
NAME = sp.inp
|  1> ! pbe def2-sv(p) def2/J RI DEFGRID1 loosescf d4 GCP(DFT/SV(P)) printgap
|  2> %output
|  3>     printlevel normal
|  4> end
|  5> * xyz 0 1
|  6> C 3.2505132595 -0.5225733889 0.7800082382
|  7> C 1.899149278 -0.3145612923 0.1909330359
|  8> C 1.304042755 0.8889552219 0.1777060612
|  9> C -0.0250371965 1.135060562 -0.3483202548
| 10> O -0.5159493905 2.2621549243 -0.3631566146
| 11> C -0.8015883178 -0.064667332 -0.8519703952
| 12> H -1.4173377211 0.2874177015 -1.6871781012
| 13> C 0.1482332587 -1.137659047 -1.3869735553
| 14> C 1.2331279557 -1.520852315 -0.3875478313
| 15> C -1.7860341084 -0.5653690729 0.2416974297
| 16> C -1.2773518025 -0.3785167933 1.6716273111
| 17> C -3.1210437201 0.1640698206 0.0944186616
| 18> H 3.2312581094 -1.3622471877 1.4720170977
| 19> H 3.5985960796 0.3653409323 1.2992164134
| 20> H 3.9595554514 -0.7680831921 -0.0095491017
| 21> H 1.8043358555 1.757766382 0.5844858611
| 22> H -0.4263417627 -2.0191764174 -1.6754479121
| 23> H 0.6274503184 -0.7430159541 -2.2866980922
| 24> H 0.8037901123 -2.1101564186 0.427029017
| 25> H 1.9796697627 -2.1514135112 -0.8739350127
| 26> H -1.9526928079 -1.6339842068 0.0680683446
| 27> H -1.9950089849 -0.8035791119 2.3700747709
| 28> H -1.1716241356 0.6808397083 1.8998736044
| 29> H -0.3179449789 -0.8581774592 1.8336240528
| 30> H -3.8107433291 -0.1388300672 0.8786732729
| 31> H -3.5785412808 -0.0503503901 -0.8687340975
| 32> H -2.9638678422 1.2390068631 0.1693789414
| 33> *
| 34> 
| 35>                          ****END OF INPUT****
================================================================================

                       ****************************
                       * Single Point Calculation *
                       ****************************

---------------------------------
CARTESIAN COORDINATES (ANGSTROEM)
---------------------------------
  C      3.250513   -0.522573    0.780008
  C      1.899149   -0.314561    0.190933
  C      1.304043    0.888955    0.177706
  C     -0.025037    1.135061   -0.348320
  O     -0.515949    2.262155   -0.363157
  C     -0.801588   -0.064667   -0.851970
  H     -1.417338    0.287418   -1.687178
  C      0.148233   -1.137659   -1.386974
  C      1.233128   -1.520852   -0.387548
  C     -1.786034   -0.565369    0.241697
  C     -1.277352   -0.378517    1.671627
  C     -3.121044    0.164070    0.094419
  H      3.231258   -1.362247    1.472017
  H      3.598596    0.365341    1.299216
  H      3.959555   -0.768083   -0.009549
  H      1.804336    1.757766    0.584486
  H     -0.426342   -2.019176   -1.675448
  H      0.627450   -0.743016   -2.286698
  H      0.803790   -2.110156    0.427029
  H      1.979670   -2.151414   -0.873935
  H     -1.952693   -1.633984    0.068068
  H     -1.995009   -0.803579    2.370075
  H     -1.171624    0.680840    1.899874
  H     -0.317945   -0.858177    1.833624
  H     -3.810743   -0.138830    0.878673
  H     -3.578541   -0.050350   -0.868734
  H     -2.963868    1.239007    0.169379

----------------------------
CARTESIAN COORDINATES (A.U.)
----------------------------
  NO LB      ZA    FRAG     MASS         X           Y           Z
   0 C     6.0000    0    12.011    6.142580   -0.987521    1.474002
   1 C     6.0000    0    12.011    3.588872   -0.594435    0.360811
   2 C     6.0000    0    12.011    2.464284    1.679882    0.335816
   3 C     6.0000    0    12.011   -0.047313    2.144954   -0.658230
   4 O     8.0000    0    15.999   -0.975003    4.274853   -0.686267
   5 C     6.0000    0    12.011   -1.514782   -0.122204   -1.609991
   6 H     1.0000    0     1.008   -2.678380    0.543141   -3.188305
   7 C     6.0000    0    12.011    0.280120   -2.149864   -2.621000
   8 C     6.0000    0    12.011    2.330274   -2.873994   -0.732359
   9 C     6.0000    0    12.011   -3.375115   -1.068393    0.456742
  10 C     6.0000    0    12.011   -2.413845   -0.715293    3.158918
  11 C     6.0000    0    12.011   -5.897918    0.310047    0.178425
  12 H     1.0000    0     1.008    6.106193   -2.574274    2.781709
  13 H     1.0000    0     1.008    6.800361    0.690394    2.455163
  14 H     1.0000    0     1.008    7.482475   -1.451467   -0.018045
  15 H     1.0000    0     1.008    3.409701    3.321697    1.104518
  16 H     1.0000    0     1.008   -0.805669   -3.815690   -3.166138
  17 H     1.0000    0     1.008    1.185709   -1.404097   -4.321233
  18 H     1.0000    0     1.008    1.518943   -3.987618    0.806968
  19 H     1.0000    0     1.008    3.741034   -4.065582   -1.651498
  20 H     1.0000    0     1.008   -3.690055   -3.087783    0.128631
  21 H     1.0000    0     1.008   -3.770021   -1.518544    4.478792
  22 H     1.0000    0     1.008   -2.214049    1.286601    3.590241
  23 H     1.0000    0     1.008   -0.600829   -1.621720    3.465047
  24 H     1.0000    0     1.008   -7.201261   -0.262351    1.660452
  25 H     1.0000    0     1.008   -6.762463   -0.095148   -1.641670
  26 H     1.0000    0     1.008   -5.600899    2.341384    0.320080

--------------------------------
INTERNAL COORDINATES (ANGSTROEM)
--------------------------------
 C      0   0   0     0.000000000000     0.00000000     0.00000000
 C      1   0   0     1.488779109469     0.00000000     0.00000000
 C      2   1   0     1.342675957381   122.10355665     0.00000000
 C      3   2   1     1.450422366426   124.18100680   181.87076205
 O      4   3   2     1.229453781693   121.72320678   181.54355172
 C      4   3   2     1.515269655064   117.11711461     2.94689571
 H      6   4   3     1.095756866573   106.67417622   212.99934641
 C      6   4   3     1.529607998463   110.69721493   330.16571394
 C      2   1   3     1.494443892196   116.41769515   180.06180645
 C      6   4   3     1.554331064861   110.22839833    97.77068721
 C     10   6   4     1.529173282675   114.07370295   327.07148515
 C     10   6   4     1.528405312152   109.37037600    89.16595318
 H      1   2   3     1.088255076176   110.08114348   129.63997952
 H      1   2   3     1.085877811098   111.46361308     8.02679198
 H      1   2   3     1.089227564080   109.60599044   247.52207891
 H      3   2   1     1.081940767292   120.73931104     1.13272142
 H      8   6   4     1.091066810083   109.40387864   175.87367741
 H      8   6   4     1.093113170436   107.86998768   292.82608314
 H      9   2   1     1.093227218872   108.76652514    79.34412050
 H      9   2   1     1.091560617640   109.50976539   322.95629094
 H     10   6   4     1.095381433890   107.40313465   206.73446130
 H     11  10   6     1.087905630211   109.46082615   183.21749893
 H     11  10   6     1.088811695122   110.31686551    64.46742155
 H     11  10   6     1.084794336224   112.32221698   303.61402968
 H     12  10   6     1.087423187186   110.58289608   182.55912991
 H     12  10   6     1.087631960805   111.01768122    62.09555632
 H     12  10   6     1.088950387061   109.77982303   302.21198179

---------------------------
INTERNAL COORDINATES (A.U.)
---------------------------
 C      0   0   0     0.000000000000     0.00000000     0.00000000
 C      1   0   0     2.813384790800     0.00000000     0.00000000
 C      2   1   0     2.537289846051   122.10355665     0.00000000
 C      3   2   1     2.740901051060   124.18100680   181.87076205
 O      4   3   2     2.323330941713   121.72320678   181.54355172
 C      4   3   2     2.863444667113   117.11711461     2.94689571
 H      6   4   3     2.070680387186   106.67417622   212.99934641
 C      6   4   3     2.890540209350   110.69721493   330.16571394
 C      2   1   3     2.824089678761   116.41769515   180.06180645
 C      6   4   3     2.937260034033   110.22839833    97.77068721
 C     10   6   4     2.889718715566   114.07370295   327.07148515
 C     10   6   4     2.888267461598   109.37037600    89.16595318
 H      1   2   3     2.056504057822   110.08114348   129.63997952
 H      1   2   3     2.052011677877   111.46361308     8.02679198
 H      1   2   3     2.058341793629   109.60599044   247.52207891
 H      3   2   1     2.044571743307   120.73931104     1.13272142
 H      8   6   4     2.061817464868   109.40387864   175.87367741
 H      8   6   4     2.065684525507   107.86998768   292.82608314
 H      9   2   1     2.065900045816   108.76652514    79.34412050
 H      9   2   1     2.062750625913   109.50976539   322.95629094
 H     10   6   4     2.069970922235   107.40313465   206.73446130
 H     11  10   6     2.055843700650   109.46082615   183.21749893
 H     11  10   6     2.057555915192   110.31686551    64.46742155
 H     11  10   6     2.049964207092   112.32221698   303.61402968
 H     12  10   6     2.054932015457   110.58289608   182.55912991
 H     12  10   6     2.055326540422   111.01768122    62.09555632
 H     12  10   6     2.057818004973   109.77982303   302.21198179

---------------------
BASIS SET INFORMATION
---------------------
There are 3 groups of distinct atoms

 Group   1 Type C   : 7s4p1d contracted to 3s2p1d pattern {511/31/1}
 Group   2 Type O   : 7s4p1d contracted to 3s2p1d pattern {511/31/1}
 Group   3 Type H   : 4s contracted to 2s pattern {31}

Atom   0C    basis set group =>   1
Atom   1C    basis set group =>   1
Atom   2C    basis set group =>   1
Atom   3C    basis set group =>   1
Atom   4O    basis set group =>   2
Atom   5C    basis set group =>   1
Atom   6H    basis set group =>   3
Atom   7C    basis set group =>   1
Atom   8C    basis set group =>   1
Atom   9C    basis set group =>   1
Atom  10C    basis set group =>   1
Atom  11C    basis set group =>   1
Atom  12H    basis set group =>   3
Atom  13H    basis set group =>   3
Atom  14H    basis set group =>   3
Atom  15H    basis set group =>   3
Atom  16H    basis set group =>   3
Atom  17H    basis set group =>   3
Atom  18H    basis set group =>   3
Atom  19H    basis set group =>   3
Atom  20H    basis set group =>   3
Atom  21H    basis set group =>   3
Atom  22H    basis set group =>   3
Atom  23H    basis set group =>   3
Atom  24H    basis set group =>   3
Atom  25H    basis set group =>   3
Atom  26H    basis set group =>   3
---------------------------------
AUXILIARY/J BASIS SET INFORMATION
---------------------------------
There are 3 groups of distinct atoms

 Group   1 Type C   : 12s5p4d2f1g contracted to 6s4p3d1f1g pattern {711111/2111/211/2/1}
 Group   2 Type O   : 12s5p4d2f1g contracted to 6s4p3d1f1g pattern {711111/2111/211/2/1}
 Group   3 Type H   : 5s2p1d contracted to 3s1p1d pattern {311/2/1}

Atom   0C    basis set group =>   1
Atom   1C    basis set group =>   1
Atom   2C    basis set group =>   1
Atom   3C    basis set group =>   1
Atom   4O    basis set group =>   2
Atom   5C    basis set group =>   1
Atom   6H    basis set group =>   3
Atom   7C    basis set group =>   1
Atom   8C    basis set group =>   1
Atom   9C    basis set group =>   1
Atom  10C    basis set group =>   1
Atom  11C    basis set group =>   1
Atom  12H    basis set group =>   3
Atom  13H    basis set group =>   3
Atom  14H    basis set group =>   3
Atom  15H    basis set group =>   3
Atom  16H    basis set group =>   3
Atom  17H    basis set group =>   3
Atom  18H    basis set group =>   3
Atom  19H    basis set group =>   3
Atom  20H    basis set group =>   3
Atom  21H    basis set group =>   3
Atom  22H    basis set group =>   3
Atom  23H    basis set group =>   3
Atom  24H    basis set group =>   3
Atom  25H    basis set group =>   3
Atom  26H    basis set group =>   3
------------------------------------------------------------------------------
                             ORCA STARTUP CALCULATIONS
                           -- RI-GTO INTEGRALS CHOSEN --
------------------------------------------------------------------------------
------------------------------------------------------------------------------
                   ___                                                        
                  /   \      - P O W E R E D   B Y -                         
                 /     \                                                     
                 |  |  |   _    _      __       _____    __    __             
                 |  |  |  | |  | |    /  \     |  _  \  |  |  /  |          
                  \  \/   | |  | |   /    \    | | | |  |  | /  /          
                 / \  \   | |__| |  /  /\  \   | |_| |  |  |/  /          
                |  |  |   |  __  | /  /__\  \  |    /   |      \           
                |  |  |   | |  | | |   __   |  |    \   |  |\   \          
                \     /   | |  | | |  |  |  |  | |\  \  |  | \   \       
                 \___/    |_|  |_| |__|  |__|  |_| \__\ |__|  \__/        
                                                                              
                      - O R C A' S   B I G   F R I E N D -                    
                                      &                                       
                       - I N T E G R A L  F E E D E R -                       
                                                                              
 v1 FN, 2020, v2 2021, v3 2022-2024                                           
------------------------------------------------------------------------------


----------------------
SHARK INTEGRAL PACKAGE
----------------------

Number of atoms                             ...     27
Number of basis functions                   ...    186
Number of shells                            ...     98
Maximum angular momentum                    ...      2
Integral batch strategy                     ... SHARK/LIBINT Hybrid
RI-J (if used) integral strategy            ... SPLIT-RIJ (Revised 2003 algorithm where possible)
Printlevel                                  ...      1
Contraction scheme used                     ... SEGMENTED contraction
Prescreening option                         ... SCHWARTZ
   Thresh                                   ... 1.000e-09
   Tcut                                     ... 1.000e-10
   Tpresel                                  ... 1.000e-10 
Coulomb Range Separation                    ... NOT USED
Exchange Range Separation                   ... NOT USED
Multipole approximations                    ... NOT USED
Finite Nucleus Model                        ... NOT USED
CABS basis                                  ... NOT available
Auxiliary Coulomb fitting basis             ... AVAILABLE
   # of basis functions in Aux-J            ...    715
   # of shells in Aux-J                     ...    245
   Maximum angular momentum in Aux-J        ...      4
Auxiliary J/K fitting basis                 ... NOT available
Auxiliary Correlation fitting basis         ... NOT available
Auxiliary 'external' fitting basis          ... NOT available

Checking pre-screening integrals            ... done (  0.0 sec) Dimension = 98
Check shell pair data                       ... done (  0.0 sec)
Shell pair information
Shell pair cut-off parameter TPreSel        ...   1.0e-10
Total number of shell pairs                 ...      4851
Shell pairs after pre-screening             ...      4527
Total number of primitive shell pairs       ...     19497
Primitive shell pairs kept                  ...     12348
          la=0 lb=0:   1965 shell pairs
          la=1 lb=0:   1377 shell pairs
          la=1 lb=1:    251 shell pairs
          la=2 lb=0:    642 shell pairs
          la=2 lb=1:    233 shell pairs
          la=2 lb=2:     59 shell pairs

Calculating one electron integrals          ... done (  0.0 sec)
Calculating RI/J V-Matrix + Cholesky decomp.... done (  0.1 sec)
Calculating Nuclear repulsion               ... done (  0.0 sec) ENN=    650.305312754899 Eh

Diagonalization of the overlap matrix:
Smallest eigenvalue                        ... 7.212e-04
Time for diagonalization                   ...    0.003 sec
Threshold for overlap eigenvalues          ... 1.000e-07
Number of eigenvalues below threshold      ... 0
Time for construction of square roots      ...    0.013 sec
Total time needed                          ...    0.024 sec

-------------------
DFT GRID GENERATION
-------------------

General Integration Accuracy     IntAcc      ... 4.159
Radial Grid Type                 RadialGrid  ... OptM3 with GC (2021)
Angular Grid (max. ang.)         AngularGrid ... 3 (Lebedev-194)
Angular grid pruning method      GridPruning ... 4 (adaptive)
Weight generation scheme         WeightScheme... mBecke (2022)
Basis function cutoff            BFCut       ... 1.0000e-10
Integration weight cutoff        WCut        ... 1.0000e-14
Partially contracted basis set               ... off
Rotationally invariant grid construction     ... off
Angular grids for H and He will be reduced by one unit

Total number of grid points                  ...    57559
Total number of batches                      ...      912
Average number of points per batch           ...       63
Average number of grid points per atom       ...     2132
Initializing property integral containers    ... done (  0.0 sec)

SHARK setup successfully completed in   0.9 seconds

Maximum memory used throughout the entire STARTUP-calculation: 29.5 MB
-------------------------------------------------------------------------------
                                 ORCA GUESS
                   Start orbitals & Density for SCF / CASSCF
-------------------------------------------------------------------------------

------------
SCF SETTINGS
------------
Hamiltonian:
 Density Functional     Method          .... DFT(GTOs)
 Exchange Functional    Exchange        .... PBE
   PBE kappa parameter   XKappa         ....  0.804000
   PBE mue parameter    XMuePBE         ....  0.219520
 Correlation Functional Correlation     .... PBE
   PBE beta parameter  CBetaPBE         ....  0.066725
 LDA part of GGA corr.  LDAOpt          .... PW91-LDA
 Gradients option       PostSCFGGA      .... off
   NL short-range parameter             ....  6.400000
 RI-approximation to the Coulomb term is turned on
   Number of AuxJ basis functions       .... 715


General Settings:
 Integral files         IntName         .... sp
 Hartree-Fock type      HFTyp           .... RHF
 Total Charge           Charge          ....    0
 Multiplicity           Mult            ....    1
 Number of Electrons    NEL             ....   84
 Basis Dimension        Dim             ....  186
 Nuclear Repulsion      ENuc            ....    650.3053127549 Eh

Convergence Acceleration:
 AO-DIIS                CNVDIIS         .... on
   Start iteration      DIISMaxIt       ....    12
   Startup error        DIISStart       ....  0.200000
   # of expansion vecs  DIISMaxEq       ....     5
   Bias factor          DIISBfac        ....   1.050
   Max. coefficient     DIISMaxC        ....  10.000
 MO-DIIS                CNVKDIIS        .... off
 Trust-Rad. Augm. Hess. CNVTRAH         .... auto
   Auto Start mean grad. ratio tolernc. ....  1.125000
   Auto Start start iteration           ....    50
   Auto Start num. interpolation iter.  ....    10
   Max. Number of Micro iterations      ....    24
   Max. Number of Macro iterations      .... Maxiter - #DIIS iter
   Number of Davidson start vectors     ....     2
   Converg. threshold    (grad. norm)   ....   1.000e-04
   Grad. Scal. Fac. for Micro threshold ....   0.100
   Minimum threshold for Micro iter.    ....   1.000e-02
   NR start threshold (gradient norm)   ....   1.000e-04
   Initial trust radius                 ....   0.400
   Minimum AH scaling param. (alpha)    ....   1.000
   Maximum AH scaling param. (alpha)    .... 1000.000
   Quad. conv. algorithm                .... NR
   White noise on init. David. guess    .... on
   Maximum white noise                  ....   0.010
   Pseudo random numbers                .... off
   Inactive MOs                         .... canonical
   Orbital update algorithm             .... Taylor
   Preconditioner                       .... Diag
   Full preconditioner red. dimension   ....   250
 SOSCF                  CNVSOSCF        .... on
   Start iteration      SOSCFMaxIt      ....   150
   Startup grad/error   SOSCFStart      ....  0.003300
   Hessian update       SOSCFHessUp     .... L-BFGS
 Level Shifting         CNVShift        .... on
   Level shift para.    LevelShift      ....    0.2500
   Turn off err/grad.   ShiftErr        ....    0.0010
 Zerner damping         CNVZerner       .... off
 Static damping         CNVDamp         .... on
   Fraction old density DampFac         ....    0.7000
   Max. Damping (<1)    DampMax         ....    0.9800
   Min. Damping (>=0)   DampMin         ....    0.0000
   Turn off err/grad.   DampErr         ....    0.1000

SCF Procedure:
 Maximum # iterations   MaxIter         ....   125
 SCF integral mode      SCFMode         .... Direct
   Integral package                     .... SHARK and LIBINT hybrid scheme
 Reset frequency        DirectResetFreq ....    20
 Integral Threshold     Thresh          ....  1.000e-09 Eh
 Primitive CutOff       TCut            ....  1.000e-10 Eh

Convergence Tolerance:
 Convergence Check Mode ConvCheckMode   .... Total+1el-Energy
 Convergence forced     ConvForced      .... 0
 Energy Change          TolE            ....  1.000e-05 Eh
 1-El. energy change                    ....  1.000e-02 Eh
 Orbital Gradient       TolG            ....  1.000e-04
 Orbital Rotation angle TolX            ....  1.000e-04
 DIIS Error             TolErr          ....  5.000e-04

------------------------------
INITIAL GUESS: MODEL POTENTIAL
------------------------------
Loading Hartree-Fock densities                     ... done
Calculating cut-offs                               ... done
Initializing the effective Hamiltonian             ... done
Setting up the integral package (SHARK)            ... done
Starting the Coulomb interaction                   ... done (   0.2 sec)
Making the grid                                    ... done (   0.3 sec)
Mapping shells                                     ... done
Starting the XC term evaluation                    ... done (   0.2 sec)
  promolecular density results
     # of electrons  =     83.989784823
     EX              =    -64.050859670
     EC              =     -2.784275571
     EX+EC           =    -66.835135241
Transforming the Hamiltonian                       ... done (   0.0 sec)
Diagonalizing the Hamiltonian                      ... done (   0.0 sec)
Back transforming the eigenvectors                 ... done (   0.0 sec)
Now organizing SCF variables                       ... done
                      ------------------
                      INITIAL GUESS DONE (   0.7 sec)
                      ------------------
             **** ENERGY FILE WAS UPDATED (sp.en.tmp) ****
Finished Guess after   0.9 sec
Maximum memory used throughout the entire GUESS-calculation: 22.8 MB

-------------------------------------------------------------------------------------------
                                      ORCA LEAN-SCF
                              memory conserving SCF solver
-------------------------------------------------------------------------------------------

----------------------------------------D-I-I-S--------------------------------------------
Iteration    Energy (Eh)           Delta-E    RMSDP     MaxDP     DIISErr   Damp  Time(sec)
-------------------------------------------------------------------------------------------
               ***  Starting incremental Fock matrix formation  ***
    1    -464.6272836042830932     0.00e+00  4.87e-03  1.45e-01  2.26e-01  0.700   1.0
Warning: op=0 Small HOMO/LUMO gap (   0.079) - skipping pre-diagonalization
         Will do a full diagonalization
    2    -464.7764326160220207    -1.49e-01  3.23e-03  8.26e-02  7.57e-02  0.700   1.0
                               ***Turning on AO-DIIS***
    3    -464.8272313096617836    -5.08e-02  1.19e-03  1.90e-02  2.49e-02  0.700   1.0
    4    -464.8569249616814432    -2.97e-02  1.70e-03  2.37e-02  8.71e-03  0.000   0.9
    5    -464.9249428139264637    -6.80e-02  5.79e-04  1.78e-02  8.36e-03  0.000   1.0
                              *** Initializing SOSCF ***
---------------------------------------S-O-S-C-F--------------------------------------
Iteration    Energy (Eh)           Delta-E    RMSDP     MaxDP     MaxGrad    Time(sec)
--------------------------------------------------------------------------------------
    6    -464.9258255965512490    -8.83e-04  2.15e-04  2.62e-03  2.05e-03     0.9
               *** Restarting incremental Fock matrix formation ***
    7    -464.9259111938374645    -8.56e-05  1.59e-04  2.93e-03  4.69e-04     1.0
    8    -464.9259048867224919     6.31e-06  9.33e-05  3.13e-03  1.11e-03     0.9
                 **** Energy Check signals convergence ****

               *****************************************************
               *                     SUCCESS                       *
               *           SCF CONVERGED AFTER   8 CYCLES          *
               *****************************************************

             **** ENERGY FILE WAS UPDATED (sp.en.tmp) ****

----------------
TOTAL SCF ENERGY
----------------

Total Energy       :       -464.92590488672249 Eh          -12651.27705 eV

Components:
Nuclear Repulsion  :        650.30531275489898 Eh           17695.70719 eV
Electronic Energy  :      -1115.23121764162147 Eh          -30346.98424 eV
One Electron Energy:      -1918.79419182967899 Eh          -52213.04442 eV
Two Electron Energy:        803.56297418805752 Eh           21866.06018 eV

Virial components:
Potential Energy   :       -925.70429588994944 Eh          -25189.69451 eV
Kinetic Energy     :        460.77839100322694 Eh           12538.41746 eV
Virial Ratio       :          2.00900110327324

DFT components:
N(Alpha)           :       42.000263602910 electrons
N(Beta)            :       42.000263602910 electrons
N(Total)           :       84.000527205819 electrons
E(X)               :      -65.435836464055 Eh       
E(C)               :       -2.792414915622 Eh       
E(XC)              :      -68.228251379676 Eh       

---------------
SCF CONVERGENCE
---------------

  Last Energy change         ...   -6.3071e-06  Tolerance :   1.0000e-05
  Last MAX-Density change    ...    3.1283e-03  Tolerance :   1.0000e-03
  Last RMS-Density change    ...    9.3346e-05  Tolerance :   1.0000e-04
  Last DIIS Error            ...    2.0525e-03  Tolerance :   5.0000e-04
  Last Orbital Gradient      ...    1.1058e-03  Tolerance :   1.0000e-04
  Last Orbital Rotation      ...    1.3887e-03  Tolerance :   1.0000e-04


----------------
ORBITAL ENERGIES
----------------

  NO   OCC          E(Eh)            E(eV) 
   0   2.0000     -18.722242      -509.4581 
   1   2.0000      -9.960239      -271.0319 
   2   2.0000      -9.923349      -270.0281 
   3   2.0000      -9.902750      -269.4675 
   4   2.0000      -9.901747      -269.4402 
   5   2.0000      -9.894932      -269.2548 
   6   2.0000      -9.894786      -269.2508 
   7   2.0000      -9.892942      -269.2007 
   8   2.0000      -9.889133      -269.0970 
   9   2.0000      -9.873550      -268.6730 
  10   2.0000      -9.867187      -268.4998 
  11   2.0000      -0.916692       -24.9445 
  12   2.0000      -0.775066       -21.0906 
  13   2.0000      -0.731063       -19.8932 
  14   2.0000      -0.685599       -18.6561 
  15   2.0000      -0.656038       -17.8517 
  16   2.0000      -0.626073       -17.0363 
  17   2.0000      -0.606862       -16.5136 
  18   2.0000      -0.553011       -15.0482 
  19   2.0000      -0.524027       -14.2595 
  20   2.0000      -0.505126       -13.7452 
  21   2.0000      -0.451666       -12.2904 
  22   2.0000      -0.436047       -11.8654 
  23   2.0000      -0.426632       -11.6092 
  24   2.0000      -0.406019       -11.0483 
  25   2.0000      -0.395819       -10.7708 
  26   2.0000      -0.385452       -10.4887 
  27   2.0000      -0.378232       -10.2922 
  28   2.0000      -0.369144       -10.0449 
  29   2.0000      -0.356821        -9.7096 
  30   2.0000      -0.348582        -9.4854 
  31   2.0000      -0.344743        -9.3809 
  32   2.0000      -0.336575        -9.1587 
  33   2.0000      -0.331021        -9.0076 
  34   2.0000      -0.325301        -8.8519 
  35   2.0000      -0.304540        -8.2870 
  36   2.0000      -0.297755        -8.1023 
  37   2.0000      -0.290243        -7.8979 
  38   2.0000      -0.277018        -7.5381 
  39   2.0000      -0.271689        -7.3930 
  40   2.0000      -0.232978        -6.3397 
  41   2.0000      -0.182260        -4.9595 
  42   0.0000      -0.080048        -2.1782 
  43   0.0000       0.022389         0.6092 
  44   0.0000       0.027821         0.7570 
  45   0.0000       0.048777         1.3273 
  46   0.0000       0.056909         1.5486 
  47   0.0000       0.069712         1.8970 
  48   0.0000       0.078490         2.1358 
  49   0.0000       0.087383         2.3778 
  50   0.0000       0.091062         2.4779 
  51   0.0000       0.103953         2.8287 
  52   0.0000       0.106502         2.8981 
*Only the first 10 virtual orbitals were printed.

                    ********************************
                    * MULLIKEN POPULATION ANALYSIS *
                    ********************************

-----------------------
MULLIKEN ATOMIC CHARGES
-----------------------
   0 C :   -0.216851
   1 C :   -0.072387
   2 C :   -0.139608
   3 C :    0.070530
   4 O :   -0.180286
   5 C :   -0.126183
   6 H :    0.075216
   7 C :   -0.109777
   8 C :   -0.112592
   9 C :   -0.159551
  10 C :   -0.257011
  11 C :   -0.244035
  12 H :    0.116109
  13 H :    0.113118
  14 H :    0.123060
  15 H :    0.043459
  16 H :    0.081024
  17 H :    0.092706
  18 H :    0.109592
  19 H :    0.093437
  20 H :    0.067939
  21 H :    0.100578
  22 H :    0.122357
  23 H :    0.102952
  24 H :    0.094094
  25 H :    0.096193
  26 H :    0.115918
Sum of atomic charges:    0.0000000

--------------------------------
MULLIKEN REDUCED ORBITAL CHARGES
--------------------------------
  0 C s       :     3.030899  s :     3.030899
      pz      :     1.055411  p :     3.157273
      px      :     1.034903
      py      :     1.066959
      dz2     :     0.002023  d :     0.028679
      dxz     :     0.007731
      dyz     :     0.008049
      dx2y2   :     0.006509
      dxy     :     0.004366

  1 C s       :     3.101270  s :     3.101270
      pz      :     0.933150  p :     2.927665
      px      :     0.997069
      py      :     0.997446
      dz2     :     0.003779  d :     0.043452
      dxz     :     0.006358
      dyz     :     0.009199
      dx2y2   :     0.012297
      dxy     :     0.011819

  2 C s       :     3.286402  s :     3.286402
      pz      :     0.998509  p :     2.822593
      px      :     0.969406
      py      :     0.854678
      dz2     :     0.002568  d :     0.030612
      dxz     :     0.003837
      dyz     :     0.005702
      dx2y2   :     0.008969
      dxy     :     0.009536

  3 C s       :     3.081087  s :     3.081087
      pz      :     0.851780  p :     2.756954
      px      :     0.949377
      py      :     0.955797
      dz2     :     0.006413  d :     0.091429
      dxz     :     0.008308
      dyz     :     0.018806
      dx2y2   :     0.030165
      dxy     :     0.027737

  4 O s       :     3.742595  s :     3.742595
      pz      :     1.390677  p :     4.421151
      px      :     1.638873
      py      :     1.391600
      dz2     :     0.001828  d :     0.016540
      dxz     :     0.000845
      dyz     :     0.004188
      dx2y2   :     0.004773
      dxy     :     0.004906

  5 C s       :     3.051048  s :     3.051048
      pz      :     1.025233  p :     3.036066
      px      :     1.008666
      py      :     1.002166
      dz2     :     0.006316  d :     0.039069
      dxz     :     0.009837
      dyz     :     0.007181
      dx2y2   :     0.006369
      dxy     :     0.009366

  6 H s       :     0.924784  s :     0.924784

  7 C s       :     3.019272  s :     3.019272
      pz      :     1.044226  p :     3.054117
      px      :     0.998213
      py      :     1.011678
      dz2     :     0.006485  d :     0.036388
      dxz     :     0.008604
      dyz     :     0.006466
      dx2y2   :     0.005048
      dxy     :     0.009784

  8 C s       :     2.969502  s :     2.969502
      pz      :     1.025365  p :     3.106772
      px      :     1.021077
      py      :     1.060330
      dz2     :     0.005428  d :     0.036319
      dxz     :     0.007938
      dyz     :     0.009189
      dx2y2   :     0.004445
      dxy     :     0.009318

  9 C s       :     3.094630  s :     3.094630
      pz      :     0.997573  p :     3.021760
      px      :     1.004949
      py      :     1.019238
      dz2     :     0.010709  d :     0.043161
      dxz     :     0.009988
      dyz     :     0.005580
      dx2y2   :     0.010639
      dxy     :     0.006245

 10 C s       :     3.070609  s :     3.070609
      pz      :     1.027800  p :     3.157198
      px      :     1.049660
      py      :     1.079738
      dz2     :     0.006304  d :     0.029204
      dxz     :     0.006940
      dyz     :     0.004998
      dx2y2   :     0.006420
      dxy     :     0.004541

 11 C s       :     3.076848  s :     3.076848
      pz      :     1.048151  p :     3.138056
      px      :     1.009077
      py      :     1.080829
      dz2     :     0.005831  d :     0.029131
      dxz     :     0.009406
      dyz     :     0.001664
      dx2y2   :     0.008233
      dxy     :     0.003996

 12 H s       :     0.883891  s :     0.883891

 13 H s       :     0.886882  s :     0.886882

 14 H s       :     0.876940  s :     0.876940

 15 H s       :     0.956541  s :     0.956541

 16 H s       :     0.918976  s :     0.918976

 17 H s       :     0.907294  s :     0.907294

 18 H s       :     0.890408  s :     0.890408

 19 H s       :     0.906563  s :     0.906563

 20 H s       :     0.932061  s :     0.932061

 21 H s       :     0.899422  s :     0.899422

 22 H s       :     0.877643  s :     0.877643

 23 H s       :     0.897048  s :     0.897048

 24 H s       :     0.905906  s :     0.905906

 25 H s       :     0.903807  s :     0.903807

 26 H s       :     0.884082  s :     0.884082


------------------------
MULLIKEN OVERLAP CHARGES
------------------------
B(  0-C ,  1-C ) :   0.8533 B(  0-C ,  2-C ) :  -0.1095 B(  0-C ,  8-C ) :  -0.2012 
B(  0-C , 12-H ) :   0.7113 B(  0-C , 13-H ) :   0.7235 B(  0-C , 14-H ) :   0.7054 
B(  0-C , 15-H ) :  -0.0534 B(  1-C ,  2-C ) :   0.7436 B(  1-C ,  3-C ) :   0.1446 
B(  1-C ,  7-C ) :  -0.0691 B(  1-C ,  8-C ) :   0.6463 B(  1-C , 15-H ) :  -0.1312 
B(  2-C ,  3-C ) :   0.4955 B(  2-C ,  4-O ) :  -0.2036 B(  2-C ,  5-C ) :  -0.3911 
B(  2-C , 15-H ) :   0.7119 B(  3-C ,  4-O ) :   1.4192 B(  3-C ,  5-C ) :   0.3286 
B(  3-C ,  8-C ) :  -0.1394 B(  3-C , 15-H ) :  -0.0825 B(  4-O ,  5-C ) :  -0.2197 
B(  5-C ,  6-H ) :   0.5695 B(  5-C ,  7-C ) :   0.5187 B(  5-C ,  9-C ) :   0.5753 
B(  5-C , 10-C ) :  -0.1107 B(  5-C , 11-C ) :  -0.0793 B(  5-C , 17-H ) :  -0.0611 
B(  5-C , 20-H ) :  -0.0843 B(  6-H ,  9-C ) :  -0.0644 B(  7-C ,  8-C ) :   0.7496 
B(  7-C ,  9-C ) :  -0.0513 B(  7-C , 16-H ) :   0.6425 B(  7-C , 17-H ) :   0.7222 
B(  8-C , 17-H ) :  -0.0562 B(  8-C , 18-H ) :   0.5951 B(  8-C , 19-H ) :   0.6736 
B(  9-C , 10-C ) :   0.8759 B(  9-C , 11-C ) :   0.8790 B(  9-C , 20-H ) :   0.7158 
B(  9-C , 24-H ) :  -0.0516 B( 10-C , 11-C ) :  -0.1250 B( 10-C , 20-H ) :  -0.0626 
B( 10-C , 21-H ) :   0.7213 B( 10-C , 22-H ) :   0.7193 B( 10-C , 23-H ) :   0.7248 
B( 11-C , 20-H ) :  -0.0668 B( 11-C , 24-H ) :   0.7290 B( 11-C , 25-H ) :   0.7280 
B( 11-C , 26-H ) :   0.7367 B( 16-H , 17-H ) :  -0.0617 B( 18-H , 19-H ) :  -0.0515 



                     *******************************
                     * LOEWDIN POPULATION ANALYSIS *
                     *******************************

----------------------
LOEWDIN ATOMIC CHARGES
----------------------
   0 C :   -0.321509
   1 C :   -0.014912
   2 C :   -0.169642
   3 C :    0.042345
   4 O :   -0.148427
   5 C :   -0.155149
   6 H :    0.131565
   7 C :   -0.207978
   8 C :   -0.217655
   9 C :   -0.135982
  10 C :   -0.335572
  11 C :   -0.330961
  12 H :    0.134731
  13 H :    0.129668
  14 H :    0.138875
  15 H :    0.128274
  16 H :    0.118053
  17 H :    0.122128
  18 H :    0.134916
  19 H :    0.128010
  20 H :    0.111858
  21 H :    0.119808
  22 H :    0.126180
  23 H :    0.113847
  24 H :    0.114992
  25 H :    0.115827
  26 H :    0.126709

-------------------------------
LOEWDIN REDUCED ORBITAL CHARGES
-------------------------------
  0 C s       :     2.936575  s :     2.936575
      pz      :     1.113236  p :     3.313468
      px      :     1.077104
      py      :     1.123128
      dz2     :     0.004404  d :     0.071466
      dxz     :     0.019893
      dyz     :     0.019976
      dx2y2   :     0.017392
      dxy     :     0.009801

  1 C s       :     2.870168  s :     2.870168
      pz      :     0.916723  p :     3.034721
      px      :     1.027642
      py      :     1.090357
      dz2     :     0.008608  d :     0.110023
      dxz     :     0.014210
      dyz     :     0.020878
      dx2y2   :     0.034081
      dxy     :     0.032246

  2 C s       :     2.912929  s :     2.912929
      pz      :     1.035911  p :     3.169754
      px      :     1.055646
      py      :     1.078197
      dz2     :     0.006965  d :     0.086958
      dxz     :     0.010224
      dyz     :     0.012953
      dx2y2   :     0.027549
      dxy     :     0.029266

  3 C s       :     2.871178  s :     2.871178
      pz      :     0.842991  p :     2.869607
      px      :     1.011381
      py      :     1.015235
      dz2     :     0.015202  d :     0.216869
      dxz     :     0.018198
      dyz     :     0.038844
      dx2y2   :     0.074995
      dxy     :     0.069631

  4 O s       :     3.557695  s :     3.557695
      pz      :     1.395115  p :     4.561480
      px      :     1.664941
      py      :     1.501425
      dz2     :     0.004016  d :     0.029252
      dxz     :     0.001105
      dyz     :     0.005478
      dx2y2   :     0.009210
      dxy     :     0.009443

  5 C s       :     2.887386  s :     2.887386
      pz      :     1.063190  p :     3.169157
      px      :     1.049055
      py      :     1.056912
      dz2     :     0.014191  d :     0.098606
      dxz     :     0.026531
      dyz     :     0.018245
      dx2y2   :     0.013459
      dxy     :     0.026181

  6 H s       :     0.868435  s :     0.868435

  7 C s       :     2.903954  s :     2.903954
      pz      :     1.075968  p :     3.214601
      px      :     1.062261
      py      :     1.076372
      dz2     :     0.014674  d :     0.089423
      dxz     :     0.023211
      dyz     :     0.015427
      dx2y2   :     0.011543
      dxy     :     0.024567

  8 C s       :     2.895040  s :     2.895040
      pz      :     1.086859  p :     3.232828
      px      :     1.075405
      py      :     1.070564
      dz2     :     0.011084  d :     0.089787
      dxz     :     0.021160
      dyz     :     0.023036
      dx2y2   :     0.010459
      dxy     :     0.024049

  9 C s       :     2.877143  s :     2.877143
      pz      :     1.044975  p :     3.154743
      px      :     1.039849
      py      :     1.069919
      dz2     :     0.027364  d :     0.104097
      dxz     :     0.024554
      dyz     :     0.011767
      dx2y2   :     0.024861
      dxy     :     0.015551

 10 C s       :     2.946123  s :     2.946123
      pz      :     1.075067  p :     3.318259
      px      :     1.111869
      py      :     1.131322
      dz2     :     0.017062  d :     0.071190
      dxz     :     0.017075
      dyz     :     0.010447
      dx2y2   :     0.015627
      dxy     :     0.010979

 11 C s       :     2.949444  s :     2.949444
      pz      :     1.114000  p :     3.310746
      px      :     1.066655
      py      :     1.130091
      dz2     :     0.014980  d :     0.070771
      dxz     :     0.021968
      dyz     :     0.003949
      dx2y2   :     0.019185
      dxy     :     0.010691

 12 H s       :     0.865269  s :     0.865269

 13 H s       :     0.870332  s :     0.870332

 14 H s       :     0.861125  s :     0.861125

 15 H s       :     0.871726  s :     0.871726

 16 H s       :     0.881947  s :     0.881947

 17 H s       :     0.877872  s :     0.877872

 18 H s       :     0.865084  s :     0.865084

 19 H s       :     0.871990  s :     0.871990

 20 H s       :     0.888142  s :     0.888142

 21 H s       :     0.880192  s :     0.880192

 22 H s       :     0.873820  s :     0.873820

 23 H s       :     0.886153  s :     0.886153

 24 H s       :     0.885008  s :     0.885008

 25 H s       :     0.884173  s :     0.884173

 26 H s       :     0.873291  s :     0.873291


---------------------------------
LOEWDIN BOND ORDERS (THRESH 0.050000)
---------------------------------
B(  0-C ,  1-C ) :   1.1190 B(  0-C ,  2-C ) :   0.0883 B(  0-C ,  8-C ) :   0.0615 
B(  0-C , 12-H ) :   0.9169 B(  0-C , 13-H ) :   0.9286 B(  0-C , 14-H ) :   0.9133 
B(  1-C ,  2-C ) :   1.7701 B(  1-C ,  3-C ) :   0.1062 B(  1-C ,  4-O ) :   0.1020 
B(  1-C ,  7-C ) :   0.0571 B(  1-C ,  8-C ) :   1.0733 B(  2-C ,  3-C ) :   1.1611 
B(  2-C ,  4-O ) :   0.1122 B(  2-C ,  5-C ) :   0.0685 B(  2-C ,  8-C ) :   0.0780 
B(  2-C , 15-H ) :   0.8723 B(  3-C ,  4-O ) :   2.1654 B(  3-C ,  5-C ) :   1.0118 
B(  3-C ,  7-C ) :   0.0573 B(  3-C ,  9-C ) :   0.0582 B(  4-O ,  5-C ) :   0.1043 
B(  5-C ,  6-H ) :   0.8532 B(  5-C ,  7-C ) :   1.0556 B(  5-C ,  9-C ) :   0.9926 
B(  5-C , 11-C ) :   0.0574 B(  7-C ,  8-C ) :   1.0840 B(  7-C ,  9-C ) :   0.0504 
B(  7-C , 16-H ) :   0.8965 B(  7-C , 17-H ) :   0.8990 B(  8-C , 18-H ) :   0.8743 
B(  8-C , 19-H ) :   0.8878 B(  9-C , 10-C ) :   1.0956 B(  9-C , 11-C ) :   1.0945 
B(  9-C , 20-H ) :   0.8714 B( 10-C , 11-C ) :   0.0575 B( 10-C , 21-H ) :   0.9312 
B( 10-C , 22-H ) :   0.9269 B( 10-C , 23-H ) :   0.9302 B( 11-C , 24-H ) :   0.9334 
B( 11-C , 25-H ) :   0.9352 B( 11-C , 26-H ) :   0.9297 

------------------------------------------
LOEWDIN REDUCED ORBITAL POPULATIONS PER MO
-------------------------------------------
THRESHOLD FOR PRINTING IS 0.1%%
                      0         1         2         3         4         5   
                 -18.72224  -9.96024  -9.92335  -9.90275  -9.90175  -9.89493
                   2.00000   2.00000   2.00000   2.00000   2.00000   2.00000
                  --------  --------  --------  --------  --------  --------
 0 C  s               0.0       0.0       0.0       0.0       0.0      99.6
 1 C  s               0.0       0.0      99.5       0.0       0.0       0.0
 2 C  px              0.0       0.1       0.0       0.0       0.0       0.0
 2 C  py              0.0       0.0       0.1       0.0       0.0       0.0
 3 C  s               0.0      99.4       0.0       0.0       0.0       0.0
 4 O  s              99.9       0.0       0.0       0.0       0.0       0.0
 4 O  py              0.0       0.2       0.0       0.0       0.0       0.0
 8 C  s               0.0       0.0       0.0      99.6       0.0       0.0
 9 C  s               0.0       0.0       0.0       0.0      99.5       0.0

                      6         7         8         9        10        11   
                  -9.89479  -9.89294  -9.88913  -9.87355  -9.86719  -0.91669
                   2.00000   2.00000   2.00000   2.00000   2.00000   2.00000
                  --------  --------  --------  --------  --------  --------
 1 C  s               0.0       0.0       0.0       0.0       0.0       0.2
 1 C  py              0.0       0.0       0.1       0.0       0.0       0.1
 2 C  s               0.0       0.0      99.6       0.0       0.0       1.6
 2 C  pz              0.0       0.0       0.0       0.0       0.0       0.2
 2 C  px              0.0       0.0       0.0       0.0       0.0       1.7
 2 C  py              0.0       0.0       0.0       0.0       0.0       0.2
 3 C  s               0.0       0.0       0.0       0.0       0.0      20.0
 3 C  px              0.0       0.0       0.1       0.0       0.0       1.9
 3 C  py              0.0       0.1       0.0       0.0       0.0      10.1
 3 C  dz2             0.0       0.0       0.0       0.0       0.0       0.5
 3 C  dx2y2           0.0       0.0       0.0       0.0       0.0       0.5
 3 C  dxy             0.0       0.0       0.0       0.0       0.0       0.6
 4 O  s               0.0       0.0       0.0       0.0       0.0      50.4
 4 O  px              0.0       0.0       0.0       0.0       0.0       1.0
 4 O  py              0.0       0.0       0.0       0.0       0.0       5.5
 4 O  dxy             0.0       0.0       0.0       0.0       0.0       0.1
 5 C  s               0.0      99.6       0.0       0.0       0.0       1.4
 5 C  pz              0.0       0.0       0.0       0.0       0.0       0.2
 5 C  px              0.0       0.0       0.0       0.0       0.0       0.2
 5 C  py              0.1       0.0       0.0       0.0       0.0       1.5
 6 H  s               0.0       0.1       0.0       0.0       0.0       0.3
 7 C  s              99.6       0.0       0.0       0.0       0.0       0.1
 9 C  s               0.0       0.0       0.0       0.0       0.0       0.1
10 C  s               0.0       0.0       0.0      99.7       0.0       0.0
11 C  s               0.0       0.0       0.0       0.0      99.7       0.0
15 H  s               0.0       0.0       0.1       0.0       0.0       0.3

                     12        13        14        15        16        17   
                  -0.77507  -0.73106  -0.68560  -0.65604  -0.62607  -0.60686
                   2.00000   2.00000   2.00000   2.00000   2.00000   2.00000
                  --------  --------  --------  --------  --------  --------
 0 C  s               4.5       6.0       9.4       5.5      14.4       1.9
 0 C  pz              0.3       0.2       0.0       0.0       0.1       0.0
 0 C  px              1.5       0.9       0.2       0.0       0.6       0.2
 0 C  py              0.0       0.0       0.1       0.4       0.0       0.0
 1 C  s              16.7       9.1       3.4       0.0       0.4       0.3
 1 C  pz              0.1       0.1       1.4       0.0       1.4       0.3
 1 C  px              0.5       0.3       2.9       3.1       7.2       0.8
 1 C  py              0.0       0.0       1.5      12.7       0.1       0.0
 1 C  dx2y2           0.0       0.0       0.0       0.0       0.2       0.0
 1 C  dxy             0.0       0.0       0.1       0.2       0.0       0.0
 2 C  s               8.5       3.2       2.0      17.9       1.6       0.6
 2 C  pz              0.1       0.0       0.2       0.2       0.0       0.0
 2 C  px              0.0       0.9       0.8       1.2       0.0       0.1
 2 C  py              3.0       0.8       0.2       0.1       0.1       0.0
 3 C  s               1.7       0.1       0.0       6.3       0.2       0.1
 3 C  pz              0.0       0.2       0.5       0.3       1.3       0.0
 3 C  px              0.9       1.8       0.3       5.3       2.1       0.4
 3 C  py              5.0       1.6       0.3       5.0       1.4       0.3
 3 C  dx2y2           0.1       0.0       0.0       0.2       0.0       0.0
 4 O  s               2.1       0.4       0.0       3.4       0.1       0.0
 4 O  px              0.0       0.0       0.0       0.2       0.1       0.0
 4 O  py              0.1       0.0       0.0       0.3       0.1       0.0
 5 C  s               7.3       9.7       2.1       1.6      10.3       0.5
 5 C  pz              0.1       0.7       1.9       0.1       0.7       0.1
 5 C  px              0.7       1.0       2.9       0.8       0.0       0.5
 5 C  py              0.5       0.4       0.6       1.5       0.0       0.0
 6 H  s               1.0       2.0       0.4       0.2       3.4       0.0
 7 C  s               9.3       1.3      14.7       1.5       0.7       0.1
 7 C  pz              1.4       0.0       0.1       0.1       0.5       0.0
 7 C  px              0.2       1.6       0.1       1.0       3.8       0.3
 7 C  py              0.3       0.5       0.0       1.7       1.7       0.1
 8 C  s              13.1       1.4       5.0       9.2       6.9       0.7
 8 C  pz              0.0       0.5       1.9       0.0       0.1       0.0
 8 C  px              0.0       1.2       2.4       0.1       0.0       0.1
 8 C  py              2.0       0.4       0.1       0.6       0.0       0.0
 9 C  s               3.2      18.3       5.7       0.5       0.0       0.0
 9 C  pz              0.1       0.0       1.6       0.3       6.1       3.8
 9 C  px              0.3       0.0       1.0       0.5       0.2       9.6
 9 C  py              0.1       0.5       0.2       0.0       0.1       0.6
 9 C  dz2             0.0       0.0       0.0       0.0       0.0       0.2
 9 C  dxz             0.0       0.0       0.0       0.0       0.1       0.0
 9 C  dxy             0.0       0.0       0.0       0.0       0.0       0.1
10 C  s               1.0       6.9       5.9       0.5       8.9      17.0
10 C  pz              0.4       1.9       0.4       0.0       0.1       0.3
10 C  px              0.0       0.3       0.2       0.1       0.0       0.5
11 C  s               0.6       7.1       5.6       1.2       0.1      24.2
11 C  pz              0.0       0.0       0.1       0.0       0.3       0.2
11 C  px              0.3       1.8       0.4       0.0       0.0       0.3
11 C  py              0.1       0.4       0.2       0.0       0.0       0.0
12 H  s               0.8       1.1       1.9       1.7       3.9       0.6
13 H  s               0.7       1.1       2.2       0.8       4.1       0.6
14 H  s               0.8       1.1       2.0       1.6       4.0       0.6
15 H  s               1.0       0.6       0.6       3.4       0.2       0.1
16 H  s               1.4       0.3       3.0       0.5       0.2       0.0
17 H  s               1.6       0.2       3.1       0.3       0.2       0.0
18 H  s               2.3       0.2       0.9       2.5       2.1       0.1
19 H  s               2.1       0.4       0.9       3.1       1.6       0.2
20 H  s               0.6       3.4       0.9       0.2       0.0       0.0
21 H  s               0.1       1.3       1.3       0.2       2.5       4.2
22 H  s               0.2       1.3       1.3       0.1       2.2       4.2
23 H  s               0.3       1.1       1.0       0.1       2.6       5.5
24 H  s               0.1       1.2       1.2       0.3       0.1       6.1
25 H  s               0.1       1.2       1.0       0.2       0.0       7.2
26 H  s               0.1       1.3       1.1       0.3       0.0       5.9

                     18        19        20        21        22        23   
                  -0.55301  -0.52403  -0.50513  -0.45167  -0.43605  -0.42663
                   2.00000   2.00000   2.00000   2.00000   2.00000   2.00000
                  --------  --------  --------  --------  --------  --------
 0 C  s               0.9       1.9       1.2       0.1       0.3       0.1
 0 C  pz              0.2       0.3       0.6       0.3       5.4       0.1
 0 C  px              0.7       2.7       3.3       0.3       0.6       1.8
 0 C  py              0.6       1.1       0.4       1.1       0.2       5.1
 1 C  s               0.8       4.0       5.8       0.6       0.1       0.2
 1 C  pz              0.3       0.1       0.0       2.6       2.7       0.2
 1 C  px              0.5       0.0       0.0       0.8       4.7       0.1
 1 C  py              6.1       2.9       0.4       1.2       0.5       5.9
 1 C  dx2y2           0.0       0.1       0.0       0.1       0.0       0.0
 2 C  s               2.3       0.3       1.6       1.8       0.3       0.0
 2 C  pz              0.2       1.1       0.0       4.1       0.3       0.3
 2 C  px              0.7       9.5       4.4       4.4       0.4       1.8
 2 C  py              1.3       1.9       9.5       5.6       4.0       2.0
 2 C  dx2y2           0.0       0.3       0.2       0.0       0.0       0.0
 3 C  s               0.9       6.6       1.3       0.6       0.2       0.0
 3 C  pz              0.4       0.0       2.7       0.1       0.6       0.4
 3 C  px              3.2       0.8       6.6       0.7       0.1       5.6
 3 C  py              2.7       3.3       0.2       0.4       0.2       1.3
 4 O  s               0.4       3.1       0.9       0.1       1.1       0.0
 4 O  pz              0.1       0.0       0.4       0.0       0.1       0.1
 4 O  px              0.3       0.3       1.8       0.1       0.5       2.5
 4 O  py              0.4       1.5       0.1       0.0       0.8       0.3
 5 C  s               3.3       0.0       1.0       1.9       0.0       0.4
 5 C  pz              2.4       0.0       3.7       1.3       2.5       9.1
 5 C  px              1.3       4.8       0.3       5.5       1.9       0.0
 5 C  py              4.6       6.0       1.3       0.2       2.7       2.7
 5 C  dxz             0.0       0.1       0.0       0.0       0.0       0.0
 5 C  dxy             0.2       0.0       0.1       0.0       0.0       0.0
 6 H  s               1.0       0.1       1.8       4.8       2.1       2.4
 7 C  s              14.8       0.1       0.1       0.3       0.0       0.1
 7 C  pz              3.7       0.0       1.1       0.1       9.4       0.1
 7 C  px              0.0       1.5       0.1       2.0       2.0       7.1
 7 C  py              1.0       0.2       2.9       2.5       0.2       2.2
 8 C  s               3.0       0.5       1.4       1.3       0.0       0.1
 8 C  pz              5.5       0.1       0.0       0.9       7.1       7.4
 8 C  px              3.7       0.0       0.4       0.1      15.9       1.4
 8 C  py              0.0       0.7       5.3      12.8       0.4       0.3
 8 C  dxz             0.1       0.0       0.0       0.1       0.0       0.0
 9 C  s               0.5       6.4       5.1       1.7       0.6       0.5
 9 C  pz              1.5       1.6       0.3       2.1       0.1       0.8
 9 C  px              1.4       0.4       0.0       0.9       1.4       0.6
 9 C  py              0.3       3.7       2.8       3.1       0.2       8.1
10 C  s               1.3       1.4       2.2       0.4       0.1       0.3
10 C  pz              0.7       2.0       3.3       2.0       0.0       4.4
10 C  px              0.1       0.1       0.1       1.6       2.6       0.1
10 C  py              0.0       0.8       0.5       0.8       0.1       4.1
11 C  s               1.8       3.8       1.0       0.0       0.6       0.1
11 C  pz              0.2       0.1       0.0       1.2       0.1       0.8
11 C  px              0.7       2.3       1.1       0.0       2.5       3.1
11 C  py              0.0       1.5       1.5       1.8       0.5       1.5
12 H  s               0.1       1.7       1.3       0.2       1.1       0.7
13 H  s               1.1       0.5       0.9       0.3       1.6       2.7
14 H  s               0.3       1.5       1.1       0.6       0.3       0.1
15 H  s               2.1       0.4       2.1       8.4       1.5       0.1
16 H  s               7.0       0.5       0.1       0.5       0.1       0.0
17 H  s               6.5       0.0       0.6       1.3       3.7       0.1
18 H  s               1.8       0.2       1.9       5.4       3.7       0.5
19 H  s               1.1       0.7       1.5       2.3       7.3       0.5
20 H  s               0.0       5.2       4.4       2.5       0.0       1.9
21 H  s               0.9       0.8       1.4       0.1       0.4       2.1
22 H  s               0.4       1.5       1.7       1.2       0.0       0.3
23 H  s               0.2       0.5       0.9       1.1       1.3       1.9
24 H  s               1.1       2.2       0.6       0.2       0.5       0.6
25 H  s               0.5       1.3       0.5       0.4       0.7       1.6
26 H  s               0.4       2.1       1.3       0.6       0.5       0.6

                     24        25        26        27        28        29   
                  -0.40602  -0.39582  -0.38545  -0.37823  -0.36914  -0.35682
                   2.00000   2.00000   2.00000   2.00000   2.00000   2.00000
                  --------  --------  --------  --------  --------  --------
 0 C  pz              0.5       7.5      16.6      11.4       1.9       0.3
 0 C  px              4.5      15.1       1.3       0.1       3.9       0.4
 0 C  py              7.4       0.0       3.2       0.1       0.2      17.7
 0 C  dxz             0.0       0.1       0.0       0.0       0.1       0.1
 0 C  dyz             0.1       0.1       0.1       0.0       0.0       0.2
 0 C  dx2y2           0.1       0.0       0.2       0.1       0.0       0.0
 1 C  s               0.8       0.4       0.5       0.0       0.3       0.1
 1 C  pz              0.3       9.0       0.1       0.3       0.5       0.0
 1 C  px              0.4       1.0       7.5       2.0       2.3       0.4
 1 C  py              5.0       0.2       0.2       0.4       1.2       3.9
 1 C  dx2y2           0.0       0.0       0.1       0.0       0.0       0.1
 1 C  dxy             0.0       0.0       0.0       0.0       0.1       0.6
 2 C  s               0.0       0.2       0.6       0.0       0.1       1.3
 2 C  pz              0.4       0.8       0.0       0.0       1.9       0.0
 2 C  px              2.9       0.0       0.0       0.7       1.4       0.3
 2 C  py              0.5       0.0       0.2       3.4       7.3       2.9
 2 C  dx2y2           0.0       0.0       0.1       0.0       0.0       0.0
 2 C  dxy             0.0       0.0       0.1       0.0       0.2       0.0
 3 C  s               0.0       1.9       2.1       0.3       0.4       0.2
 3 C  pz              9.0       0.3       0.1       0.2       0.0       0.3
 3 C  px              0.7       1.4       1.2       0.1       0.4       0.4
 3 C  py              0.3       0.2       0.3       0.1       0.4       4.5
 3 C  dxy             0.0       0.0       0.0       0.0       0.1       0.0
 4 O  s               0.0       2.5       2.4       0.5       0.8       3.3
 4 O  pz              3.9       0.1       0.0       0.0       0.1       0.5
 4 O  px              0.2       0.1       0.3       0.0       0.5       6.6
 4 O  py              0.1       7.0       7.9       2.1       2.2       6.9
 5 C  s               0.2       0.2       0.1       0.9       0.4       0.0
 5 C  pz              2.4       0.0       3.3       0.1       1.5       0.2
 5 C  px              0.9       1.5       0.7       3.3       3.9       0.1
 5 C  py              3.2       2.5       0.1       1.7       0.3       1.6
 5 C  dx2y2           0.0       0.1       0.2       0.0       0.0       0.0
 6 H  s               1.0       0.3       2.2       0.2       1.4       0.0
 7 C  s               0.7       0.3       0.0       0.0       0.0       0.1
 7 C  pz              1.5       2.3       0.0       4.5       0.1       2.0
 7 C  px              1.6       0.5       1.1       4.2       3.7       0.7
 7 C  py              0.8       1.3       4.9       1.3      10.3       2.6
 7 C  dxy             0.1       0.0       0.0       0.1       0.1       0.0
 8 C  s               0.9       0.2       0.4       0.0       0.0       0.5
 8 C  pz              0.3       2.2       0.3       2.8       1.8       0.3
 8 C  px              1.0       0.2       0.0       0.7       1.2       1.1
 8 C  py              2.3       2.0       1.0       0.0       0.4       7.1
 8 C  dxy             0.1       0.0       0.0       0.0       0.1       0.0
 9 C  s               0.0       0.1       0.2       0.0       0.0       0.0
 9 C  pz              0.6       3.9       0.1       3.8       0.6       0.9
 9 C  px              2.2       1.1       1.8       0.1       4.2       0.6
 9 C  py              5.9       0.0       2.7       0.7       0.9       0.4
 9 C  dxz             0.0       0.0       0.0       0.1       0.0       0.0
10 C  s               0.0       0.2       0.0       0.1       0.0       0.0
10 C  pz              1.3       1.0       0.0       0.9       3.3       0.9
10 C  px              2.1       3.7       4.4       7.3       4.7       0.3
10 C  py              7.1       0.0       1.9       0.7       2.3       2.8
11 C  s               0.0       0.0       0.2       0.0       0.2       0.0
11 C  pz              0.2       5.4       0.7      15.1       0.0       1.0
11 C  px              1.0       0.1       5.8       0.0       4.3       1.1
11 C  py              3.4       0.5       0.0       0.9       0.3       0.3
12 H  s               0.9       1.4       8.6       3.1       0.1       5.0
13 H  s               5.3       0.0       0.6       0.9       0.1       7.6
14 H  s               0.1      10.5       1.4       3.0       3.4       1.7
15 H  s               0.0       0.1       0.8       2.1       6.0       0.1
16 H  s               2.4       2.1       3.0       0.1       7.4       2.2
17 H  s               0.3       0.5       0.6       2.2       1.6       0.0
18 H  s               1.4       1.3       0.1       1.1       1.0       0.1
19 H  s               0.8       0.3       0.1       0.6       0.7       3.1
20 H  s               2.0       0.1       0.8       0.9       0.1       0.1
21 H  s               3.3       0.1       0.3       0.2       2.0       0.1
22 H  s               2.4       0.4       0.5       0.0       1.3       1.7
23 H  s               0.0       1.5       2.3       4.2       2.1       0.5
24 H  s               0.9       1.0       0.7       3.2       1.1       0.8
25 H  s               0.0       1.9       1.9       5.5       0.3       0.1
26 H  s               1.5       0.2       0.0       0.6       0.2       0.3

                     30        31        32        33        34        35   
                  -0.34858  -0.34474  -0.33658  -0.33102  -0.32530  -0.30454
                   2.00000   2.00000   2.00000   2.00000   2.00000   2.00000
                  --------  --------  --------  --------  --------  --------
 0 C  s               0.0       0.0       0.0       0.1       0.0       0.0
 0 C  pz              1.0       0.4       1.7       3.4       0.4       0.0
 0 C  px              1.8       1.0       2.4       4.4       0.5       0.2
 0 C  py             10.8       5.6       0.0       0.0       0.7       0.6
 0 C  dxz             0.1       0.0       0.1       0.0       0.0       0.0
 0 C  dyz             0.1       0.1       0.0       0.0       0.1       0.0
 1 C  pz              0.3       0.1       0.4       1.7       0.3       0.2
 1 C  px              1.1       0.3       1.0       4.9       0.4       0.1
 1 C  py              0.0       0.1       0.0       0.1       0.9       3.7
 1 C  dx2y2           0.1       0.0       0.0       0.2       0.0       0.1
 2 C  s               0.2       0.0       0.0       0.0       0.0       0.1
 2 C  pz              0.8       1.0       3.4       0.2       4.2       0.0
 2 C  px              5.9       1.2       0.1       0.1       1.2       0.8
 2 C  py              1.8       0.4       0.0       1.1       0.1       2.2
 2 C  dx2y2           0.3       0.0       0.0       0.1       0.0       0.0
 3 C  s               0.3       0.0       0.1       0.3       0.0       0.1
 3 C  pz              1.7       0.7       3.1       1.6      14.0       0.1
 3 C  px              3.6       2.7       2.6       0.4       2.6       0.3
 3 C  py              3.1       0.2       0.3       3.9       1.1       1.0
 3 C  dyz             0.0       0.0       0.1       0.0       0.3       0.0
 3 C  dx2y2           0.0       0.0       0.0       0.0       0.1       0.1
 3 C  dxy             0.0       0.0       0.0       0.1       0.0       0.2
 4 O  s               3.9       0.0       0.0       1.8       0.1       0.5
 4 O  pz              1.4       0.9       3.5       1.7      18.9       0.6
 4 O  px              0.5       0.8       1.9       1.4       5.8       0.3
 4 O  py             14.3       0.9       0.2       8.1       0.1       4.4
 4 O  dyz             0.0       0.0       0.0       0.0       0.1       0.0
 5 C  s               0.3       0.6       0.0       0.4       0.0       0.0
 5 C  pz              0.0       2.3       0.5       1.0       0.1       0.1
 5 C  px              0.3       0.2       0.2       2.6       0.2       4.4
 5 C  py              1.1       0.3       0.6       2.3       0.3       4.2
 5 C  dxz             0.0       0.0       0.0       0.0       0.0       0.1
 6 H  s               0.0       0.7       0.1       1.4       0.0       2.1
 7 C  s               0.2       0.1       0.0       0.2       0.0       0.0
 7 C  pz              0.1      11.3       3.9       0.0       1.6       0.3
 7 C  px              2.8       0.1       0.2       2.3       0.1       0.9
 7 C  py              0.0       0.9       2.0       0.0       0.1      10.2
 7 C  dxz             0.0       0.1       0.0       0.0       0.0       0.2
 8 C  pz              0.6       8.1       4.0       1.0       0.8       0.7
 8 C  px              5.7       0.2       0.1       6.0       0.1       0.9
 8 C  py              3.8       0.8       0.2       0.5       0.4       6.6
 8 C  dxz             0.1       0.1       0.0       0.0       0.0       0.2
 8 C  dyz             0.1       0.0       0.0       0.1       0.0       0.1
 8 C  dxy             0.0       0.1       0.0       0.0       0.0       0.1
 9 C  s               0.1       0.4       0.0       0.1       0.1       0.0
 9 C  pz              0.4       2.4       0.0       0.0       0.1       0.3
 9 C  px              0.0       0.1       1.8       3.1       0.1       0.9
 9 C  py              0.2       0.4       0.1       0.5       0.1       3.4
 9 C  dxz             0.0       0.1       0.0       0.1       0.0       0.0
 9 C  dyz             0.0       0.0       0.1       0.0       0.1       0.1
 9 C  dx2y2           0.0       0.0       0.0       0.0       0.0       0.1
10 C  s               0.0       0.0       0.1       0.0       0.2       0.0
10 C  pz              0.6       7.5       0.6       0.5       2.7       0.1
10 C  px              0.4       4.7       2.3       0.7       5.0       3.8
10 C  py              2.6       2.1       8.4       0.0      12.9       3.1
10 C  dxz             0.0       0.1       0.1       0.0       0.1       0.0
10 C  dyz             0.0       0.0       0.0       0.0       0.1       0.1
10 C  dx2y2           0.0       0.0       0.1       0.0       0.1       0.1
10 C  dxy             0.0       0.1       0.0       0.0       0.0       0.1
11 C  pz              0.2       0.2       0.4      13.2       0.1       5.8
11 C  px              0.8       2.3       1.7       4.8       0.4       0.1
11 C  py              1.1       4.7      19.1       1.1       1.7       6.2
11 C  dxz             0.0       0.0       0.0       0.3       0.0       0.2
11 C  dx2y2           0.0       0.0       0.2       0.0       0.0       0.2
12 H  s               2.0       3.0       0.4       0.4       0.9       0.3
13 H  s               4.6       2.2       0.1       1.6       0.3       0.3
14 H  s               3.0       0.2       2.4       0.0       0.4       0.2
15 H  s               4.5       1.3       0.5       0.2       0.2       0.6
16 H  s               0.4       0.0       0.5       0.1       0.0       2.9
17 H  s               0.4       5.2       3.5       0.7       1.1       1.2
18 H  s               0.3       4.7       2.4       2.2       0.0       1.6
19 H  s               5.6       0.2       0.3       2.7       0.2       2.5
20 H  s               0.1       0.1       0.2       0.0       0.0       2.2
21 H  s               0.1       4.4       4.0       0.4       8.8       0.1
22 H  s               1.6       1.9       4.3       0.0       6.0       2.2
23 H  s               1.0       3.4       0.0       0.2       0.1       4.5
24 H  s               0.6       0.9       2.9       8.2       0.4       4.1
25 H  s               0.0       1.0       0.3       3.6       0.1       2.2
26 H  s               0.5       2.9       9.8       0.3       1.2       3.1

                     36        37        38        39        40        41   
                  -0.29776  -0.29024  -0.27702  -0.27169  -0.23298  -0.18226
                   2.00000   2.00000   2.00000   2.00000   2.00000   2.00000
                  --------  --------  --------  --------  --------  --------
 0 C  s               0.2       0.0       0.2       0.0       0.0       0.1
 0 C  pz              1.2       0.0       0.2       0.1       1.3       0.1
 0 C  px              3.0       0.1       1.3       0.1       0.3       0.4
 0 C  py              0.7       0.1       0.0       0.0       0.0       0.1
 0 C  dxz             0.0       0.0       0.0       0.0       0.3       0.0
 0 C  dyz             0.1       0.0       0.0       0.0       0.1       0.0
 0 C  dx2y2           0.0       0.0       0.0       0.0       0.1       0.0
 0 C  dxy             0.1       0.0       0.0       0.0       0.0       0.0
 1 C  s               0.0       0.0       0.0       0.0       0.0       0.2
 1 C  pz              2.2       0.1       0.2       0.0      20.9       0.1
[...]
 1 C  s               0.0       0.9       0.5       0.0       0.3       0.0
 1 C  pz              0.0       0.1       0.0       0.0       0.0       0.0
 1 C  px              0.1       0.1       0.4       0.0       0.1       0.0
 1 C  py              0.1       3.2       0.4       0.0       0.4       0.0
 1 C  dz2             0.4       1.9       0.7       0.0       0.1       0.0
 1 C  dxz             0.8       0.2       1.4       0.0       0.1       0.1
 1 C  dyz             0.1       4.9       3.1       0.0       0.0       0.0
 1 C  dx2y2           5.9       0.0      19.3       0.0       0.3       0.3
 1 C  dxy             0.3      28.1       1.8       0.0       0.6       0.0
 2 C  s               0.1       1.8       2.0       0.0       0.2       0.0
 2 C  pz              0.0       0.0       0.0       0.0       0.1       0.0
 2 C  px              0.4       0.7       0.0       0.0       0.9       0.0
 2 C  py              0.4       2.8       0.1       0.0       0.2       0.1
 2 C  dz2             0.0       1.5       1.4       0.2       0.1       0.0
 2 C  dxz             0.4       0.9       1.1       0.1       0.8       0.0
 2 C  dyz             0.0       0.4       3.5       0.1       0.1       0.2
 2 C  dx2y2           0.5      11.1       4.3       0.0       3.0       0.0
 2 C  dxy             0.4       1.5      17.7       0.0       1.8       0.9
 3 C  s               0.1       0.1       1.7       0.0       0.0       6.3
 3 C  pz              0.0       0.1       0.1       0.8       0.1       0.0
 3 C  px              0.0       0.9       0.4       0.1       0.4       1.1
 3 C  py              0.2       0.0       0.1       0.0       0.1       5.5
 3 C  dz2             3.2       0.1       0.1       0.0       0.0       1.3
 3 C  dxz             0.2       0.3       3.5       2.5       0.6       0.0
 3 C  dyz             0.1       0.0       0.4      13.2       3.9       0.0
 3 C  dx2y2           0.2       0.7       6.7       1.5      11.1       2.4
 3 C  dxy             1.5       0.6       3.6       1.4      11.3       3.7
 4 O  s               0.0       0.1       1.1       0.0       0.0       6.6
 4 O  pz              0.0       0.0       0.0       1.1       0.2       0.0
 4 O  px              0.0       0.1       0.1       0.2       1.1       0.6
 4 O  py              0.0       0.1       0.6       0.0       0.1       3.5
 4 O  dz2            19.3       1.7       3.6       0.1       0.1      15.6
 4 O  dxz             2.9       1.1       1.4      10.0       2.0       0.0
 4 O  dyz             0.1       1.7       0.2      54.3       7.2       0.0
 4 O  dx2y2           4.5       2.2       0.8       5.9      23.3      25.4
 4 O  dxy             3.5       3.5       0.2       6.6      24.4      25.2
 5 C  s               0.1       0.0       0.1       0.0       0.2       0.0
 5 C  pz              0.4       0.0       0.0       0.0       0.2       0.0
 5 C  px              1.8       0.0       0.0       0.0       0.1       0.1
 5 C  py              0.3       0.1       0.1       0.0       0.3       0.1
 5 C  dz2             3.7       0.0       0.2       0.3       0.0       0.0
 5 C  dxz             3.7       0.0       0.2       0.4       0.4       0.0
 5 C  dyz             4.7       0.2       0.7       0.0       0.2       0.0
 5 C  dx2y2           2.5       1.7       2.8       0.1       0.2       0.3
 5 C  dxy             2.7       0.0       0.1       0.1       2.6       0.0
 7 C  s               0.0       0.3       0.0       0.1       0.0       0.0
 7 C  pz              0.0       0.2       0.0       0.0       0.0       0.0
 7 C  px              0.8       0.2       0.1       0.0       0.1       0.0
 7 C  py              0.3       0.1       0.0       0.0       0.0       0.0
 7 C  dz2             0.1       0.1       0.2       0.0       0.0       0.0
 7 C  dxz             3.3       1.2       0.2       0.0       0.1       0.0
 7 C  dyz             2.8       0.5       0.2       0.0       0.0       0.0
 7 C  dx2y2           0.1       1.1       0.1       0.0       0.0       0.0
 7 C  dxy             0.1       0.4       1.0       0.0       0.1       0.0
 8 C  s               0.3       0.1       0.3       0.0       0.0       0.0
 8 C  pz              0.0       0.7       0.1       0.0       0.0       0.0
 8 C  px              0.2       0.6       0.2       0.0       0.0       0.0
 8 C  py              0.0       0.7       0.2       0.0       0.0       0.0
 8 C  dz2             0.2       0.7       0.1       0.0       0.0       0.0
 8 C  dxz             3.7       1.1       1.2       0.0       0.0       0.0
 8 C  dyz             0.0       2.2       0.8       0.0       0.0       0.0
 8 C  dx2y2           2.2       4.8       0.4       0.0       0.0       0.0
 8 C  dxy             0.2       2.9       3.2       0.0       0.0       0.0
 9 C  s               0.2       0.0       0.0       0.0       0.0       0.0
 9 C  pz              0.5       0.0       0.0       0.0       0.0       0.0
 9 C  px              1.1       0.0       0.0       0.0       0.0       0.0
 9 C  dz2             1.0       0.0       0.1       0.2       0.0       0.0
 9 C  dxz             6.2       0.1       0.0       0.0       0.0       0.0
 9 C  dyz             0.8       0.1       0.1       0.0       0.0       0.0
 9 C  dxy             4.0       0.0       0.0       0.0       0.0       0.0
10 C  dz2             0.2       0.0       0.0       0.0       0.0       0.0
11 C  s               0.3       0.0       0.0       0.0       0.0       0.0
11 C  px              0.4       0.0       0.0       0.0       0.0       0.0
11 C  dz2             0.5       0.0       0.0       0.0       0.0       0.0
11 C  dx2y2           0.9       0.0       0.0       0.0       0.0       0.0
11 C  dxy             0.7       0.0       0.0       0.0       0.0       0.0
15 H  s               0.0       0.0       0.9       0.0       0.0       0.0
19 H  s               0.1       0.0       0.1       0.0       0.0       0.0



                      *****************************
                      * MAYER POPULATION ANALYSIS *
                      *****************************

  NA   - Mulliken gross atomic population
  ZA   - Total nuclear charge
  QA   - Mulliken gross atomic charge
  VA   - Mayer's total valence
  BVA  - Mayer's bonded valence
  FA   - Mayer's free valence

  ATOM       NA         ZA         QA         VA         BVA        FA
  0 C      6.2169     6.0000    -0.2169     3.9285     3.9285     0.0000
  1 C      6.0724     6.0000    -0.0724     4.1260     4.1260     0.0000
  2 C      6.1396     6.0000    -0.1396     3.8029     3.8029    -0.0000
  3 C      5.9295     6.0000     0.0705     4.2779     4.2779     0.0000
  4 O      8.1803     8.0000    -0.1803     2.2969     2.2969     0.0000
  5 C      6.1262     6.0000    -0.1262     3.9040     3.9040     0.0000
  6 H      0.9248     1.0000     0.0752     0.9758     0.9758     0.0000
  7 C      6.1098     6.0000    -0.1098     4.0951     4.0951    -0.0000
  8 C      6.1126     6.0000    -0.1126     4.0104     4.0104    -0.0000
  9 C      6.1596     6.0000    -0.1596     4.2391     4.2391    -0.0000
 10 C      6.2570     6.0000    -0.2570     3.9763     3.9763    -0.0000
 11 C      6.2440     6.0000    -0.2440     3.9726     3.9726     0.0000
 12 H      0.8839     1.0000     0.1161     0.9555     0.9555    -0.0000
 13 H      0.8869     1.0000     0.1131     0.9650     0.9650    -0.0000
 14 H      0.8769     1.0000     0.1231     0.9534     0.9534    -0.0000
 15 H      0.9565     1.0000     0.0435     0.9857     0.9857    -0.0000
 16 H      0.9190     1.0000     0.0810     0.9522     0.9522    -0.0000
 17 H      0.9073     1.0000     0.0927     0.9438     0.9438    -0.0000
 18 H      0.8904     1.0000     0.1096     0.9554     0.9554     0.0000
 19 H      0.9066     1.0000     0.0934     0.9537     0.9537     0.0000
 20 H      0.9321     1.0000     0.0679     0.9490     0.9490     0.0000
 21 H      0.8994     1.0000     0.1006     0.9561     0.9561     0.0000
 22 H      0.8776     1.0000     0.1224     0.9664     0.9664     0.0000
 23 H      0.8970     1.0000     0.1030     0.9625     0.9625     0.0000
 24 H      0.9059     1.0000     0.0941     0.9565     0.9565     0.0000
 25 H      0.9038     1.0000     0.0962     0.9545     0.9545    -0.0000
 26 H      0.8841     1.0000     0.1159     0.9846     0.9846     0.0000

  Mayer bond orders larger than 0.100000
B(  0-C ,  1-C ) :   1.1269 B(  0-C , 12-H ) :   0.9288 B(  0-C , 13-H ) :   0.9421 
B(  0-C , 14-H ) :   0.9219 B(  1-C ,  2-C ) :   1.7113 B(  1-C ,  8-C ) :   1.0733 
B(  2-C ,  3-C ) :   1.0626 B(  2-C , 15-H ) :   0.9352 B(  3-C ,  4-O ) :   2.0744 
B(  3-C ,  5-C ) :   0.9713 B(  5-C ,  6-H ) :   0.8704 B(  5-C ,  7-C ) :   1.0671 
B(  5-C ,  9-C ) :   0.9906 B(  7-C ,  8-C ) :   1.1250 B(  7-C , 16-H ) :   0.9052 
B(  7-C , 17-H ) :   0.9206 B(  8-C , 18-H ) :   0.8701 B(  8-C , 19-H ) :   0.9043 
B(  9-C , 10-C ) :   1.1376 B(  9-C , 11-C ) :   1.1155 B(  9-C , 20-H ) :   0.9027 
B( 10-C , 21-H ) :   0.9443 B( 10-C , 22-H ) :   0.9272 B( 10-C , 23-H ) :   0.9379 
B( 11-C , 24-H ) :   0.9473 B( 11-C , 25-H ) :   0.9469 B( 11-C , 26-H ) :   0.9395 


-------
TIMINGS
-------

Total SCF time: 0 days 0 hours 0 min 8 sec 

Total time                  ....       8.180 sec
Sum of individual times     ....       7.819 sec  ( 95.6%)

SCF preparation             ....       0.151 sec  (  1.8%)
Fock matrix formation       ....       7.011 sec  ( 85.7%)
  Startup                   ....       0.051 sec  (  0.7% of F)
  Split-RI-J                ....       3.094 sec  ( 44.1% of F)
  XC integration            ....       3.480 sec  ( 49.6% of F)
    XC Preparation          ....       0.000 sec  (  0.0% of XC)
    Basis function eval.    ....       1.192 sec  ( 34.2% of XC)
    Density eval.           ....       0.585 sec  ( 16.8% of XC)
    XC-Functional eval.     ....       0.241 sec  (  6.9% of XC)
    XC-Potential eval.      ....       0.838 sec  ( 24.1% of XC)
Diagonalization             ....       0.000 sec  (  0.0%)
Density matrix formation    ....       0.147 sec  (  1.8%)
Total Energy calculation    ....       0.024 sec  (  0.3%)
Population analysis         ....       0.096 sec  (  1.2%)
Orbital Transformation      ....       0.048 sec  (  0.6%)
Orbital Orthonormalization  ....       0.000 sec  (  0.0%)
DIIS solution               ....       0.263 sec  (  3.2%)
  MO trafo                  ....       0.000 sec  (  0.0 % of DIIS)
  Orb grad                  ....       0.000 sec  (  0.0 % of DIIS)
  Energy W gradient         ....       0.000 sec  (  0.0 % of DIIS)
  DIIS error                ....       0.005 sec  (  1.8 % of DIIS)
  DIIS work                 ....       0.223 sec  ( 84.5 % of DIIS)
  Form Q                    ....       0.000 sec  (  0.0 % of DIIS)
  Form QpQm                 ....       0.000 sec  (  0.0 % of DIIS)
  Exp/Cayley                ....       0.000 sec  (  0.0 % of DIIS)
  Orb update                ....       0.000 sec  (  0.0 % of DIIS)
  Wake-sleep                ....       0.012 sec  (  4.7 % of DIIS)
SOSCF solution              ....       0.080 sec  (  1.0%)
  MO trafo                  ....       0.040 sec  ( 50.8 % of SOSCF)
  Orb grad                  ....       0.001 sec  (  1.4 % of SOSCF)
  Rot update                ....       0.019 sec  ( 24.4 % of SOSCF)
  Step                      ....       0.018 sec  ( 23.3 % of SOSCF)
Finished LeanSCF after   8.3 sec

Maximum memory used throughout the entire LEANSCF-calculation: 18.8 MB


-------------------------------------------------------------------------------
                          DFT DISPERSION CORRECTION                            
                                                                               
                                DFTD4 V3.4.0                                   
-------------------------------------------------------------------------------
The PBE functional is recognized
Active option DFTDOPT                   ...         5   

-------------------------   ----------------
Dispersion correction           -0.029523382
-------------------------   ----------------

------------------   -----------------
gCP correction             0.114066039
------------------   -----------------

-------------------------   --------------------
FINAL SINGLE POINT ENERGY      -464.841362229710
-------------------------   --------------------


------------------------------------------------------------------------------
                              ORCA PROPERTY CALCULATIONS
------------------------------------------------------------------------------

GBWName                                 ... sp.gbw
Number of atoms                         ...     27
Number of basis functions               ...    186
Max core memory                         ...   1024 MB

Electric properties:
Dipole moment                           ... YES
Quadrupole moment                       ...  NO
Static polarizability (Dipole/Dipole)   ...  NO
Static polarizability (Dipole/Quad.)    ...  NO
Static polarizability (Quad./Quad.)     ...  NO
Static polarizability (Velocity)        ...  NO

Atomic electric properties:
Dipole moment                           ...  NO
Quadrupole moment                       ...  NO
Static polarizability                   ...  NO

Choice of electric origin               ... Center of mass
Position of electric origin             ...     0.000001    -0.000022     0.000006

General magnetic properties:
Magnetizability                         ...  NO

EPR properties:
g-Tensor (aka g-matrix)                 ...  NO
Zero-Field splitting spin-orbit         ...  NO
Zero-field splitting spin-spin          ...  NO
Hyperfine couplings                     ...  NO (   0 nuclei)
Quadrupole couplings                    ...  NO (   0 nuclei)
Contact density                         ...  NO (   0 nuclei)

NMR properties:
Chemical shifts                         ...  NO (   0 nuclei)
Spin-rotation constants                 ...  NO (   0 nuclei)
Spin-spin couplings                     ...  NO (   0 nuclei,    0 pairs)

Choice of magnetic origin               ... GIAO
Position of magnetic origin             ...     0.000000     0.000000     0.000000

Properties with geometric perturbations:
SCF Hessian                             ...  NO
IR spectrum                             ...  NO
VCD spectrum                            ...  NO
X-ray spectroscopy properties:
SCF XES/XAS/RIXS spectra                ...  NO


-------------
DIPOLE MOMENT
-------------

Method             : SCF
Type of density    : Electron Density
Multiplicity       :   1
Irrep              :   0
Energy             :  -464.9259048867224919 Eh
Relativity type    : 
Basis              : AO
                                X                 Y                 Z
Electronic contribution:      2.266992135       6.418041190      -3.241122591
Nuclear contribution   :     -1.536343708      -7.761345288       3.372857865
                        -----------------------------------------
Total Dipole Moment    :      0.730648427      -1.343304098       0.131735274
                        -----------------------------------------
Magnitude (a.u.)       :      1.534818297
Magnitude (Debye)      :      3.901198079



--------------------
Rotational spectrum 
--------------------
 
Rotational constants in cm-1:             0.058646             0.027610             0.024857 
Rotational constants in MHz :          1758.157746           827.729177           745.189917 

Dipole components along the rotational axes: 
x,y,z [a.u.] :    -0.944711    -1.203860     0.117938 
x,y,z [Debye]:    -2.401264    -3.059970     0.299776 

 

Dipole moment calculation done in   0.0 sec 

Maximum memory used throughout the entire PROP-calculation: 12.0 MB

--------------------------------
SUGGESTED CITATIONS FOR THIS RUN
--------------------------------

Below you find a list of papers that are relevant to this ORCA run
We neither can nor want to force you to cite these papers, but we appreciate if you do
You receive ORCA, which is the product of decades of hard work by many enthusiastic individuals, for free
The only thing we kindly ask in return is that you cite our papers,
We deeply appreciate it, if you show your appreciation for ORCA by not just citing the generic ORCA reference.

Please note that relegating all ORCA citations to the supporting information does *not* help us.
SI sections are not indexed - citations you put there will not count into any citation statistics
But we need these citations in order to attract the funding resources that allow us to do what we are doing

Therefore, if you are a happy ORCA user, please consider citing a few of the papers listed below in the main body of your paper

In addition to the list printed below, the program has created the file sp.bibtex that contains the list in bibtex format
You can import this file easily into all common literature databanks and citation aid programs


List of essential papers. We consider these as the minimum necessary citations

  1. Neese,F.
     Software update: the ORCA program system, version 5.0
     WIRES Comput. Molec. Sci., 2022 12(1)e1606
     doi.org/10.1002/wcms.1606

List of papers to cite with high priority. The work reported in these papers was absolutely
necessary for this run to complete.
Our perspective: the developers of density functionals and basis sets usually get cited in chemistry papers
Good! But without the algorithms to do something with them, the functionals or basis sets would not do anything.
Hence, in our opinion, the algorithm design and method developments papers are equally worthy of getting cited

  1. Neese,F.
     An improvement of the resolution of the identity approximation for the formation of the Coulomb matrix
     J. Comp. Chem., 2003 24(14)1740-1747
     doi.org/10.1002/jcc.10318
  2. Neese,F.
     The SHARK Integral Generation and Digestion System
     J. Comp. Chem., 2022  1-16
     doi.org/10.1002/jcc.26942
  3. Caldeweyher,E.; Bannwarth,C.; Grimme,S.
     Extension of the D3 dispersion coefficient model
     J. Chem. Phys., 2017 147 034112-XXXX
     doi.org/10.1063/1.4993215
  4. Caldeweyher,E.; Ehlert,S.; Hansen,A.; Neugebauer,H.; Spicher,S.; Bannwarth,C.; Grimme,S.
     A generally applicable atomic-charge dependent London dispersion correction
     J. Chem. Phys., 2019 150 154122-XXXX
     doi.org/10.1063/1.5090222
  5. Caldeweyher,E.; Mewes,J.; Ehlert,S.; Grimme,S.
     Extension and evaluation of the D4 London-dispersion model for periodic systems
     Phys. Chem. Chem. Phys., 2020 22(16)8499-8512
     doi.org/10.1039/D0CP00502A

List of suggested additional citations. These are papers that are important in the 'surrounding' of 
of this run, or papers that preceded the highly important papers. If you like your results we are grateful for a citation.

  1. Neese,F.
     The ORCA program system
     WIRES Comput. Molec. Sci., 2012 2(1)73-78
     doi.org/10.1002/wcms.81
  2. Neese,F.
     Software update: the ORCA program system, version 4.0
     WIRES Comput. Molec. Sci., 2018 8(1)1-6
     doi.org/10.1002/wcms.1327
  3. Neese,F.; Wennmohs,F.; Becker,U.; Riplinger,C.
     The ORCA quantum chemistry program package
     J. Chem. Phys., 2020 152 Art. No. L224108
     doi.org/10.1063/5.0004608

List of optional additional citations

  1. Neese,F.
     Approximate second-order SCF convergence for spin unrestricted wavefunctions
     Chem. Phys. Lett., 2000 325(1-3)93-98
     doi.org/10.1016/s0009-2614(00)00662-x

Timings for individual modules:

Sum of individual times          ...       10.290 sec (=   0.171 min)
Startup calculation              ...        0.938 sec (=   0.016 min)   9.1 %
SCF iterations                   ...        9.224 sec (=   0.154 min)  89.6 %
Property calculations            ...        0.128 sec (=   0.002 min)   1.2 %
                             ****ORCA TERMINATED NORMALLY****
TOTAL RUN TIME: 0 days 0 hours 0 minutes 10 seconds 948 msec
