19
 energy: -26.295371639870 gnorm: 0.023536448701 xtb: 6.7.1 (edcfbbe)
C           -2.99480784572765        0.64624634132088       -0.75473601741299
C           -2.27184274100405        0.36311920137580        0.56742753994968
C           -0.85047499911065       -0.08037087393151        0.33841921276486
C           -0.54798710483675       -1.43317798275594        0.14455607049003
C            0.75964768661962       -1.82744491005103       -0.12429944843260
C            1.78492119990698       -0.88909043579691       -0.20440212257803
C            1.48174808602759        0.45812637178485       -0.01050093236100
C            0.17537135229410        0.86268063990941        0.25887707963854
O            2.44730017555320        1.44124354485211       -0.07218325249485
H           -2.48427367940040        1.43698886231062       -1.31437191046103
H           -4.02577362896968        0.96660510373362       -0.57392287272218
H           -3.02089838282840       -0.25023487005300       -1.38306935947442
H           -2.81192259640817       -0.41599781994869        1.11629491542158
H           -2.27940103771205        1.26691556057196        1.18623239745319
H           -1.33930607570276       -2.17464635554168        0.20633963478203
H            0.99020678425912       -2.87849352635112       -0.27011616222800
H            2.80759172314383       -1.19215094495341       -0.41082157509270
H           -0.03465236322913        1.91851218881476        0.40677623380306
H            3.30232005100120        1.03151350719721       -0.26573295882503
19
 energy: -26.296281367305 gnorm: 0.010052117456 xtb: 6.7.1 (edcfbbe)
C           -2.98555777266132        0.64258732823355       -0.75143170554673
C           -2.26826714264127        0.36039687735682        0.56931485045242
C           -0.85112860955986       -0.07933076538565        0.32609228219114
C           -0.54676100860177       -1.42441446402543        0.13755117254321
C            0.75411141000608       -1.81863214761312       -0.12193241067987
C            1.77306512135766       -0.88426102134310       -0.20027145831990
C            1.47569613225658        0.45961404172382       -0.01016933230110
C            0.17006949511425        0.85795966370651        0.25093727028142
O            2.43838576522571        1.43447421287514       -0.07188671395567
H           -2.47310129455271        1.42926973246804       -1.30380696319988
H           -4.01017890808490        0.96110946097764       -0.56549178595011
H           -3.00802038505884       -0.25149786469615       -1.37325485935481
H           -2.80817334135887       -0.41995343995114        1.11145352292662
H           -2.27348314843732        1.26584137386381        1.18093815559984
H           -1.33278480988365       -2.16364512916757        0.19956986334139
H            0.98255553029522       -2.86546504446609       -0.26717837389833
H            2.78908686167800       -1.19213817061450       -0.40570285636712
H           -0.03511355816963        1.90855959022479        0.39838130698723
H            3.29736626695259        1.02986936832056       -0.26234549252959
19
 energy: -26.296377310561 gnorm: 0.004000129653 xtb: 6.7.1 (edcfbbe)
C           -2.98148312117568        0.64103576082496       -0.75092883913270
C           -2.26683760254302        0.35966912229385        0.57180875799139
C           -0.85118518313597       -0.07957096129368        0.32797305508448
C           -0.54793226979047       -1.42226591906250        0.13672949124966
C            0.75058729441605       -1.81627116608687       -0.12416400368721
C            1.76755175129922       -0.88195260875298       -0.20091730097537
C            1.47380914597870        0.46229201789280       -0.01290862874358
C            0.16752337907701        0.85648652474662        0.24947400396128
O            2.43380984472167        1.43214558599105       -0.07243091923063
H           -2.46569071244686        1.42533327219208       -1.29956353568797
H           -4.00453481913559        0.95914309328572       -0.56746594071049
H           -2.99988948242510       -0.25303003638455       -1.36934122940414
H           -2.80557149102612       -0.42107623783469        1.11165895039836
H           -2.27076048121129        1.26484900744031        1.18132203035829
H           -1.33316516924241       -2.16046238890578        0.19591286791502
H            0.97855691056726       -2.86184013024425       -0.26715513575802
H            2.78164447471644       -1.19368821577266       -0.40251693802756
H           -0.03506004997842        1.90636673231565        0.39388614962930
H            3.29639418521053        1.03318014984283       -0.26060636300997
19
 energy: -26.296391563063 gnorm: 0.001366804865 xtb: 6.7.1 (edcfbbe)
C           -2.97954252662436        0.64052898594185       -0.75103323627794
C           -2.26699590724886        0.35972588654552        0.57368432470170
C           -0.85173543310867       -0.07964760774159        0.32867285402275
C           -0.54931890613277       -1.42254933158886        0.13651390577336
C            0.74945924948181       -1.81659704451734       -0.12435802896783
C            1.76625193123959       -0.88165293456263       -0.20033753401206
C            1.47413563853701        0.46346099142473       -0.01284133137346
C            0.16668638180761        0.85632316072148        0.24929936657272
O            2.43205856637692        1.43200066159253       -0.07380470979756
H           -2.46177218605053        1.42425905234717       -1.29847306903230
H           -4.00276818090006        0.95864954439054       -0.56976800488914
H           -2.99589313654823       -0.25430016123071       -1.36828297173852
H           -2.80587077572708       -0.42103721414210        1.11295399968427
H           -2.27100222198604        1.26499274270248        1.18268166831025
H           -1.33487257945493       -2.16058846147481        0.19540667919964
H            0.97716695567172       -2.86183724495450       -0.26922124760559
H            2.77988709473766       -1.19493680058771       -0.40258151535889
H           -0.03488047910613        1.90673041759949        0.39302652673949
H            3.29677311891127        1.03681896002238       -0.26077120373075
19
 energy: -26.296394754797 gnorm: 0.000927759803 xtb: 6.7.1 (edcfbbe)
C           -2.97766775033047        0.64014571435952       -0.75145077955856
C           -2.26736867524168        0.35998829790501        0.57523645147970
C           -0.85194302165957       -0.07997473417333        0.33135370585414
C           -0.55056143785055       -1.42345153184673        0.13772617903675
C            0.74840424060611       -1.81723286712928       -0.12525165797050
C            1.76528022051090       -0.88177723151550       -0.20135424823324
C            1.47466163941703        0.46405454870211       -0.01321193174081
C            0.16645738944317        0.85597612356450        0.25084249482898
O            2.43054366773198        1.43231404433661       -0.07528471211416
H           -2.45796195023365        1.42349602394824       -1.29817652160134
H           -4.00167416187890        0.95849957176939       -0.57356664979739
H           -2.99203092751051       -0.25555480866220       -1.36802964629219
H           -2.80739639162228       -0.42028689959478        1.11423061038696
H           -2.27231182836669        1.26558875459305        1.18384321631285
H           -1.33676336104180       -2.16132460240891        0.19662550454747
H            0.97626789405956       -2.86247430482215       -0.27149790338994
H            2.77895609006696       -1.19628238594532       -0.40412336874129
H           -0.03452365763348        1.90709908077557        0.39447161931016
H            3.29739862540986        1.04154080863211       -0.26161589009744
19
 energy: -26.296395553380 gnorm: 0.000179330587 xtb: 6.7.1 (edcfbbe)
C           -2.97741835217119        0.64009769051772       -0.75161861137622
C           -2.26741594841629        0.36002822302634        0.57495186032897
C           -0.85194802350508       -0.07996820000537        0.33129188533944
C           -0.55038697680365       -1.42339447796870        0.13802808272031
C            0.74844248290333       -1.81712835870536       -0.12490279954701
C            1.76533587607876       -0.88190080088459       -0.20157127160080
C            1.47444244570312        0.46361470063791       -0.01294464589210
C            0.16655911884595        0.85586354629414        0.25130119772440
O            2.43055194835248        1.43243156738655       -0.07519871896925
H           -2.45811057661045        1.42355272741151       -1.29855818182415
H           -4.00139557411285        0.95844245338688       -0.57354859483493
H           -2.99214892512276       -0.25540380718325       -1.36845651765538
H           -2.80761143529517       -0.42014448146668        1.11406000837249
H           -2.27238627126280        1.26571387493736        1.18356091661120
H           -1.33645429533818       -2.16125002995548        0.19737322838991
H            0.97631414728637       -2.86236127784565       -0.27132964511513
H            2.77887843048005       -1.19591788440095       -0.40536581390889
H           -0.03458391239246        1.90674546982806        0.39560990727475
H            3.29710244525678        1.04132266747749       -0.26191581381747
19
 energy: -26.296395700726 gnorm: 0.000060113347 xtb: 6.7.1 (edcfbbe)
C           -2.97688937524419        0.63997044919436       -0.75178909960853
C           -2.26749008370066        0.36007567837594        0.57503328577304
C           -0.85197948782275       -0.08001517099967        0.33190933129599
C           -0.55045067541957       -1.42341496607551        0.13849485807204
C            0.74820555652853       -1.81706574315841       -0.12502647400976
C            1.76509872099684       -0.88187922880229       -0.20214432734144
C            1.47421512128468        0.46348985476216       -0.01297786725849
C            0.16652951942386        0.85576673674000        0.25194590799290
O            2.43025896676134        1.43251957511143       -0.07521962417957
H           -2.45729815457002        1.42333235753910       -1.29856903925366
H           -4.00096739692072        0.95833056660268       -0.57430879148811
H           -2.99126075938300       -0.25559440254324       -1.36851712998108
H           -2.80795185099051       -0.41994984173219        1.11406791030122
H           -2.27260125430404        1.26587760322957        1.18345628945160
H           -1.33649112358815       -2.16123239813573        0.19802357641175
H            0.97609529372485       -2.86229526737351       -0.27139789235012
H            2.77851139542407       -1.19578106362956       -0.40652438545501
H           -0.03459749973118        1.90655604492774        0.39655622961746
H            3.29682969140658        1.04165281845506       -0.26224628577011
19
 energy: -26.296395681515 gnorm: 0.000229831585 xtb: 6.7.1 (edcfbbe)
C           -2.97649443475413        0.63987869432132       -0.75191696601027
C           -2.26753934799447        0.36011080659438        0.57506793004983
C           -0.85199121308414       -0.08005792867773        0.33240426284157
C           -0.55048893335246       -1.42343189420303        0.13886697185082
C            0.74801852826783       -1.81701068634384       -0.12514270576043
C            1.76491158474575       -0.88186553337853       -0.20262471378520
C            1.47403274438767        0.46337857947343       -0.01302474567622
C            0.16651718165033        0.85567882197161        0.25246164339380
O            2.43002801944799        1.43258643966222       -0.07522124081717
H           -2.45668425122899        1.42316314957449       -1.29857645132692
H           -4.00064890926753        0.95825432057697       -0.57487853098581
H           -2.99059267287084       -0.25573286238269       -1.36855809510287
H           -2.80821237670161       -0.41979404592860        1.11404795828558
H           -2.27275790839453        1.26600475313724        1.18334209874038
H           -1.33650630148415       -2.16121366416867        0.19853406029616
H            0.97593459061103       -2.86224225374874       -0.27140344926213
H            2.77822660102058       -1.19567153600653       -0.40742823890243
H           -0.03460522180734        1.90638802464122        0.39730152416951
H            3.29661892468497        1.04192041737339       -0.26248483977806
19
 energy: -26.296395759639 gnorm: 0.000098564661 xtb: 6.7.1 (edcfbbe)
C           -2.97629147745927        0.63981091974290       -0.75197665395419
C           -2.26760640702467        0.36013241738260        0.57527025515912
C           -0.85208173300900       -0.08002795078190        0.33239570033734
C           -0.55057878207925       -1.42343711039036        0.13888220975572
C            0.74799425888094       -1.81704805365067       -0.12501831646508
C            1.76488904142181       -0.88185076011045       -0.20248657163538
C            1.47403715139251        0.46344184842869       -0.01289318536880
C            0.16644319425543        0.85573569815480        0.25246595955709
O            2.42998457743473        1.43261468058868       -0.07533171296474
H           -2.45643274061676        1.42311384551695       -1.29859333129610
H           -4.00047300288796        0.95816888633883       -0.57513961404809
H           -2.99030212577732       -0.25582313758045       -1.36861738724478
H           -2.80829838478321       -0.41978500814329        1.11422937699174
H           -2.27285639864549        1.26603576833967        1.18354464179393
H           -1.33660823902500       -2.16124839293167        0.19861792937510
H            0.97583623667347       -2.86224739442743       -0.27172716959556
H            2.77815746213881       -1.19568227123409       -0.40761587947630
H           -0.03462250891368        1.90648210262619        0.39740334356202
H            3.29657648189987        1.04195751461894       -0.26264312226290
