
                                 *****************
                                 * O   R   C   A *
                                 *****************

                                            #,                                       
                                            ###                                      
                                            ####                                     
                                            #####                                    
                                            ######                                   
                                           ########,                                 
                                     ,,################,,,,,                         
                               ,,#################################,,                 
                          ,,##########################################,,             
                       ,#########################################, ''#####,          
                    ,#############################################,,   '####,        
                  ,##################################################,,,,####,       
                ,###########''''           ''''###############################       
              ,#####''   ,,,,##########,,,,          '''####'''          '####       
            ,##' ,,,,###########################,,,                        '##       
           ' ,,###''''                  '''############,,,                           
         ,,##''                                '''############,,,,        ,,,,,,###''
      ,#''                                            '''#######################'''  
     '                                                          ''''####''''         
             ,#######,   #######,   ,#######,      ##                                
            ,#'     '#,  ##    ##  ,#'     '#,    #''#        ,####,   ,####,        
            ##       ##  ##   ,#'  ##            #'  '#       #'       #'  '#        
            ##       ##  #######   ##           ,######,      #####,   #    #        
            '#,     ,#'  ##    ##  '#,     ,#' ,#      #,     #,   #   #,  ,#        
             '#######'   ##     ##  '#######'  #'      '#     '####' # '####'        



                #########################################################
                #                        -***-                          #
                #          Department of theory and spectroscopy        #
                #                                                       #
                #                      Frank Neese                      #
                #                                                       #
                #     Directorship, Architecture, Infrastructure        #
                #                    SHARK, DRIVERS                     #
                #        Core code/Algorithms in most modules           #
                #                                                       #
                #        Max Planck Institute fuer Kohlenforschung      #
                #                Kaiser Wilhelm Platz 1                 #
                #                 D-45470 Muelheim/Ruhr                 #
                #                      Germany                          #
                #                                                       #
                #                  All rights reserved                  #
                #                        -***-                          #
                #########################################################


                         Program Version 6.0.0  -   RELEASE  -


 With contributions from (in alphabetic order):
   Daniel Aravena         : Magnetic Suceptibility
   Michael Atanasov       : Ab Initio Ligand Field Theory (pilot matlab implementation)
   Alexander A. Auer      : GIAO ZORA, VPT2 properties, NMR spectrum
   Ute Becker             : All parallelization in ORCA, NUMFREQ, NUMCALC
   Giovanni Bistoni       : ED, misc. LED, open-shell LED, HFLD
   Martin Brehm           : Molecular dynamics
   Dmytro Bykov           : pre 5.0 version of the SCF Hessian
   Marcos Casanova-Páez   : Triplet and SCS-CIS(D). UHF-(DLPNO)-IP/EA/STEOM-CCSD. UHF-CVS-IP/STEOM-CCSD
   Vijay G. Chilkuri      : MRCI spin determinant printing, contributions to CSF-ICE
   Pauline Colinet        : FMM embedding
   Dipayan Datta          : RHF DLPNO-CCSD density
   Achintya Kumar Dutta   : EOM-CC, STEOM-CC
   Nicolas Foglia         : Exact transition moments, OPA infrastructure, MCD improvements
   Dmitry Ganyushin       : Spin-Orbit,Spin-Spin,Magnetic field MRCI
   Miquel Garcia          : C-PCM and meta-GGA Hessian, CCSD/C-PCM, Gaussian charge scheme
   Tiago L. C. Gouveia    : GS-ROHF, GS-ROCIS
   Yang Guo               : DLPNO-NEVPT2, F12-NEVPT2, CIM, IAO-localization
   Andreas Hansen         : Spin unrestricted coupled pair/coupled cluster methods
   Ingolf Harden          : AUTO-CI MPn and infrastructure 
   Benjamin Helmich-Paris : MC-RPA, TRAH-(SCF,CASSCF), AVAS, COSX integrals, SCF dyn. polar.
   Lee Huntington         : MR-EOM, pCC
   Robert Izsak           : Overlap fitted RIJCOSX, COSX-SCS-MP3, EOM
   Riya Kayal             : Wick's Theorem for AUTO-CI, AUTO-CI UHF-CCSDT
   Emily Kempfer          : AUTO-CI, RHF CISDT and CCSDT
   Christian Kollmar      : KDIIS, OOCD, Brueckner-CCSD(T), CCSD density, CASPT2, CASPT2-K, improved NEVPT2
   Axel Koslowski         : Symmetry handling
   Simone Kossmann        : Meta GGA functionals, TD-DFT gradient, OOMP2, (MP2 Hessian; deprecated post 5.0)
   Lucas Lang             : DCDCAS
   Marvin Lechner         : AUTO-CI (C++ implementation), FIC-MRCC
   Spencer Leger          : CASSCF response
   Dagmar Lenk            : GEPOL surface, SMD, ORCA-2-JSON
   Dimitrios Liakos       : Extrapolation schemes; Compound Job, initial MDCI parallelization
   Dimitrios Manganas     : Further ROCIS development; embedding schemes. LFT, Crystal Embedding
   Dimitrios Pantazis     : SARC Basis sets
   Anastasios Papadopoulos: AUTO-CI, single reference methods and gradients
   Taras Petrenko         : pre 6.0 DFT Hessian and TD-DFT gradient, (ASA, deprecated), ECA, 1-Electron XAS/XES, NRVS
   Peter Pinski           : DLPNO-MP2, DLPNO-MP2 Gradient
   Christoph Reimann      : Effective Core Potentials
   Marius Retegan         : Local ZFS, SOC
   Christoph Riplinger    : Optimizer, TS searches, QM/MM, DLPNO-CCSD(T), (RO)-DLPNO pert. Triples
   Michael Roemelt        : Original ROCIS implementation
   Masaaki Saitow         : Open-shell DLPNO-CCSD energy and density
   Barbara Sandhoefer     : DKH picture change effects
   Kantharuban Sivalingam : CASSCF convergence/infrastructure, NEVPT2 and variants, FIC-MRCI
   Bernardo de Souza      : ESD, SOC TD-DFT
   Georgi Stoychev        : AutoAux, RI-MP2 NMR, DLPNO-MP2 response, X2C
   Van Anh Tran           : RI-MP2 g-tensors
   Willem Van den Heuvel  : Paramagnetic NMR
   Zikuan Wang            : NOTCH, Electric field optimization 
   Frank Wennmohs         : Technical directorship and infrastructure
   Hang Xu                : AUTO-CI-Response properties 


 We gratefully acknowledge several colleagues who have allowed us to
 interface, adapt or use parts of their codes:
   Stefan Grimme, W. Hujo, H. Kruse, P. Pracht,  : VdW corrections, initial TS optimization,
                  C. Bannwarth, S. Ehlert,         DFT functionals, gCP, sTDA/sTD-DF
                  L. Wittmann, M. Mueller
   Ed Valeev, F. Pavosevic, A. Kumar             : LibInt (2-el integral package), F12 methods
   Garnet Chan, S. Sharma, J. Yang, R. Olivares  : DMRG
   Ulf Ekstrom                                   : XCFun DFT Library
   Mihaly Kallay                                 : mrcc  (arbitrary order and MRCC methods)
   Frank Weinhold                                : gennbo (NPA and NBO analysis)
   Simon Mueller                                 : openCOSMO-RS
   Christopher J. Cramer and Donald G. Truhlar   : smd solvation model
   Lars Goerigk                                  : TD-DFT with DH, B97 family of functionals
   V. Asgeirsson, H. Jonsson                     : NEB implementation
   FAccTs GmbH                                   : IRC, NEB, NEB-TS, DLPNO-Multilevel, CI-OPT
                                                   MM, QMMM, 2- and 3-layer-ONIOM, Crystal-QMMM,
                                                   LR-CPCM, SF, NACMEs, symmetry and pop. for TD-DFT,
                                                   nearIR, NL-DFT gradient (VV10), updates on ESD,
                                                   ML-optimized integration grids, MBIS, APM,
                                                   GOAT, DOCKER, SOLVATOR, interface openCOSMO-RS
   S Lehtola, MJT Oliveira, MAL Marques          : LibXC Library
   Liviu Ungur et al                             : ANISO software


 Your calculation uses the libint2 library for the computation of 2-el integrals
 For citations please refer to: http://libint.valeyev.net

 Your ORCA version has been built with support for libXC version: 6.2.2
 For citations please refer to: https://libxc.gitlab.io

 This ORCA versions uses:
   CBLAS   interface :  Fast vector & matrix operations
   LAPACKE interface :  Fast linear algebra routines
   SCALAPACK package :  Parallel linear algebra routines
   Shared memory     :  Shared parallel matrices
   BLAS/LAPACK       :  OpenBLAS 0.3.27  USE64BITINT DYNAMIC_ARCH NO_AFFINITY SkylakeX SINGLE_THREADED
        Core in use  :  SkylakeX
   Copyright (c) 2011-2014, The OpenBLAS Project


Your calculation utilizes the geometrical counterpoise correction gCP
Please cite in your paper:
H.Kruse, S. Grimme J.Chem.Phys., 136, (2012), 154101 
   

Your calculation utilizes the DFT-NL dispersion correction.
Cite in your paper:
Vydrov, O. A.; Van Voorhis, T. J. Chem. Phys. 2010, 133, 244103
Hujo, W.; Grimme, S. J. Chem. Theory Comput. 2011, 7, 3866 
   

================================================================================

----- Orbital basis set information -----
Your calculation utilizes the basis: def2-TZVP
   F. Weigend and R. Ahlrichs, Phys. Chem. Chem. Phys. 7, 3297 (2005).

----- AuxJ basis set information -----
Your calculation utilizes the auxiliary basis: def2/J
   F. Weigend, Phys. Chem. Chem. Phys. 8, 1057 (2006).

================================================================================
                                        WARNINGS
                       Please study these warnings very carefully!
================================================================================


================================================================================
                                       INPUT FILE
================================================================================
NAME = sp_gas.inp
|  1> ! wb97x-v def2-tzvp def2/J RIJCOSX DEFGRID2 scfconv7 GCP(DFT/TZ) printgap
|  2> %output
|  3>     printlevel normal
|  4> end
|  5> * xyz 0 1
|  6> C -1.9622539174727793 -0.23529258802791142 0.501739534903154
|  7> C -1.174543637776808 -0.1062684236847058 -0.7966271624956297
|  8> C 0.12235035888909805 0.6794930122631601 -0.6569695080027804
|  9> S 1.4099121257307126 -0.1351999768513237 0.3990526236121292
| 10> H -1.4187498998699541 -0.8256649981522256 1.2465468078278463
| 11> H -2.167498481616535 0.7505212681848648 0.9342562713984658
| 12> H -2.9213868709287474 -0.7318674983515193 0.3260684564413357
| 13> H -1.7861964469629952 0.4217471188381397 -1.5406323692576274
| 14> H -0.9584040836065679 -1.0979686507241777 -1.2103117422738945
| 15> H 0.6088554590270687 0.7955332422955906 -1.6300724893642495
| 16> H -0.06352406550086029 1.6806142359164968 -0.25625784767442844
| 17> H 0.7789803699883076 0.010797054115033101 1.5778454473137253
| 18> *
| 19> 
| 20>                          ****END OF INPUT****
================================================================================

                       ****************************
                       * Single Point Calculation *
                       ****************************

---------------------------------
CARTESIAN COORDINATES (ANGSTROEM)
---------------------------------
  C     -1.962254   -0.235293    0.501740
  C     -1.174544   -0.106268   -0.796627
  C      0.122350    0.679493   -0.656970
  S      1.409912   -0.135200    0.399053
  H     -1.418750   -0.825665    1.246547
  H     -2.167498    0.750521    0.934256
  H     -2.921387   -0.731867    0.326068
  H     -1.786196    0.421747   -1.540632
  H     -0.958404   -1.097969   -1.210312
  H      0.608855    0.795533   -1.630072
  H     -0.063524    1.680614   -0.256258
  H      0.778980    0.010797    1.577845

----------------------------
CARTESIAN COORDINATES (A.U.)
----------------------------
  NO LB      ZA    FRAG     MASS         X           Y           Z
   0 C     6.0000    0    12.011   -3.708123   -0.444639    0.948150
   1 C     6.0000    0    12.011   -2.219566   -0.200818   -1.505407
   2 C     6.0000    0    12.011    0.231209    1.284056   -1.241492
   3 S    16.0000    0    32.060    2.664348   -0.255491    0.754100
   4 H     1.0000    0     1.008   -2.681049   -1.560281    2.355632
   5 H     1.0000    0     1.008   -4.095979    1.418280    1.765488
   6 H     1.0000    0     1.008   -5.520621   -1.383029    0.616180
   7 H     1.0000    0     1.008   -3.375422    0.796987   -2.911373
   8 H     1.0000    0     1.008   -1.811121   -2.074860   -2.287158
   9 H     1.0000    0     1.008    1.150570    1.503340   -3.080391
  10 H     1.0000    0     1.008   -0.120043    3.175901   -0.484257
  11 H     1.0000    0     1.008    1.472060    0.020403    2.981696

--------------------------------
INTERNAL COORDINATES (ANGSTROEM)
--------------------------------
 C      0   0   0     0.000000000000     0.00000000     0.00000000
 C      1   0   0     1.524103277550     0.00000000     0.00000000
 C      2   1   0     1.522780132938   113.93644355     0.00000000
 S      3   2   1     1.853839991047   114.64468712    66.39189126
 H      1   2   3     1.094839747903   111.62995160   294.80756899
 H      1   2   3     1.095912869511   110.90700823    55.33419295
 H      1   2   3     1.094249967684   110.77331975   175.12728606
 H      2   1   3     1.098391241689   109.26416312   240.70474398
 H      2   1   3     1.096047708238   110.29502045   123.59011765
 H      3   2   1     1.094112407288   110.60086048   183.76172222
 H      3   2   1     1.094240759986   111.16219275   303.36509843
 H      4   3   2     1.344969343392    97.22372619   290.48497873

---------------------------
INTERNAL COORDINATES (A.U.)
---------------------------
 C      0   0   0     0.000000000000     0.00000000     0.00000000
 C      1   0   0     2.880137794380     0.00000000     0.00000000
 C      2   1   0     2.877637413428   113.93644355     0.00000000
 S      3   2   1     3.503249879190   114.64468712    66.39189126
 H      1   2   3     2.068947284068   111.62995160   294.80756899
 H      1   2   3     2.070975190016   110.90700823    55.33419295
 H      1   2   3     2.067832760975   110.77331975   175.12728606
 H      2   1   3     2.075658634691   109.26416312   240.70474398
 H      2   1   3     2.071229998281   110.29502045   123.59011765
 H      3   2   1     2.067572809499   110.60086048   183.76172222
 H      3   2   1     2.067815360947   111.16219275   303.36509843
 H      4   3   2     2.541623717532    97.22372619   290.48497873

---------------------
BASIS SET INFORMATION
---------------------
There are 3 groups of distinct atoms

 Group   1 Type C   : 11s6p2d1f contracted to 5s3p2d1f pattern {62111/411/11/1}
 Group   2 Type S   : 14s9p3d1f contracted to 5s5p2d1f pattern {73211/51111/21/1}
 Group   3 Type H   : 5s1p contracted to 3s1p pattern {311/1}

Atom   0C    basis set group =>   1
Atom   1C    basis set group =>   1
Atom   2C    basis set group =>   1
Atom   3S    basis set group =>   2
Atom   4H    basis set group =>   3
Atom   5H    basis set group =>   3
Atom   6H    basis set group =>   3
Atom   7H    basis set group =>   3
Atom   8H    basis set group =>   3
Atom   9H    basis set group =>   3
Atom  10H    basis set group =>   3
Atom  11H    basis set group =>   3
---------------------------------
AUXILIARY/J BASIS SET INFORMATION
---------------------------------
There are 3 groups of distinct atoms

 Group   1 Type C   : 12s5p4d2f1g contracted to 6s4p3d1f1g pattern {711111/2111/211/2/1}
 Group   2 Type S   : 14s5p5d2f1g contracted to 8s4p3d1f1g pattern {71111111/2111/311/2/1}
 Group   3 Type H   : 5s2p1d contracted to 3s1p1d pattern {311/2/1}

Atom   0C    basis set group =>   1
Atom   1C    basis set group =>   1
Atom   2C    basis set group =>   1
Atom   3S    basis set group =>   2
Atom   4H    basis set group =>   3
Atom   5H    basis set group =>   3
Atom   6H    basis set group =>   3
Atom   7H    basis set group =>   3
Atom   8H    basis set group =>   3
Atom   9H    basis set group =>   3
Atom  10H    basis set group =>   3
Atom  11H    basis set group =>   3

Checking for AutoStart:
The File: sp_gas.gbw exists
Trying to determine its content:
     ... Fine, the file contains calculation information
     ... Fine, the calculation information was read
     ... Fine, the file contains a basis set
     ... Fine, the basis set was read
     ... Fine, the file contains a geometry
     ... Fine, the geometry was read
     ... Fine, the file contains a set of orbitals
     ... Fine, the orbitals can be read
     => possible old guess file was deleted
     => GBW file was renamed to GES file
     => GES file is set as startup file
     => Guess is set to MORead
     ... now leaving AutoStart

------------------------------------------------------------------------------
                             ORCA STARTUP CALCULATIONS
                           -- RI-GTO INTEGRALS CHOSEN --
------------------------------------------------------------------------------
------------------------------------------------------------------------------
                   ___                                                        
                  /   \      - P O W E R E D   B Y -                         
                 /     \                                                     
                 |  |  |   _    _      __       _____    __    __             
                 |  |  |  | |  | |    /  \     |  _  \  |  |  /  |          
                  \  \/   | |  | |   /    \    | | | |  |  | /  /          
                 / \  \   | |__| |  /  /\  \   | |_| |  |  |/  /          
                |  |  |   |  __  | /  /__\  \  |    /   |      \           
                |  |  |   | |  | | |   __   |  |    \   |  |\   \          
                \     /   | |  | | |  |  |  |  | |\  \  |  | \   \       
                 \___/    |_|  |_| |__|  |__|  |_| \__\ |__|  \__/        
                                                                              
                      - O R C A' S   B I G   F R I E N D -                    
                                      &                                       
                       - I N T E G R A L  F E E D E R -                       
                                                                              
 v1 FN, 2020, v2 2021, v3 2022-2024                                           
------------------------------------------------------------------------------


----------------------
SHARK INTEGRAL PACKAGE
----------------------

Number of atoms                             ...     12
Number of basis functions                   ...    178
Number of shells                            ...     78
Maximum angular momentum                    ...      3
Integral batch strategy                     ... SHARK/LIBINT Hybrid
RI-J (if used) integral strategy            ... SPLIT-RIJ (Revised 2003 algorithm where possible)
Printlevel                                  ...      1
Contraction scheme used                     ... SEGMENTED contraction
Prescreening option                         ... SCHWARTZ
   Thresh                                   ... 3.000e-11
   Tcut                                     ... 1.000e-12
   Tpresel                                  ... 1.000e-12 
Coulomb Range Separation                    ... NOT USED
Exchange Range Separation                   ... Long Range
   Mu parameter                             ... 3.000e-01
   Scaling (regular/separated)              ... 1.670e-01 8.330e-01
Multipole approximations                    ... NOT USED
Finite Nucleus Model                        ... NOT USED
CABS basis                                  ... NOT available
Auxiliary Coulomb fitting basis             ... AVAILABLE
   # of basis functions in Aux-J            ...    286
   # of shells in Aux-J                     ...    102
   Maximum angular momentum in Aux-J        ...      4
Auxiliary J/K fitting basis                 ... NOT available
Auxiliary Correlation fitting basis         ... NOT available
Auxiliary 'external' fitting basis          ... NOT available

Checking pre-screening integrals            ... done (  0.0 sec) Dimension = 78
Check shell pair data                       ... done (  0.0 sec)
Shell pair information
Shell pair cut-off parameter TPreSel        ...   1.0e-12
Total number of shell pairs                 ...      3081
Shell pairs after pre-screening             ...      2990
Total number of primitive shell pairs       ...      9306
Primitive shell pairs kept                  ...      7261
          la=0 lb=0:    940 shell pairs
          la=1 lb=0:    937 shell pairs
          la=1 lb=1:    249 shell pairs
          la=2 lb=0:    347 shell pairs
          la=2 lb=1:    175 shell pairs
          la=2 lb=2:     36 shell pairs
          la=3 lb=0:    176 shell pairs
          la=3 lb=1:     88 shell pairs
          la=3 lb=2:     32 shell pairs
          la=3 lb=3:     10 shell pairs

Calculating one electron integrals          ... done (  0.0 sec)
Calculating RI/J V-Matrix + Cholesky decomp.... done (  0.0 sec)
Calculating Nuclear repulsion               ... done (  0.0 sec) ENN=    165.860769237805 Eh

Diagonalization of the overlap matrix:
Smallest eigenvalue                        ... 3.354e-04
Time for diagonalization                   ...    0.002 sec
Threshold for overlap eigenvalues          ... 1.000e-07
Number of eigenvalues below threshold      ... 0
Time for construction of square roots      ...    0.015 sec
Total time needed                          ...    0.024 sec

-------------------
DFT GRID GENERATION
-------------------

General Integration Accuracy     IntAcc      ... 4.388
Radial Grid Type                 RadialGrid  ... OptM3 with GC (2021)
Angular Grid (max. ang.)         AngularGrid ... 4 (Lebedev-302)
Angular grid pruning method      GridPruning ... 4 (adaptive)
Weight generation scheme         WeightScheme... mBecke (2022)
Basis function cutoff            BFCut       ... 1.0000e-11
Integration weight cutoff        WCut        ... 1.0000e-14
Partially contracted basis set               ... off
Rotationally invariant grid construction     ... off
Angular grids for H and He will be reduced by one unit

Total number of grid points                  ...    51300
Total number of batches                      ...      808
Average number of points per batch           ...       63
Average number of grid points per atom       ...     4275

--------------------
COSX GRID GENERATION
--------------------

GRIDX 1
-------
General Integration Accuracy     IntAcc      ... 3.816
Radial Grid Type                 RadialGrid  ... OptM3 with GC (2021)
Angular Grid (max. ang.)         AngularGrid ... 1 (Lebedev-50)
Angular grid pruning method      GridPruning ... 4 (adaptive)
Weight generation scheme         WeightScheme... mBecke (2022)
Basis function cutoff            BFCut       ... 1.0000e-11
Integration weight cutoff        WCut        ... 1.0000e-14
Partially contracted basis set               ... on
Rotationally invariant grid construction     ... off
Angular grids for H and He will be reduced by one unit

Total number of grid points                  ...     7653
Total number of batches                      ...       67
Average number of points per batch           ...      114
Average number of grid points per atom       ...      638
UseSFitting                                  ... on

GRIDX 2
-------
General Integration Accuracy     IntAcc      ... 4.020
Radial Grid Type                 RadialGrid  ... OptM3 with GC (2021)
Angular Grid (max. ang.)         AngularGrid ... 2 (Lebedev-110)
Angular grid pruning method      GridPruning ... 4 (adaptive)
Weight generation scheme         WeightScheme... mBecke (2022)
Basis function cutoff            BFCut       ... 1.0000e-11
Integration weight cutoff        WCut        ... 1.0000e-14
Partially contracted basis set               ... on
Rotationally invariant grid construction     ... off
Angular grids for H and He will be reduced by one unit

Total number of grid points                  ...    13590
Total number of batches                      ...      112
Average number of points per batch           ...      121
Average number of grid points per atom       ...     1132
UseSFitting                                  ... on

GRIDX 3
-------
General Integration Accuracy     IntAcc      ... 4.338
Radial Grid Type                 RadialGrid  ... OptM3 with GC (2021)
Angular Grid (max. ang.)         AngularGrid ... 3 (Lebedev-194)
Angular grid pruning method      GridPruning ... 4 (adaptive)
Weight generation scheme         WeightScheme... mBecke (2022)
Basis function cutoff            BFCut       ... 1.0000e-11
Integration weight cutoff        WCut        ... 1.0000e-14
Partially contracted basis set               ... on
Rotationally invariant grid construction     ... off
Angular grids for H and He will be reduced by one unit

Total number of grid points                  ...    30323
Total number of batches                      ...      242
Average number of points per batch           ...      125
Average number of grid points per atom       ...     2527
UseSFitting                                  ... on
Initializing property integral containers    ... done (  0.0 sec)

SHARK setup successfully completed in   1.1 seconds

Maximum memory used throughout the entire STARTUP-calculation: 26.2 MB
-------------------------------------------------------------------------------
                                 ORCA GUESS
                   Start orbitals & Density for SCF / CASSCF
-------------------------------------------------------------------------------

------------
SCF SETTINGS
------------
Hamiltonian:
 Density Functional     Method          .... DFT(GTOs)
 Exchange Functional    Exchange        .... WB97X-V
 Correlation Functional Correlation     .... WB97X-V
 Gradients option       PostSCFGGA      .... off
 Hybrid DFT is turned on
   Fraction HF Exchange ScalHFX         ....  0.167000
   Scaling of DF-GGA-X  ScalDFX         ....  0.000000
   Scaling of DF-GGA-C  ScalDFC         ....  1.000000
   Scaling of DF-LDA-C  ScalLDAC        ....  1.000000
   Perturbative correction              ....  0.000000
 Long-range corrected/Screened/Range-Separated Hybrid DFT is turned on
   Amount of maximum screened exact exchange              ....  0.833000
   Range separation parameter mu (erf(mu*r12)/r12)        ....  0.300000
   NL short-range parameter             ....  6.000000
   NL long-range parameter              ....  0.010000
 RI-approximation to the Coulomb term is turned on
   Number of AuxJ basis functions       .... 286
   RIJ-COSX (HFX calculated with COS-X)).... on


General Settings:
 Integral files         IntName         .... sp_gas
 Hartree-Fock type      HFTyp           .... RHF
 Total Charge           Charge          ....    0
 Multiplicity           Mult            ....    1
 Number of Electrons    NEL             ....   42
 Basis Dimension        Dim             ....  178
 Nuclear Repulsion      ENuc            ....    165.8607692378 Eh

Convergence Acceleration:
 AO-DIIS                CNVDIIS         .... on
   Start iteration      DIISMaxIt       ....    12
   Startup error        DIISStart       ....  0.200000
   # of expansion vecs  DIISMaxEq       ....     5
   Bias factor          DIISBfac        ....   1.050
   Max. coefficient     DIISMaxC        ....  10.000
 MO-DIIS                CNVKDIIS        .... off
 Trust-Rad. Augm. Hess. CNVTRAH         .... auto
   Auto Start mean grad. ratio tolernc. ....  1.125000
   Auto Start start iteration           ....     1
   Auto Start num. interpolation iter.  ....    10
   Max. Number of Micro iterations      ....    24
   Max. Number of Macro iterations      .... Maxiter - #DIIS iter
   Number of Davidson start vectors     ....     2
   Converg. threshold    (grad. norm)   ....   1.000e-04
   Grad. Scal. Fac. for Micro threshold ....   0.100
   Minimum threshold for Micro iter.    ....   1.000e-02
   NR start threshold (gradient norm)   ....   1.000e-04
   Initial trust radius                 ....   0.400
   Minimum AH scaling param. (alpha)    ....   1.000
   Maximum AH scaling param. (alpha)    .... 1000.000
   Quad. conv. algorithm                .... NR
   White noise on init. David. guess    .... on
   Maximum white noise                  ....   0.010
   Pseudo random numbers                .... off
   Inactive MOs                         .... canonical
   Orbital update algorithm             .... Taylor
   Preconditioner                       .... Diag
   Full preconditioner red. dimension   ....   250
 SOSCF                  CNVSOSCF        .... on
   Start iteration      SOSCFMaxIt      ....   150
   Startup grad/error   SOSCFStart      ....  0.003300
   Hessian update       SOSCFHessUp     .... L-BFGS
 Level Shifting         CNVShift        .... on
   Level shift para.    LevelShift      ....    0.2500
   Turn off err/grad.   ShiftErr        ....    0.0010
 Zerner damping         CNVZerner       .... off
 Static damping         CNVDamp         .... on
   Fraction old density DampFac         ....    0.7000
   Max. Damping (<1)    DampMax         ....    0.9800
   Min. Damping (>=0)   DampMin         ....    0.0000
   Turn off err/grad.   DampErr         ....    0.1000

SCF Procedure:
 Maximum # iterations   MaxIter         ....   125
 SCF integral mode      SCFMode         .... Direct
   Integral package                     .... SHARK and LIBINT hybrid scheme
 Reset frequency        DirectResetFreq ....    20
 Integral Threshold     Thresh          ....  3.000e-11 Eh
 Primitive CutOff       TCut            ....  1.000e-12 Eh

Convergence Tolerance:
 Convergence Check Mode ConvCheckMode   .... Total+1el-Energy
 Convergence forced     ConvForced      .... 0
 Energy Change          TolE            ....  1.000e-07 Eh
 1-El. energy change                    ....  1.000e-04 Eh
 Orbital Gradient       TolG            ....  1.000e-04
 Orbital Rotation angle TolX            ....  1.000e-04
 DIIS Error             TolErr          ....  1.000e-07

---------------------
INITIAL GUESS: MOREAD
---------------------
Guess MOs are being read from file: sp_gas.ges
Input Geometry matches current geometry (good)
Atom 0: N(Shells)= 11 and 9 - projection required
Input basis set needs projection
NBasis(read)= 124
NBasis(calc)= 178
Basis set overlap was calculated
Using GuessMode=FMatrix for the initial guess
C*T matrix was formed
Effective Fockian was calculated
Effective Fockian was diagonalized
Initial density was built
                      ------------------
                      INITIAL GUESS DONE (   0.0 sec)
                      ------------------
             **** ENERGY FILE WAS UPDATED (sp_gas.en.tmp) ****
Finished Guess after   0.2 sec
Maximum memory used throughout the entire GUESS-calculation: 14.2 MB

-------------------------------------------------------------------------------------------
                                      ORCA LEAN-SCF
                              memory conserving SCF solver
-------------------------------------------------------------------------------------------

----------------------------------------D-I-I-S--------------------------------------------
Iteration    Energy (Eh)           Delta-E    RMSDP     MaxDP     DIISErr   Damp  Time(sec)
-------------------------------------------------------------------------------------------
               ***  Starting incremental Fock matrix formation  ***
    1    -517.4424607847333846     0.00e+00  9.00e-04  1.74e-02  3.75e-02  0.700   4.9
    2    -517.4456585708212515    -3.20e-03  8.02e-04  1.64e-02  2.45e-02  0.700   2.9
                               ***Turning on AO-DIIS***
    3    -517.4480904616832504    -2.43e-03  6.83e-04  1.37e-02  1.72e-02  0.700   2.9
    4    -517.4498883301926071    -1.80e-03  1.74e-03  3.42e-02  1.27e-02  0.000   2.9
                              *** Initializing SOSCF ***
---------------------------------------S-O-S-C-F--------------------------------------
Iteration    Energy (Eh)           Delta-E    RMSDP     MaxDP     MaxGrad    Time(sec)
--------------------------------------------------------------------------------------
    5    -517.4545439797236668    -4.66e-03  1.10e-04  2.35e-03  1.62e-03     3.0
               *** Restarting incremental Fock matrix formation ***
    6    -517.4545683407081924    -2.44e-05  5.86e-05  1.03e-03  3.11e-04     4.9
    7    -517.4545732958583812    -4.96e-06  3.15e-05  5.77e-04  1.26e-04     3.9
    8    -517.4545739933664663    -6.98e-07  3.45e-06  1.00e-04  2.98e-05     3.8
    9    -517.4545740305543404    -3.72e-08  2.02e-06  3.79e-05  1.29e-05     3.4
                 **** Energy Check signals convergence ****

               *****************************************************
               *                     SUCCESS                       *
               *           SCF CONVERGED AFTER   9 CYCLES          *
               *****************************************************


------------------
NL GRID GENERATION
------------------

General Integration Accuracy     IntAcc      ... 4.004
Radial Grid Type                 RadialGrid  ... OptM3 with GC (2021)
Angular Grid (max. ang.)         AngularGrid ... 2 (Lebedev-110)
Angular grid pruning method      GridPruning ... 4 (adaptive)
Weight generation scheme         WeightScheme... mBecke (2022)
Basis function cutoff            BFCut       ... 1.0000e-10
Integration weight cutoff        WCut        ... 1.0000e-14
Partially contracted basis set               ... off
Rotationally invariant grid construction     ... off
Angular grids for H and He will be reduced by one unit

Total number of grid points                  ...    15006
Total number of batches                      ...      242
Average number of points per batch           ...       62
Average number of grid points per atom       ...     1250
Final grid set up in    0.1 sec

-------------------------------------------------------------------------------
                    post-SCF DFT-NL dispersion correction                      
-------------------------------------------------------------------------------

SCF Energy:     -517.454574031 
NL    Energy:      0.165561948 
SC+NL Energy:   -517.289012082 
NL done in  :              0.8 sec
-------------------------------------------------------------------------------
Recomputing exchange energy using gridx3       ... done (    8.204 sec)
Old exchange energy                            :    -12.739682903 Eh
New exchange energy                            :    -12.739672436 Eh
Exchange energy change after final integration :      0.000010466 Eh
Total energy after final integration           :   -517.289001616 Eh
             **** ENERGY FILE WAS UPDATED (sp_gas.en.tmp) ****

----------------
TOTAL SCF ENERGY
----------------

Total Energy       :       -517.28900161598813 Eh          -14076.14935 eV

Components:
Nuclear Repulsion  :        165.86076923780519 Eh            4513.30098 eV
Electronic Energy  :       -683.31534326835947 Eh          -18593.95579 eV
One Electron Energy:      -1038.12345466527972 Eh          -28248.77534 eV
Two Electron Energy:        354.80811139692025 Eh            9654.81955 eV

Virial components:
Potential Energy   :      -1033.28111584249723 Eh          -28117.00860 eV
Kinetic Energy     :        515.99211422650910 Eh           14040.85925 eV
Virial Ratio       :          2.00251338606487

DFT components:
N(Alpha)           :       20.999981556789 electrons
N(Beta)            :       20.999981556789 electrons
N(Total)           :       41.999963113578 electrons
E(X)               :      -30.469704571590 Eh       
E(C)               :       -1.843820335747 Eh       
NL Energy, E(C,NL) :        0.165561948079 Eh       
E(XC)              :      -32.147962959258 Eh       

---------------
SCF CONVERGENCE
---------------

  Last Energy change         ...    3.7188e-08  Tolerance :   1.0000e-07
  Last MAX-Density change    ...    3.7910e-05  Tolerance :   1.0000e-05
  Last RMS-Density change    ...    2.0210e-06  Tolerance :   1.0000e-06
  Last DIIS Error            ...    1.6219e-03  Tolerance :   1.0000e-07
  Last Orbital Gradient      ...    1.2947e-05  Tolerance :   1.0000e-04
  Last Orbital Rotation      ...    1.3024e-05  Tolerance :   1.0000e-04


----------------
ORBITAL ENERGIES
----------------

  NO   OCC          E(Eh)            E(eV) 
   0   2.0000     -94.118513     -2561.0949 
   1   2.0000     -12.081748      -328.7611 
   2   2.0000     -12.052087      -327.9540 
   3   2.0000     -12.040347      -327.6345 
   4   2.0000      -9.629805      -262.0403 
   5   2.0000      -7.607468      -207.0097 
   6   2.0000      -7.606306      -206.9781 
   7   2.0000      -7.605780      -206.9638 
   8   2.0000      -1.312291       -35.7092 
   9   2.0000      -1.235163       -33.6105 
  10   2.0000      -1.152333       -31.3566 
  11   2.0000      -1.056124       -28.7386 
  12   2.0000      -0.899415       -24.4743 
  13   2.0000      -0.884072       -24.0568 
  14   2.0000      -0.855145       -23.2697 
  15   2.0000      -0.835828       -22.7440 
  16   2.0000      -0.797824       -21.7099 
  17   2.0000      -0.783058       -21.3081 
  18   2.0000      -0.774531       -21.0760 
  19   2.0000      -0.741026       -20.1643 
  20   2.0000      -0.643561       -17.5122 
  21   0.0000      -0.197406        -5.3717 
  22   0.0000      -0.108030        -2.9397 
  23   0.0000      -0.022500        -0.6123 
  24   0.0000      -0.016174        -0.4401 
  25   0.0000       0.000621         0.0169 
  26   0.0000       0.016132         0.4390 
  27   0.0000       0.027025         0.7354 
  28   0.0000       0.044635         1.2146 
  29   0.0000       0.057969         1.5774 
  30   0.0000       0.059061         1.6071 
  31   0.0000       0.071620         1.9489 
*Only the first 10 virtual orbitals were printed.

                    ********************************
                    * MULLIKEN POPULATION ANALYSIS *
                    ********************************

-----------------------
MULLIKEN ATOMIC CHARGES
-----------------------
   0 C :   -0.372920
   1 C :   -0.119577
   2 C :   -0.190836
   3 S :   -0.228447
   4 H :    0.112011
   5 H :    0.106746
   6 H :    0.117555
   7 H :    0.091307
   8 H :    0.100673
   9 H :    0.126079
  10 H :    0.122157
  11 H :    0.135253
Sum of atomic charges:    0.0000000

--------------------------------
MULLIKEN REDUCED ORBITAL CHARGES
--------------------------------
  0 C s       :     3.242651  s :     3.242651
      pz      :     0.971929  p :     3.068274
      px      :     1.050353
      py      :     1.045992
      dz2     :     0.012841  d :     0.058668
      dxz     :     0.010854
      dyz     :     0.018129
      dx2y2   :     0.007852
      dxy     :     0.008993
      f0      :     0.000674  f :     0.003327
      f+1     :     0.000693
      f-1     :     0.000331
      f+2     :     0.000518
      f-2     :     0.000710
      f+3     :     0.000026
      f-3     :     0.000375

  1 C s       :     3.149313  s :     3.149313
      pz      :     0.950045  p :     2.862114
      px      :     0.917736
      py      :     0.994333
      dz2     :     0.015884  d :     0.102551
      dxz     :     0.026341
      dyz     :     0.022593
      dx2y2   :     0.021470
      dxy     :     0.016265
      f0      :     0.001078  f :     0.005598
      f+1     :     0.000889
      f-1     :     0.000471
      f+2     :     0.000569
      f-2     :     0.001113
      f+3     :     0.000850
      f-3     :     0.000628

  2 C s       :     3.194337  s :     3.194337
      pz      :     0.994551  p :     2.891427
      px      :     0.919048
      py      :     0.977827
      dz2     :     0.011358  d :     0.100324
      dxz     :     0.027552
      dyz     :     0.011819
      dx2y2   :     0.030352
      dxy     :     0.019243
      f0      :     0.000607  f :     0.004748
      f+1     :     0.000680
      f-1     :     0.000159
      f+2     :     0.000599
      f-2     :     0.000841
      f+3     :     0.001161
      f-3     :     0.000701

  3 S s       :     5.807862  s :     5.807862
      pz      :     3.022858  p :    10.300719
      px      :     3.477312
      py      :     3.800550
      dz2     :     0.029513  d :     0.109827
      dxz     :     0.041633
      dyz     :     0.010493
      dx2y2   :     0.012100
      dxy     :     0.016088
      f0      :     0.000861  f :     0.010038
      f+1     :     0.003084
      f-1     :     0.000914
      f+2     :     0.001460
      f-2     :     0.001678
      f+3     :     0.000877
      f-3     :     0.001166

  4 H s       :     0.866736  s :     0.866736
      pz      :     0.008213  p :     0.021253
      px      :     0.006288
      py      :     0.006753

  5 H s       :     0.872570  s :     0.872570
      pz      :     0.005634  p :     0.020684
      px      :     0.004509
      py      :     0.010541

  6 H s       :     0.861355  s :     0.861355
      pz      :     0.004302  p :     0.021090
      px      :     0.010798
      py      :     0.005990

  7 H s       :     0.887863  s :     0.887863
      pz      :     0.008323  p :     0.020830
      px      :     0.006770
      py      :     0.005737

  8 H s       :     0.878265  s :     0.878265
      pz      :     0.005447  p :     0.021062
      px      :     0.004224
      py      :     0.011391

  9 H s       :     0.852388  s :     0.852388
      pz      :     0.011207  p :     0.021534
      px      :     0.005945
      py      :     0.004382

 10 H s       :     0.856279  s :     0.856279
      pz      :     0.005284  p :     0.021564
      px      :     0.004347
      py      :     0.011932

 11 H s       :     0.841286  s :     0.841286
      pz      :     0.010651  p :     0.023461
      px      :     0.006417
      py      :     0.006393


------------------------
MULLIKEN OVERLAP CHARGES
------------------------
B(  0-C ,  1-C ) :   0.5919 B(  0-C ,  2-C ) :  -0.0697 B(  0-C ,  4-H ) :   0.8222 
B(  0-C ,  5-H ) :   0.8100 B(  0-C ,  6-H ) :   0.8204 B(  0-C ,  7-H ) :  -0.0630 
B(  0-C ,  8-H ) :  -0.0795 B(  1-C ,  2-C ) :   0.6248 B(  1-C ,  3-S ) :  -0.1407 
B(  1-C ,  4-H ) :  -0.0795 B(  1-C ,  5-H ) :  -0.0807 B(  1-C ,  6-H ) :  -0.0709 
B(  1-C ,  7-H ) :   0.7923 B(  1-C ,  8-H ) :   0.8277 B(  1-C ,  9-H ) :  -0.0791 
B(  1-C , 10-H ) :  -0.0795 B(  2-C ,  3-S ) :   0.6236 B(  2-C ,  7-H ) :  -0.0761 
B(  2-C ,  8-H ) :  -0.0702 B(  2-C ,  9-H ) :   0.8170 B(  2-C , 10-H ) :   0.8497 
B(  2-C , 11-H ) :  -0.0648 B(  3-S ,  9-H ) :  -0.0525 B(  3-S , 10-H ) :  -0.0849 
B(  3-S , 11-H ) :   0.6967 B(  4-H ,  5-H ) :  -0.0609 B(  7-H ,  8-H ) :  -0.0547 



                     *******************************
                     * LOEWDIN POPULATION ANALYSIS *
                     *******************************

----------------------
LOEWDIN ATOMIC CHARGES
----------------------
   0 C :   -0.315133
   1 C :   -0.324432
   2 C :   -0.468643
   3 S :    0.214662
   4 H :    0.113341
   5 H :    0.116387
   6 H :    0.118714
   7 H :    0.134588
   8 H :    0.133172
   9 H :    0.126196
  10 H :    0.121434
  11 H :    0.029713

-------------------------------
LOEWDIN REDUCED ORBITAL CHARGES
-------------------------------
  0 C s       :     2.828980  s :     2.828980
      pz      :     1.061256  p :     3.195372
      px      :     1.065514
      py      :     1.068601
      dz2     :     0.059750  d :     0.265872
      dxz     :     0.055901
      dyz     :     0.072888
      dx2y2   :     0.035611
      dxy     :     0.041721
      f0      :     0.005779  f :     0.024910
      f+1     :     0.004012
      f-1     :     0.003407
      f+2     :     0.003258
      f-2     :     0.004306
      f+3     :     0.001303
      f-3     :     0.002845

  1 C s       :     2.785381  s :     2.785381
      pz      :     1.031736  p :     3.088959
      px      :     1.027423
      py      :     1.029800
      dz2     :     0.068039  d :     0.410883
      dxz     :     0.107683
      dyz     :     0.081911
      dx2y2   :     0.080248
      dxy     :     0.073001
      f0      :     0.007700  f :     0.039208
      f+1     :     0.005046
      f-1     :     0.004270
      f+2     :     0.004188
      f-2     :     0.007378
      f+3     :     0.006297
      f-3     :     0.004329

  2 C s       :     2.855079  s :     2.855079
      pz      :     1.046906  p :     3.168338
      px      :     1.058628
      py      :     1.062804
      dz2     :     0.054679  d :     0.411725
      dxz     :     0.109735
      dyz     :     0.049071
      dx2y2   :     0.113096
      dxy     :     0.085144
      f0      :     0.004137  f :     0.033501
      f+1     :     0.004741
      f-1     :     0.001962
      f+2     :     0.004970
      f-2     :     0.005501
      f+3     :     0.007639
      f-3     :     0.004550

  3 S s       :     5.385566  s :     5.385566
      pz      :     3.018151  p :    10.197874
      px      :     3.445164
      py      :     3.734559
      dz2     :     0.052764  d :     0.177030
      dxz     :     0.060148
      dyz     :     0.019714
      dx2y2   :     0.019263
      dxy     :     0.025142
      f0      :     0.001858  f :     0.024868
      f+1     :     0.008620
      f-1     :     0.002084
      f+2     :     0.003828
      f-2     :     0.004122
      f+3     :     0.002223
      f-3     :     0.002133

  4 H s       :     0.825592  s :     0.825592
      pz      :     0.022333  p :     0.061067
      px      :     0.019126
      py      :     0.019608

  5 H s       :     0.823584  s :     0.823584
      pz      :     0.015872  p :     0.060029
      px      :     0.013684
      py      :     0.030474

  6 H s       :     0.821010  s :     0.821010
      pz      :     0.013397  p :     0.060277
      px      :     0.029313
      py      :     0.017566

  7 H s       :     0.807825  s :     0.807825
      pz      :     0.021266  p :     0.057586
      px      :     0.018815
      py      :     0.017506

  8 H s       :     0.808778  s :     0.808778
      pz      :     0.014996  p :     0.058049
      px      :     0.012914
      py      :     0.030139

  9 H s       :     0.812787  s :     0.812787
      pz      :     0.031415  p :     0.061017
      px      :     0.016395
      py      :     0.013207

 10 H s       :     0.817207  s :     0.817207
      pz      :     0.015860  p :     0.061359
      px      :     0.012870
      py      :     0.032628

 11 H s       :     0.894822  s :     0.894822
      pz      :     0.033840  p :     0.075465
      px      :     0.022738
      py      :     0.018886


---------------------------------
LOEWDIN BOND ORDERS (THRESH 0.050000)
---------------------------------
B(  0-C ,  1-C ) :   1.2898 B(  0-C ,  2-C ) :   0.1462 B(  0-C ,  4-H ) :   0.9074 
B(  0-C ,  5-H ) :   0.9071 B(  0-C ,  6-H ) :   0.9075 B(  0-C ,  7-H ) :   0.0756 
B(  0-C ,  8-H ) :   0.0741 B(  1-C ,  2-C ) :   1.2805 B(  1-C ,  3-S ) :   0.1333 
B(  1-C ,  4-H ) :   0.0766 B(  1-C ,  5-H ) :   0.0772 B(  1-C ,  6-H ) :   0.0810 
B(  1-C ,  7-H ) :   0.8418 B(  1-C ,  8-H ) :   0.8509 B(  1-C ,  9-H ) :   0.0795 
B(  1-C , 10-H ) :   0.0770 B(  2-C ,  3-S ) :   1.4403 B(  2-C ,  7-H ) :   0.0840 
B(  2-C ,  8-H ) :   0.0772 B(  2-C ,  9-H ) :   0.8802 B(  2-C , 10-H ) :   0.8834 
B(  2-C , 11-H ) :   0.0634 B(  3-S ,  9-H ) :   0.0587 B(  3-S , 10-H ) :   0.0539 
B(  3-S , 11-H ) :   1.0383 

------------------------------------------
LOEWDIN REDUCED ORBITAL POPULATIONS PER MO
-------------------------------------------
THRESHOLD FOR PRINTING IS 0.1%%
                      0         1         2         3         4         5   
                 -94.11851 -12.08175 -12.05209 -12.04035  -9.62981  -7.60747
                   2.00000   2.00000   2.00000   2.00000   2.00000   2.00000
                  --------  --------  --------  --------  --------  --------
 0 C  s               0.0       0.0       0.3      99.3       0.0       0.0
 1 C  s               0.0       0.1      99.1       0.3       0.0       0.0
 2 C  s               0.0      99.5       0.1       0.0       0.0       0.0
 3 S  s             100.0       0.0       0.0       0.0      99.7       0.0
 3 S  pz              0.0       0.0       0.0       0.0       0.0      74.0
 3 S  px              0.0       0.0       0.0       0.0       0.0      12.8
 3 S  py              0.0       0.0       0.0       0.0       0.0      13.2

                      6         7         8         9        10        11   
                  -7.60631  -7.60578  -1.31229  -1.23516  -1.15233  -1.05612
                   2.00000   2.00000   2.00000   2.00000   2.00000   2.00000
                  --------  --------  --------  --------  --------  --------
 0 C  s               0.0       0.0       8.6      14.7      13.2       4.7
 0 C  pz              0.0       0.0       2.3       0.7       1.0       7.1
 0 C  px              0.0       0.0       1.5       0.2       0.5       1.3
 0 C  dz2             0.0       0.0       0.1       0.1       0.0       0.7
 0 C  dxz             0.0       0.0       0.5       0.1       0.2       0.4
 1 C  s               0.0       0.0      21.2       6.3       2.1       9.4
 1 C  pz              0.0       0.0       1.1       1.3       5.0       4.2
 1 C  px              0.0       0.0       1.3       5.0       5.7       0.9
 1 C  py              0.0       0.0       0.7       0.4       1.6       2.2
 1 C  dz2             0.0       0.0       0.0       0.4       0.8       0.0
 1 C  dxz             0.0       0.0       0.0       0.6       0.4       0.3
 1 C  dx2y2           0.0       0.0       0.2       0.0       0.0       0.2
 1 C  dxy             0.0       0.0       0.4       0.0       0.3       0.7
 1 C  f+1             0.0       0.0       0.1       0.0       0.0       0.0
 2 C  s               0.0       0.0      22.1       5.0       7.5       7.6
 2 C  pz              0.0       0.0       0.4       1.6       4.2       0.2
 2 C  px              0.0       0.0       0.6       9.1       4.2       2.2
 2 C  py              0.0       0.0       1.9       0.0       0.7       6.7
 2 C  dz2             0.0       0.0       0.2       0.1       0.0       0.2
 2 C  dxz             0.0       0.0       0.1       0.7       0.2       0.7
 2 C  dyz             0.0       0.0       0.1       0.2       0.4       0.0
 2 C  dx2y2           0.0       0.0       0.2       0.0       0.0       0.2
 2 C  dxy             0.0       0.0       0.1       1.0       0.5       0.2
 2 C  f-3             0.0       0.0       0.1       0.0       0.0       0.0
 3 S  s               0.0       0.0       8.7      27.4      18.2       4.5
 3 S  pz             24.7       1.2       0.5       0.0       1.6       2.7
 3 S  px             55.3      31.9       1.2       0.4       0.5       0.8
 3 S  py             19.9      66.9       0.4       0.2       0.3       1.1
 3 S  dxz             0.0       0.0       0.3       0.0       0.4       0.3
 3 S  dyz             0.0       0.0       0.1       0.0       0.1       0.3
 3 S  dxy             0.0       0.0       0.2       0.1       0.1       0.2
 4 H  s               0.0       0.0       1.6       3.0       4.7       3.1
 4 H  pz              0.0       0.0       0.1       0.2       0.2       0.0
 4 H  px              0.0       0.0       0.0       0.1       0.1       0.2
 4 H  py              0.0       0.0       0.0       0.1       0.1       0.1
 5 H  s               0.0       0.0       1.5       3.2       4.3       3.5
 5 H  py              0.0       0.0       0.1       0.2       0.4       0.3
 6 H  s               0.0       0.0       1.5       3.3       4.6       2.6
 6 H  px              0.0       0.0       0.1       0.3       0.3       0.1
 6 H  py              0.0       0.0       0.0       0.1       0.1       0.0
 7 H  s               0.0       0.0       3.9       1.4       0.9       5.8
 7 H  pz              0.0       0.0       0.2       0.1       0.0       0.1
 7 H  px              0.0       0.0       0.1       0.0       0.2       0.1
 7 H  py              0.0       0.0       0.0       0.1       0.0       0.2
 8 H  s               0.0       0.0       3.7       1.3       0.7       6.9
 8 H  py              0.0       0.0       0.3       0.1       0.1       0.5
 9 H  s               0.0       0.0       4.2       1.4       2.9       5.4
 9 H  pz              0.0       0.0       0.3       0.2       0.2       0.4
 9 H  px              0.0       0.0       0.1       0.0       0.2       0.0
10 H  s               0.0       0.0       4.0       1.3       2.4       6.4
10 H  pz              0.0       0.0       0.0       0.0       0.1       0.1
10 H  py              0.0       0.0       0.3       0.1       0.2       0.3
11 H  s               0.0       0.0       1.8       6.4       6.4       2.6
11 H  pz              0.0       0.0       0.2       0.6       0.5       0.1
11 H  px              0.0       0.0       0.0       0.1       0.2       0.1

                     12        13        14        15        16        17   
                  -0.89942  -0.88407  -0.85514  -0.83583  -0.79782  -0.78306
                   2.00000   2.00000   2.00000   2.00000   2.00000   2.00000
                  --------  --------  --------  --------  --------  --------
 0 C  s               0.1       0.0       0.1       0.1       0.1       0.2
 0 C  pz              0.6       3.3      16.0       3.5       0.3      17.5
 0 C  px              1.2      15.3       1.8       0.3      28.6       0.6
 0 C  py              9.0       0.8       5.7      18.1       0.9       1.7
 0 C  dz2             0.0       0.1       0.2       0.0       1.1       0.3
 0 C  dxz             0.1       0.1       0.1       0.3       0.0       0.2
 0 C  dyz             0.1       0.0       0.0       0.1       0.1       0.1
 0 C  dx2y2           0.0       0.1       0.2       0.1       0.5       0.6
 0 C  dxy             0.1       0.1       0.0       0.0       0.9       0.6
 1 C  s               0.1       0.1       0.0       0.1       0.0       0.2
 1 C  pz              3.0      10.0       6.6       4.0       1.1      14.3
 1 C  px              0.9      17.7       7.7       1.0       5.3       0.2
 1 C  py             16.1       2.0       8.3       1.8       0.2       1.8
 1 C  dz2             0.1       0.0       0.0       0.1       1.2       0.3
 1 C  dxz             0.3       0.0       0.0       0.0       0.2       1.9
 1 C  dyz             0.1       0.2       0.0       0.2       0.2       0.6
 1 C  dx2y2           0.1       0.0       0.2       0.9       0.3       1.0
 1 C  dxy             0.0       0.2       0.0       0.5       0.1       0.8
 1 C  f0              0.0       0.0       0.0       0.0       0.3       0.0
 2 C  s               0.0       0.1       0.0       0.0       0.4       0.2
 2 C  pz              8.7       4.3      11.2       0.7      10.7       9.5
 2 C  px             12.6       3.8       4.7       3.2       3.3       0.8
 2 C  py              7.0       8.9       7.6       8.2       3.9       2.0
 2 C  dz2             0.1       0.1       0.1       0.2       0.2       0.2
 2 C  dxz             0.0       0.1       0.0       0.0       1.1       1.5
 2 C  dyz             0.1       0.1       0.0       0.3       0.1       0.6
 2 C  dx2y2           0.0       0.2       0.3       1.1       0.1       0.1
 2 C  dxy             0.0       0.3       0.1       0.3       0.0       0.1
 3 S  s               0.0       0.7       0.2       0.6       0.2       0.1
 3 S  pz              8.3       0.1       2.3      21.0       0.9       4.9
 3 S  px              0.1       2.6       0.6       0.3       3.7       0.0
 3 S  py              0.0       0.1       2.8       0.0       0.1       1.9
 3 S  dz2             0.1       0.1       0.3       0.2       0.3       0.6
 3 S  dxz             0.5       0.1       0.1       0.9       0.2       0.1
 3 S  dyz             0.1       0.0       0.1       0.1       0.0       0.0
 3 S  dx2y2           0.0       0.4       0.1       0.0       0.2       0.0
 3 S  dxy             0.0       0.0       0.3       0.0       0.1       0.1
 4 H  s               1.3       4.5       0.6       6.1       4.2       3.5
 4 H  pz              0.0       0.1       0.1       0.1       0.1       0.0
 4 H  px              0.1       0.0       0.1       0.1       0.1       0.0
 4 H  py              0.0       0.1       0.1       0.0       0.2       0.2
 5 H  s               1.1       0.4       7.9       4.4       0.0       4.6
 5 H  pz              0.1       0.1       0.0       0.2       0.0       0.1
 5 H  px              0.0       0.1       0.0       0.0       0.4       0.0
 5 H  py              0.0       0.0       0.3       0.0       0.0       0.1
 6 H  s               2.3       4.5       0.0       2.2      16.4       3.0
 6 H  pz              0.0       0.0       0.2       0.1       0.0       0.2
 6 H  px              0.1       0.1       0.1       0.1       0.1       0.1
 6 H  py              0.0       0.2       0.0       0.1       0.1       0.0
 7 H  s               0.6      11.6       1.0       0.0       0.2       4.3
 7 H  pz              0.1       0.2       0.0       0.1       0.0       0.0
 7 H  px              0.0       0.0       0.3       0.0       0.0       0.0
 7 H  py              0.1       0.2       0.0       0.0       0.0       0.2
 8 H  s               7.4       0.3       0.8       2.2       0.1       5.6
 8 H  pz              0.0       0.2       0.2       0.0       0.0       0.1
 8 H  px              0.0       0.2       0.2       0.0       0.1       0.0
 8 H  py              0.2       0.0       0.0       0.1       0.0       0.1
 9 H  s               6.6       3.7       1.1       0.1       8.9       4.9
 9 H  pz              0.2       0.1       0.0       0.0       0.1       0.0
 9 H  px              0.0       0.0       0.2       0.1       0.0       0.1
 9 H  py              0.1       0.1       0.1       0.1       0.0       0.0
10 H  s               6.1       1.1       6.5       4.2       0.1       3.4
10 H  pz              0.0       0.1       0.0       0.1       0.2       0.1
10 H  px              0.1       0.1       0.2       0.0       0.0       0.0
10 H  py              0.3       0.0       0.2       0.0       0.1       0.0
11 H  s               3.1       0.0       1.3      10.4       0.5       2.7

                     18        19        20        21        22        23   
                  -0.77453  -0.74103  -0.64356  -0.19741  -0.10803  -0.02250
                   2.00000   2.00000   2.00000   0.00000   0.00000   0.00000
                  --------  --------  --------  --------  --------  --------
 0 C  s               0.0       0.0       0.0       0.0       0.7       0.2
 0 C  pz              0.5       0.1       0.0       0.2       0.4       6.2
 0 C  px              1.2       0.7       0.1       0.0       0.4       1.7
 0 C  py             16.3       0.6       0.0       0.0       0.1       0.6
 0 C  dz2             0.1       0.2       0.0       0.1       0.0       1.0
 0 C  dxz             0.3       0.3       0.1       0.0       0.1       5.1
 0 C  dyz             2.6       0.4       0.0       0.0       0.0       0.8
 0 C  dx2y2           0.1       0.0       0.0       0.0       0.1       1.8
 0 C  dxy             0.2       0.0       0.0       0.0       0.1       0.5
 0 C  f+1             0.0       0.0       0.0       0.0       0.0       0.3
 0 C  f-2             0.1       0.0       0.0       0.0       0.0       0.0
 1 C  s               0.0       0.0       0.3       0.0       0.0      14.8
 1 C  pz              0.1       0.8       0.1       0.0       0.0       2.0
 1 C  px              0.5       4.0       1.2       0.7       0.0       2.0
 1 C  py             13.3       2.9       0.2       0.2       0.0       1.6
 1 C  dz2             0.1       0.2       0.0       0.0       0.1       0.1
 1 C  dxz             0.7       0.7       0.1       1.3       0.2       0.1
 1 C  dyz             2.1       0.6       0.0       0.0       0.1       0.1
 1 C  dx2y2           0.1       0.9       0.0       1.5       0.1       1.4
 1 C  dxy             0.2       0.2       0.0       0.0       0.0       1.8
 1 C  f+1             0.0       0.0       0.0       0.0       0.0       0.4
 1 C  f-2             0.1       0.0       0.0       0.1       0.0       0.1
 1 C  f+3             0.0       0.2       0.0       0.2       0.0       0.0
 1 C  f-3             0.0       0.0       0.0       0.0       0.0       0.2
 2 C  s               0.0       0.1       0.0       7.5       0.1       0.8
 2 C  pz              0.2       0.6       0.1       8.7       1.1       0.3
 2 C  px              1.7       6.1       0.4       9.2       0.7       8.2
 2 C  py              0.3       4.6       1.2       5.7       0.9       6.1
 2 C  dz2             0.4       0.8       0.0       0.1       0.8       3.2
 2 C  dxz             0.3       0.3       0.3       1.8       1.6       0.0
 2 C  dyz             0.0       0.4       0.3       0.7       1.2       0.2
 2 C  dx2y2           0.8       0.6       1.9       0.2       0.0       3.2
 2 C  dxy             0.4       0.0       1.0       1.1       0.0       7.8
 2 C  f+1             0.0       0.0       0.0       0.0       0.1       0.2
 2 C  f+2             0.0       0.0       0.1       0.0       0.0       0.0
 2 C  f-2             0.0       0.0       0.0       0.2       0.1       0.0
 2 C  f+3             0.1       0.1       0.1       0.0       0.0       0.0
 2 C  f-3             0.0       0.0       0.0       0.2       0.0       0.3
 3 S  s               2.7       6.3       0.0       2.6       8.7       0.0
 3 S  pz              6.8       0.4       1.5      18.1      16.3       0.0
 3 S  px              6.8      38.8      16.5      10.7       8.5       0.4
 3 S  py              1.6       7.5      70.8       5.2       0.6       0.8
 3 S  dz2             0.5       0.5       0.0       0.1       9.6       0.1
 3 S  dxz             0.1       0.0       0.1      10.0       6.9       0.5
 3 S  dyz             0.0       0.0       0.1       3.1       0.2       2.8
 3 S  dx2y2           0.0       0.1       0.1       0.8       1.2       2.5
 3 S  dxy             0.0       0.1       0.0       3.7       0.8       0.1
 3 S  f0              0.0       0.0       0.0       0.2       0.2       0.0
 3 S  f+1             0.1       0.2       0.0       0.0       0.9       0.0
 3 S  f+2             0.0       0.0       0.0       0.2       0.1       0.1
 3 S  f-2             0.0       0.0       0.0       0.7       0.0       0.0
 3 S  f-3             0.0       0.0       0.0       0.3       0.0       0.0
 4 H  s               7.0       1.3       0.2       0.0       1.0       0.2
 4 H  pz              0.1       0.0       0.0       0.0       0.2       0.1
 4 H  px              0.1       0.0       0.0       0.0       0.1       0.3
 4 H  py              0.0       0.0       0.0       0.0       0.0       0.1
 5 H  s               9.4       0.7       0.0       0.0       0.3       2.3
 5 H  pz              0.1       0.0       0.0       0.0       0.0       0.0
 5 H  py              0.0       0.0       0.0       0.0       0.1       0.8
 6 H  s               0.4       0.1       0.0       0.0       0.3       0.4
 6 H  pz              0.0       0.0       0.0       0.0       0.0       0.7
 6 H  px              0.1       0.0       0.0       0.0       0.1       0.1
 6 H  py              0.2       0.0       0.0       0.0       0.0       0.0
 7 H  s               4.8       5.5       0.3       0.7       0.0       4.1
 7 H  pz              0.1       0.0       0.0       0.0       0.0       1.0
 7 H  px              0.1       0.0       0.0       0.1       0.0       0.8
 8 H  s               8.3       2.9       0.2       0.2       0.0       2.6
 8 H  pz              0.1       0.1       0.0       0.0       0.0       0.3
 8 H  py              0.0       0.0       0.0       0.0       0.0       0.9
 9 H  s               1.1       0.2       0.0       0.2       0.3       0.1
 9 H  pz              0.0       0.0       0.0       0.4       0.0       0.2
 9 H  px              0.0       0.1       0.0       0.2       0.2       0.5
 9 H  py              0.0       0.1       0.0       0.2       0.1       0.5
10 H  s               0.1       4.0       1.3       0.3       0.4       1.8
10 H  pz              0.0       0.1       0.0       0.2       0.1       0.1
10 H  px              0.0       0.1       0.0       0.3       0.0       0.9
10 H  py              0.0       0.0       0.0       0.3       0.0       0.1
11 H  s               5.6       3.7       0.0       0.4      26.6       0.2
11 H  pz              0.0       0.1       0.0       0.1       5.4       0.0
11 H  px              0.0       0.2       0.2       0.4       1.3       0.0
11 H  py              0.0       0.0       0.8       0.1       0.0       0.1

                     24        25        26        27        28        29   
                  -0.01617   0.00062   0.01613   0.02703   0.04463   0.05797
                   0.00000   0.00000   0.00000   0.00000   0.00000   0.00000
                  --------  --------  --------  --------  --------  --------
 0 C  s               8.0       7.0       3.5       1.6       0.7       2.2
 0 C  pz              0.7       2.8       1.1       4.9       0.4       4.7
 0 C  px              0.6       2.8       1.3       0.1       9.6       4.2
 0 C  py              0.0       0.4       5.5       4.7       0.1       0.0
 0 C  dz2             1.2       3.9       0.5       0.4       2.4       0.4
 0 C  dxz             0.3       0.7       2.4       2.7       0.3       2.5
 0 C  dyz             0.0       0.1       0.5       4.0       3.3       0.5
 0 C  dx2y2           0.9       0.1       1.1       0.2       0.5       0.1
 0 C  dxy             0.7       0.3       1.8       0.5       0.4       1.5
 0 C  f0              0.1       0.2       0.1       0.0       0.0       0.1
 0 C  f+1             0.1       0.2       0.1       0.0       0.0       0.0
 0 C  f+2             0.1       0.0       0.2       0.0       0.0       0.0
 0 C  f-2             0.0       0.1       0.0       0.2       0.0       0.0
 0 C  f-3             0.1       0.0       0.0       0.0       0.1       0.1
 1 C  s               0.8       0.4       2.7       1.0       0.5       2.2
 1 C  pz              7.7       2.9       2.7       0.4       0.1      12.2
 1 C  px              1.3      13.2       0.1       0.7       5.8       0.3
 1 C  py              0.2       1.0       3.6       8.1       2.3       0.3
 1 C  dz2             0.0       8.0       1.4       0.7       1.1       1.9
 1 C  dxz             4.6       2.6       0.4       2.4       0.7       1.1
 1 C  dyz             0.0       1.3       3.4       0.8       1.7       0.9
 1 C  dx2y2           1.3       0.2       0.6       0.5       0.0       0.3
 1 C  dxy             4.0       3.5       0.1       2.1       0.3       1.8
 1 C  f0              0.0       0.1       0.0       0.0       0.2       0.0
 1 C  f+1             0.3       0.2       0.0       0.0       0.1       0.1
 1 C  f-1             0.1       0.0       0.0       0.0       0.0       0.0
 1 C  f+2             0.0       0.0       0.2       0.1       0.0       0.0
 1 C  f+3             0.0       0.1       0.2       0.0       0.0       0.0
 1 C  f-3             0.0       0.2       0.1       0.0       0.0       0.1
 2 C  s               6.5       4.7       0.3       0.2       4.0       0.6
 2 C  pz              2.5       0.0       5.5       2.5       2.0       2.0
 2 C  px              0.2       4.9       1.2       3.2       1.6       0.2
 2 C  py              0.5       1.3       4.5       0.2       4.6       0.2
 2 C  dz2             0.8       0.9       4.1       3.4       0.1       2.2
 2 C  dxz             3.1       0.2       0.3       1.1       1.1       0.0
 2 C  dyz             0.6       2.6       0.4       0.4       1.4       1.0
 2 C  dx2y2           0.1       0.9       1.6       0.2       0.1       0.5
 2 C  dxy             0.6       1.0       0.0       0.0       0.4       0.7
 2 C  f+1             0.3       0.0       0.0       0.0       0.2       0.0
 2 C  f+2             0.0       0.1       0.0       0.0       0.1       0.0
 2 C  f-2             0.0       0.0       0.0       0.0       0.0       0.2
 2 C  f-3             0.0       0.2       0.1       0.0       0.0       0.0
 3 S  s               0.1       0.3       0.0       0.2       0.2       0.1
 3 S  pz              0.9       0.1       0.2       0.8       0.9       0.0
 3 S  px              0.1       0.0       0.2       0.2       0.6       0.0
 3 S  py              0.2       0.5       0.1       1.9       0.0       0.7
 3 S  dz2             2.4       0.3       0.7       0.0       0.0       3.7
 3 S  dxz             0.0       0.1       1.3       1.7       0.5       0.5
 3 S  dyz             0.0       0.0       0.0       1.6       1.0       0.2
 3 S  dx2y2           0.0       0.9       0.3       2.0       0.1       0.0
 3 S  dxy             0.6       0.0       1.7       1.4       0.1       1.2
 3 S  f+1             0.2       0.0       0.0       0.0       0.0       0.1
 4 H  s               1.7       4.4       0.5      12.3       1.2       1.0
 4 H  pz              0.2       1.7       0.0       1.3       0.4       0.1
 4 H  px              0.3       0.0       0.0       1.3       0.2       0.8
 4 H  py              0.1       0.4       0.5       1.2       0.2       0.1
 5 H  s               3.0       1.2      11.6       0.3       0.7       3.6
 5 H  pz              0.2       0.4       0.9       0.7       0.1       0.1
 5 H  px              0.0       0.3       0.5       0.0       0.1       0.2
 5 H  py              0.8       0.2       2.5       0.1       0.3       1.7
 6 H  s               7.7       1.4       0.6       1.0      10.1       7.2
 6 H  pz              0.0       0.0       0.0       0.3       0.2       0.6
 6 H  px              2.1       0.2       0.0       0.5       2.1       1.2
 6 H  py              0.5       0.0       0.1       0.0       0.9       0.8
 7 H  s               7.1       1.9       0.2       0.6       5.7      14.3
 7 H  pz              0.4       1.1       0.0       0.3       1.7       1.0
 7 H  px              0.6       0.1       0.0       0.1       0.2       2.2
 7 H  py              0.9       0.3       0.0       0.3       0.2       2.1
 8 H  s               2.2       0.4       6.3       9.0       1.8       3.5
 8 H  pz              0.1       0.1       1.4       0.5       0.2       0.2
 8 H  px              0.2       1.0       0.0       0.6       0.0       0.3
 8 H  py              0.7       0.3       1.3       1.7       0.2       1.8
 9 H  s              10.9       1.4       3.9       6.7       8.5       2.1
 9 H  pz              2.3       0.0       0.7       1.9       2.6       0.5
 9 H  px              1.1       0.2       0.1       0.1       0.9       0.1
 9 H  py              0.1       0.1       0.1       0.0       0.2       0.0
10 H  s               2.3       7.9       9.0       0.2       7.6       0.5
10 H  pz              0.4       0.5       0.0       0.1       1.0       0.6
10 H  px              0.0       0.2       0.0       0.1       0.2       0.0
10 H  py              0.3       2.5       2.8       0.1       1.7       0.0
11 H  s               0.9       0.0       0.1       0.9       0.3       1.1
11 H  pz              0.1       0.0       0.0       0.1       0.0       0.1
11 H  px              0.0       0.0       0.2       0.0       0.1       0.4
11 H  py              0.0       0.0       0.0       0.2       0.0       0.0

                     30        31        32        33        34        35   
                   0.05906   0.07162   0.14178   0.15662   0.16274   0.17221
                   0.00000   0.00000   0.00000   0.00000   0.00000   0.00000
                  --------  --------  --------  --------  --------  --------
 0 C  s               0.0       0.1       0.2       0.5       0.1       0.2
 0 C  pz              4.1       4.2       0.8       1.3       9.3       0.3
 0 C  px              6.5       1.8       3.3       2.2       9.5       0.4
 0 C  py              3.7      11.7       0.2       2.3       0.3       0.1
 0 C  dz2             0.0       2.1       0.0       0.1       1.2       1.6
 0 C  dxz             1.5       0.3       0.3       0.0       0.9       0.1
 0 C  dyz             0.6       0.6       1.3       1.4       0.4       0.2
 0 C  dx2y2           1.4       6.6       0.2       0.4       0.5       0.1
 0 C  dxy             5.0       2.0       0.7       0.1       0.2       0.1
 0 C  f+1             0.0       0.1       0.0       0.1       0.1       0.0
 0 C  f-1             0.2       0.0       0.1       0.0       0.0       0.0
 1 C  s               0.1       0.3       0.3       0.7       0.3       0.1
 1 C  pz              0.4       0.1       0.5       2.4       9.2       7.1
 1 C  px              2.4       2.6       2.1       0.5       0.6       9.7
 1 C  py              7.0       1.5       3.0       1.1       0.6       1.2
 1 C  dz2             0.2       0.0       0.0       0.0       1.2       0.2
 1 C  dxz             0.1       0.5       0.6       0.4       1.2       0.0
 1 C  dyz             0.9       1.0       0.8       0.3       0.0       1.1
 1 C  dx2y2           2.7       1.6       0.0       0.1       0.4       0.3
 1 C  dxy             0.2       0.0       0.0       0.9       0.1       5.4
 1 C  f0              0.2       0.1       0.0       0.0       0.0       0.0
 1 C  f-2             0.0       0.3       0.0       0.0       0.0       0.0
 1 C  f-3             0.0       0.0       0.0       0.0       0.0       0.2
 2 C  s               0.0       0.2       1.2       0.1       0.0       0.2
 2 C  pz              0.5       3.4      11.5       6.2       1.6       0.4
 2 C  px              0.9       0.2       1.3      11.6       0.2       2.9
 2 C  py              0.6       2.7       0.4       0.0       4.5      16.8
 2 C  dz2             0.5       0.1       1.0       2.3       0.2       0.0
 2 C  dxz             0.2       0.4       0.0       0.0       1.0       0.5
 2 C  dyz             0.5       0.2       0.1       0.3       1.2       0.1
 2 C  dx2y2           0.8       3.4       0.2       0.0       0.0       1.6
 2 C  dxy             1.9       1.1       0.9       0.2       0.1       1.1
 2 C  f+1             0.0       0.0       0.0       0.2       0.0       0.0
 2 C  f+2             0.0       0.0       0.0       0.0       0.1       0.2
 2 C  f+3             0.2       0.0       0.1       0.0       0.0       0.0
 2 C  f-3             0.0       0.0       0.2       0.0       0.0       0.0
 3 S  s               0.2       0.1       5.5       2.1       0.0       0.4
 3 S  pz              0.3       0.0       2.4       2.7       1.8       1.6
 3 S  px              0.4       0.1       3.3       5.8       0.6       0.9
 3 S  py              0.3       0.8       0.0       0.3       0.1       1.0
 3 S  dz2             6.4       0.2      17.5       3.2       1.3       0.3
 3 S  dxz             0.9       0.9       0.4       4.7       6.5       1.2
 3 S  dyz             0.5       2.3       5.5       4.1      10.3      10.8
 3 S  dx2y2           0.7       0.8       1.8       0.4      12.6      12.5
 3 S  dxy             1.1       1.3       0.6      19.7       4.5       2.4
 4 H  s              12.5       0.2       2.6       0.4       0.8       0.0
 4 H  pz              1.6       0.5       0.3       0.5       0.4       0.1
 4 H  px              1.4       0.0       0.0       0.0       0.0       0.1
 4 H  py              0.8       0.8       0.3       0.0       0.0       0.1
 5 H  s               2.7      14.4       0.1       1.8       1.5       0.3
 5 H  pz              0.6       0.3       0.2       0.0       0.1       0.0
 5 H  px              0.3       0.7       0.0       0.0       0.3       0.0
 5 H  py              0.4       3.5       0.1       0.0       0.0       0.3
 6 H  s               2.5       8.6       1.6       1.6       0.9       0.5
 6 H  pz              0.1       0.0       0.1       0.1       0.0       0.0
 6 H  px              0.2       3.0       0.2       0.1       0.1       0.2
 6 H  py              1.6       0.0       0.0       0.2       0.0       0.0
 7 H  s               3.1       0.1       1.2       0.5       1.8       4.3
 7 H  pz              0.7       0.1       0.0       0.0       0.4       0.2
 7 H  px              0.2       0.2       0.0       0.0       0.0       0.3
 7 H  py              0.0       0.3       0.0       0.2       0.0       0.1
 8 H  s               9.9       1.3       1.4       0.9       0.4       0.4
 8 H  pz              0.6       0.0       0.0       0.1       0.1       0.2
 8 H  px              0.0       0.1       0.0       0.1       0.1       0.9
 8 H  py              2.2       0.3       0.4       0.1       0.4       0.2
 9 H  s               0.7       1.0       3.6       5.6       1.3       0.4
 9 H  pz              0.2       0.1       0.6       0.5       0.3       0.0
 9 H  px              0.0       0.1       0.3       0.4       0.1       0.0
 9 H  py              0.3       0.3       0.0       0.1       0.1       0.1
10 H  s               1.0       5.7       0.8       0.9       1.4       5.7
10 H  pz              0.0       0.0       0.0       0.3       0.0       0.1
10 H  px              0.1       0.1       0.2       0.0       0.1       0.1
10 H  py              0.1       1.9       0.0       0.2       0.6       0.5
11 H  s               1.2       0.1      15.1       3.7       3.8       1.0
11 H  pz              0.0       0.0       0.6       1.0       0.5       0.1
11 H  px              0.6       0.0       1.0       0.7       0.6       0.0
11 H  py              0.1       0.0       0.7       0.9       1.0       0.2

                     36        37        38        39        40        41   
                   0.17441   0.19803   0.20217   0.21808   0.22816   0.25169
                   0.00000   0.00000   0.00000   0.00000   0.00000   0.00000
                  --------  --------  --------  --------  --------  --------
 0 C  s               0.2       0.1       0.0       0.3       0.1       0.3
 0 C  pz              4.0      16.9       1.9       5.9       1.1       0.2
 0 C  px              1.7       1.5       1.5       4.4       0.9      10.3
 0 C  py              0.0      15.3       9.7      11.8       3.5       5.2
 0 C  dz2             0.0       0.2       0.2       1.4       0.0       0.0
 0 C  dxz             0.3       4.4       0.6       0.1       0.0       0.2
 0 C  dyz             0.1       2.0       0.2       0.7       0.2       0.0
 0 C  dx2y2           0.2       0.6       2.0       2.1       1.5       2.8
 0 C  dxy             1.9       1.1       0.2       0.0       1.1       4.5
 1 C  s               0.0       0.0       0.2       0.6       0.1       0.0
 1 C  pz              0.0       6.9       2.6       2.6       0.2       1.9
 1 C  px              1.7       2.1       0.1       0.3       1.5       8.5
[...]
 9 H  s               0.7       1.4      11.9       0.4       0.2       0.1
 9 H  pz              0.2       0.3       2.9       0.0       0.1       0.0
 9 H  px              0.4       0.0       0.8       0.0       0.0       0.0
 9 H  py              0.5       0.2       0.0       0.0       0.0       0.0
10 H  s               4.0       5.4       0.5       3.7       0.1       5.0
10 H  pz              0.2       0.1       0.6       0.1       0.0       0.2
10 H  px              0.2       0.1       0.1       0.0       0.2       0.0
10 H  py              0.8       1.4       0.1       1.3       0.1       1.2

                    168       169       170       171       172       173   
                   4.37528   4.56290   4.57811   7.89460   7.96486   8.29336
                   0.00000   0.00000   0.00000   0.00000   0.00000   0.00000
                  --------  --------  --------  --------  --------  --------
 0 C  s               3.6      17.1       0.2       0.0       0.0       0.0
 0 C  pz              0.5       4.9       0.7       0.0       0.0       0.0
 0 C  px              0.6       1.8       0.4       0.0       0.0       0.0
 0 C  py              0.2       0.1       0.0       0.0       0.0       0.0
 0 C  dz2             2.0       2.2       1.0       0.0       0.0       0.0
 0 C  dxz             0.6       5.1       2.0       0.0       0.0       0.0
 0 C  dyz             0.2       0.3       0.1       0.0       0.0       0.0
 0 C  dx2y2           2.9       0.6       0.2       0.0       0.0       0.0
 0 C  dxy             3.6       0.2       0.2       0.0       0.0       0.0
 0 C  f0             13.5       0.2       0.1       0.0       0.0       0.0
 0 C  f+1             0.7       8.6       0.1       0.0       0.0       0.0
 0 C  f-1             5.1       0.2       0.0       0.0       0.0       0.0
 0 C  f+2             0.5       4.0       0.0       0.0       0.0       0.0
 0 C  f-2             1.4       2.1       0.1       0.0       0.0       0.0
 0 C  f+3             0.0       0.1       0.0       0.0       0.0       0.0
 0 C  f-3             0.4       0.7       0.0       0.0       0.0       0.0
 1 C  s               1.3       3.9      19.4       0.0       0.0       0.0
 1 C  pz              1.4       4.8       1.0       0.0       0.0       0.0
 1 C  px              0.5       4.7       3.9       0.0       0.0       0.0
 1 C  py              0.0       0.6       1.2       0.0       0.0       0.0
 1 C  dz2             0.4       6.5       1.6       0.0       0.0       0.0
 1 C  dxz             0.8       8.8       0.0       0.0       0.0       0.0
 1 C  dyz             0.1       0.4       0.1       0.0       0.0       0.0
 1 C  dx2y2           0.9       0.0       1.9       0.0       0.0       0.0
 1 C  dxy             1.6       0.6       5.0       0.0       0.0       0.0
 1 C  f0             11.5       2.5       0.0       0.0       0.0       0.0
 1 C  f+1             1.2       4.1       7.4       0.0       0.0       0.0
 1 C  f-1             0.5       0.0       0.5       0.0       0.0       0.0
 1 C  f+2             1.1       0.6       2.4       0.0       0.0       0.0
 1 C  f-2             1.7       0.0       2.3       0.0       0.0       0.0
 1 C  f+3             0.6       0.1       0.2       0.0       0.0       0.0
 1 C  f-3             5.8       0.0       6.7       0.0       0.0       0.0
 2 C  s               0.8       3.7       9.7       0.0       0.0       0.3
 2 C  pz              0.2       0.2       0.0       0.0       0.0       0.1
 2 C  px              0.3       0.8       5.8       0.0       0.0       0.1
 2 C  py              0.0       0.3       2.2       0.0       0.0       0.0
 2 C  dz2             0.3       0.0       2.9       0.0       0.0       0.0
 2 C  dxz             2.7       0.3       0.2       0.0       0.0       0.0
 2 C  dyz             0.8       0.0       0.1       0.0       0.0       0.0
 2 C  dx2y2           0.5       0.1       2.6       0.0       0.0       0.0
 2 C  dxy             0.2       0.5       6.9       0.0       0.0       0.0
 2 C  f0              1.7       0.5       0.0       0.0       0.0       0.0
 2 C  f+1             6.1       1.6       2.8       0.0       0.0       0.0
 2 C  f-1             1.0       0.3       0.9       0.0       0.0       0.0
 2 C  f+2             0.0       0.0       0.2       0.0       0.0       0.0
 2 C  f-2             0.6       0.0       0.0       0.0       0.0       0.1
 2 C  f+3             0.1       0.0       0.1       0.0       0.0       0.0
 2 C  f-3             0.0       1.8       4.0       0.0       0.0       0.0
 3 S  s               0.0       0.0       0.0       0.0       0.0       0.6
 3 S  pz              0.0       0.0       0.0       3.3      62.6      33.5
 3 S  px              0.0       0.0       0.0      13.9      36.3      48.6
 3 S  py              0.0       0.0       0.0      82.7       0.8      16.1
 4 H  s               4.3       0.5       0.0       0.0       0.0       0.0
 4 H  pz              0.5       0.0       0.0       0.0       0.0       0.0
 4 H  px              0.3       0.0       0.0       0.0       0.0       0.0
 5 H  s               4.0       0.6       0.0       0.0       0.0       0.0
 5 H  pz              0.4       0.0       0.0       0.0       0.0       0.0
 5 H  py              0.5       0.0       0.1       0.0       0.0       0.0
 6 H  s               1.4       1.3       0.2       0.0       0.0       0.0
 6 H  pz              0.1       0.0       0.0       0.0       0.0       0.0
 6 H  px              0.4       0.0       0.1       0.0       0.0       0.0
 6 H  py              0.1       0.0       0.0       0.0       0.0       0.0
 7 H  s               1.0       0.0       0.6       0.0       0.0       0.0
 7 H  pz              0.4       0.0       0.0       0.0       0.0       0.0
 8 H  s               0.9       0.2       1.0       0.0       0.0       0.0
 8 H  pz              0.2       0.0       0.0       0.0       0.0       0.0
 8 H  px              0.1       0.0       0.0       0.0       0.0       0.0
 8 H  py              0.1       0.0       0.0       0.0       0.0       0.0
 9 H  s               3.3       0.8       0.3       0.0       0.0       0.0
 9 H  pz              0.8       0.1       0.0       0.0       0.0       0.0
 9 H  px              0.0       0.1       0.0       0.0       0.0       0.0
10 H  s               0.1       0.1       0.2       0.0       0.0       0.0

                    174       175       176       177   
                  18.00811  20.66527  20.71757  20.84705
                   0.00000   0.00000   0.00000   0.00000
                  --------  --------  --------  --------
 0 C  s               0.0       0.8      94.4       3.3
 1 C  s               0.1       4.2       2.5      92.0
 1 C  px              0.0       0.1       0.0       0.0
 2 C  s               1.3      92.5       1.6       3.5
 2 C  pz              0.1       0.1       0.0       0.0
 2 C  px              0.1       0.0       0.0       0.1
 2 C  py              0.1       0.1       0.0       0.0
 3 S  s              97.1       1.0       0.0       0.0
 3 S  px              0.4       0.0       0.0       0.0
 4 H  s               0.0       0.0       0.2       0.0
 5 H  s               0.0       0.0       0.2       0.0
 6 H  s               0.0       0.0       0.2       0.0
 7 H  s               0.0       0.0       0.0       0.2
 8 H  s               0.0       0.0       0.0       0.2
 9 H  s               0.0       0.3       0.0       0.0
10 H  s               0.0       0.3       0.0       0.0
11 H  s               0.2       0.0       0.0       0.0


                      *****************************
                      * MAYER POPULATION ANALYSIS *
                      *****************************

  NA   - Mulliken gross atomic population
  ZA   - Total nuclear charge
  QA   - Mulliken gross atomic charge
  VA   - Mayer's total valence
  BVA  - Mayer's bonded valence
  FA   - Mayer's free valence

  ATOM       NA         ZA         QA         VA         BVA        FA
  0 C      6.3729     6.0000    -0.3729     3.9381     3.9381    -0.0000
  1 C      6.1196     6.0000    -0.1196     3.8246     3.8246     0.0000
  2 C      6.1908     6.0000    -0.1908     3.9407     3.9407     0.0000
  3 S     16.2284    16.0000    -0.2284     2.0675     2.0675    -0.0000
  4 H      0.8880     1.0000     0.1120     0.9823     0.9823    -0.0000
  5 H      0.8933     1.0000     0.1067     0.9698     0.9698     0.0000
  6 H      0.8824     1.0000     0.1176     0.9766     0.9766    -0.0000
  7 H      0.9087     1.0000     0.0913     0.9694     0.9694    -0.0000
  8 H      0.8993     1.0000     0.1007     0.9804     0.9804     0.0000
  9 H      0.8739     1.0000     0.1261     0.9706     0.9706    -0.0000
 10 H      0.8778     1.0000     0.1222     0.9701     0.9701     0.0000
 11 H      0.8647     1.0000     0.1353     0.9741     0.9741     0.0000

  Mayer bond orders larger than 0.100000
B(  0-C ,  1-C ) :   0.9762 B(  0-C ,  4-H ) :   0.9799 B(  0-C ,  5-H ) :   0.9770 
B(  0-C ,  6-H ) :   0.9805 B(  1-C ,  2-C ) :   0.9626 B(  1-C ,  7-H ) :   0.9621 
B(  1-C ,  8-H ) :   0.9718 B(  2-C ,  3-S ) :   1.0352 B(  2-C ,  9-H ) :   0.9657 
B(  2-C , 10-H ) :   0.9711 B(  3-S , 11-H ) :   0.9721 

-------
TIMINGS
-------

Total SCF time: 0 days 0 hours 0 min 42 sec 

Total time                  ....      42.062 sec
Sum of individual times     ....      40.842 sec  ( 97.1%)

SCF preparation             ....       0.179 sec  (  0.4%)
Fock matrix formation       ....      39.865 sec  ( 94.8%)
  Startup                   ....       0.047 sec  (  0.1% of F)
  Split-RI-J                ....       1.363 sec  (  3.4% of F)
  Chain of spheres X        ....      32.631 sec  ( 81.9% of F)
  XC integration            ....       6.148 sec  ( 15.4% of F)
    XC Preparation          ....       0.000 sec  (  0.0% of XC)
    Basis function eval.    ....       1.462 sec  ( 23.8% of XC)
    Density eval.           ....       1.002 sec  ( 16.3% of XC)
    XC-Functional eval.     ....       1.409 sec  ( 22.9% of XC)
    XC-Potential eval.      ....       1.604 sec  ( 26.1% of XC)
Diagonalization             ....       0.000 sec  (  0.0%)
Density matrix formation    ....       0.155 sec  (  0.4%)
Total Energy calculation    ....       0.034 sec  (  0.1%)
Population analysis         ....       0.076 sec  (  0.2%)
Orbital Transformation      ....       0.046 sec  (  0.1%)
Orbital Orthonormalization  ....       0.000 sec  (  0.0%)
DIIS solution               ....       0.237 sec  (  0.6%)
  MO trafo                  ....       0.000 sec  (  0.0 % of DIIS)
  Orb grad                  ....       0.000 sec  (  0.0 % of DIIS)
  Energy W gradient         ....       0.000 sec  (  0.0 % of DIIS)
  DIIS error                ....       0.003 sec  (  1.5 % of DIIS)
  DIIS work                 ....       0.201 sec  ( 84.8 % of DIIS)
  Form Q                    ....       0.000 sec  (  0.0 % of DIIS)
  Form QpQm                 ....       0.000 sec  (  0.0 % of DIIS)
  Exp/Cayley                ....       0.000 sec  (  0.0 % of DIIS)
  Orb update                ....       0.000 sec  (  0.0 % of DIIS)
  Wake-sleep                ....       0.010 sec  (  4.2 % of DIIS)
SOSCF solution              ....       0.156 sec  (  0.4%)
  MO trafo                  ....       0.056 sec  ( 35.6 % of SOSCF)
  Orb grad                  ....       0.002 sec  (  1.5 % of SOSCF)
  Rot update                ....       0.059 sec  ( 37.9 % of SOSCF)
  Step                      ....       0.039 sec  ( 24.9 % of SOSCF)
Grid generation             ....       0.095 sec  (  0.2%)
Finished LeanSCF after  42.2 sec

Maximum memory used throughout the entire LEANSCF-calculation: 19.7 MB
------------------   -----------------
gCP correction             0.008329157
------------------   -----------------

-------------------------   --------------------
FINAL SINGLE POINT ENERGY      -517.280672459388
-------------------------   --------------------


------------------------------------------------------------------------------
                              ORCA PROPERTY CALCULATIONS
------------------------------------------------------------------------------

GBWName                                 ... sp_gas.gbw
Number of atoms                         ...     12
Number of basis functions               ...    178
Max core memory                         ...   1024 MB

Electric properties:
Dipole moment                           ... YES
Quadrupole moment                       ...  NO
Static polarizability (Dipole/Dipole)   ...  NO
Static polarizability (Dipole/Quad.)    ...  NO
Static polarizability (Quad./Quad.)     ...  NO
Static polarizability (Velocity)        ...  NO

Atomic electric properties:
Dipole moment                           ...  NO
Quadrupole moment                       ...  NO
Static polarizability                   ...  NO

Choice of electric origin               ... Center of mass
Position of electric origin             ...     0.024911     0.018266     0.019947

General magnetic properties:
Magnetizability                         ...  NO

EPR properties:
g-Tensor (aka g-matrix)                 ...  NO
Zero-Field splitting spin-orbit         ...  NO
Zero-field splitting spin-spin          ...  NO
Hyperfine couplings                     ...  NO (   0 nuclei)
Quadrupole couplings                    ...  NO (   0 nuclei)
Contact density                         ...  NO (   0 nuclei)

NMR properties:
Chemical shifts                         ...  NO (   0 nuclei)
Spin-rotation constants                 ...  NO (   0 nuclei)
Spin-spin couplings                     ...  NO (   0 nuclei,    0 pairs)

Choice of magnetic origin               ... GIAO
Position of magnetic origin             ...     0.000000     0.000000     0.000000

Properties with geometric perturbations:
SCF Hessian                             ...  NO
IR spectrum                             ...  NO
VCD spectrum                            ...  NO
X-ray spectroscopy properties:
SCF XES/XAS/RIXS spectra                ...  NO


-------------
DIPOLE MOMENT
-------------

Method             : SCF
Type of density    : Electron Density
Multiplicity       :   1
Irrep              :   0
Energy             :  -517.2890016159881270 Eh
Relativity type    : 
Basis              : AO
                                X                 Y                 Z
Electronic contribution:      6.948137239      -0.614900296       0.489066003
Nuclear contribution   :     -7.577162820       0.873305377      -0.608868217
                        -----------------------------------------
Total Dipole Moment    :     -0.629025581       0.258405081      -0.119802214
                        -----------------------------------------
Magnitude (a.u.)       :      0.690506291
Magnitude (Debye)      :      1.755127509



--------------------
Rotational spectrum 
--------------------
 
Rotational constants in cm-1:             0.383367             0.106268             0.091505 
Rotational constants in MHz :         11493.057210          3185.845580          2743.240598 

Dipole components along the rotational axes: 
x,y,z [a.u.] :     0.633393    -0.144279     0.234085 
x,y,z [Debye]:     1.609958    -0.366727     0.594996 

 

Dipole moment calculation done in   0.0 sec 

Maximum memory used throughout the entire PROP-calculation: 11.3 MB

--------------------------------
SUGGESTED CITATIONS FOR THIS RUN
--------------------------------

Below you find a list of papers that are relevant to this ORCA run
We neither can nor want to force you to cite these papers, but we appreciate if you do
You receive ORCA, which is the product of decades of hard work by many enthusiastic individuals, for free
The only thing we kindly ask in return is that you cite our papers,
We deeply appreciate it, if you show your appreciation for ORCA by not just citing the generic ORCA reference.

Please note that relegating all ORCA citations to the supporting information does *not* help us.
SI sections are not indexed - citations you put there will not count into any citation statistics
But we need these citations in order to attract the funding resources that allow us to do what we are doing

Therefore, if you are a happy ORCA user, please consider citing a few of the papers listed below in the main body of your paper

In addition to the list printed below, the program has created the file sp_gas.bibtex that contains the list in bibtex format
You can import this file easily into all common literature databanks and citation aid programs


List of essential papers. We consider these as the minimum necessary citations

  1. Neese,F.
     Software update: the ORCA program system, version 5.0
     WIRES Comput. Molec. Sci., 2022 12(1)e1606
     doi.org/10.1002/wcms.1606

List of papers to cite with high priority. The work reported in these papers was absolutely
necessary for this run to complete.
Our perspective: the developers of density functionals and basis sets usually get cited in chemistry papers
Good! But without the algorithms to do something with them, the functionals or basis sets would not do anything.
Hence, in our opinion, the algorithm design and method developments papers are equally worthy of getting cited

  1. Neese,F.
     An improvement of the resolution of the identity approximation for the formation of the Coulomb matrix
     J. Comp. Chem., 2003 24(14)1740-1747
     doi.org/10.1002/jcc.10318
  2. Neese,F.; Wennmohs,F.; Hansen,A.; Becker,U.
     Efficient, approximate and parallel Hartree-Fock and hybrid DFT calculations. A 'chain-of-spheres' algorithm for the Hartree-Fock exchange
     Chem. Phys., 2009 356(1-3)98-109
     doi.org/10.1016/j.chemphys.2008.10.036
  3. Helmich-Paris,B.; de Souza,B.; Neese,F.; Izsák,R.
     An improved chain of spheres for exchange algorithm
     J. Chem. Phys., 2021 155 104109
     doi.org/doi: 10.1063/5.0058766.
  4. Neese,F.
     The SHARK Integral Generation and Digestion System
     J. Comp. Chem., 2022  1-16
     doi.org/10.1002/jcc.26942

List of suggested additional citations. These are papers that are important in the 'surrounding' of 
of this run, or papers that preceded the highly important papers. If you like your results we are grateful for a citation.

  1. Izsak,R.; Neese,F.
     An overlap fitted chain of spheres exchange method
     J. Chem. Phys., 2011 135 144105
     doi.org/10.1063/1.3646921
  2. Izsak,R.; Hansen,A.; Neese,F.
     The resolution of identity and chain of spheres approximations for the LPNO-CCSD singles Fock term
     Molec. Phys., 2012 110 2413-2417
     doi.org/10.1080/00268976.2012.687466
  3. Neese,F.
     The ORCA program system
     WIRES Comput. Molec. Sci., 2012 2(1)73-78
     doi.org/10.1002/wcms.81
  4. Izsak,R.; Neese,F.; Klopper,W.
     Robust fitting techniques in the chain of spheres approximation to the Fock exchange: The role of the complementary space
     J. Chem. Phys., 2013 139 
     doi.org/10.1063/1.4819264
  5. Neese,F.
     Software update: the ORCA program system, version 4.0
     WIRES Comput. Molec. Sci., 2018 8(1)1-6
     doi.org/10.1002/wcms.1327
  6. Neese,F.; Wennmohs,F.; Becker,U.; Riplinger,C.
     The ORCA quantum chemistry program package
     J. Chem. Phys., 2020 152 Art. No. L224108
     doi.org/10.1063/5.0004608

List of optional additional citations

  1. Neese,F.
     Approximate second-order SCF convergence for spin unrestricted wavefunctions
     Chem. Phys. Lett., 2000 325(1-3)93-98
     doi.org/10.1016/s0009-2614(00)00662-x

Timings for individual modules:

Sum of individual times          ...       43.595 sec (=   0.727 min)
Startup calculation              ...        1.117 sec (=   0.019 min)   2.6 %
SCF iterations                   ...       42.393 sec (=   0.707 min)  97.2 %
Property calculations            ...        0.085 sec (=   0.001 min)   0.2 %
                             ****ORCA TERMINATED NORMALLY****
TOTAL RUN TIME: 0 days 0 hours 0 minutes 44 seconds 193 msec
