
                                 *****************
                                 * O   R   C   A *
                                 *****************

                                            #,                                       
                                            ###                                      
                                            ####                                     
                                            #####                                    
                                            ######                                   
                                           ########,                                 
                                     ,,################,,,,,                         
                               ,,#################################,,                 
                          ,,##########################################,,             
                       ,#########################################, ''#####,          
                    ,#############################################,,   '####,        
                  ,##################################################,,,,####,       
                ,###########''''           ''''###############################       
              ,#####''   ,,,,##########,,,,          '''####'''          '####       
            ,##' ,,,,###########################,,,                        '##       
           ' ,,###''''                  '''############,,,                           
         ,,##''                                '''############,,,,        ,,,,,,###''
      ,#''                                            '''#######################'''  
     '                                                          ''''####''''         
             ,#######,   #######,   ,#######,      ##                                
            ,#'     '#,  ##    ##  ,#'     '#,    #''#        ,####,   ,####,        
            ##       ##  ##   ,#'  ##            #'  '#       #'       #'  '#        
            ##       ##  #######   ##           ,######,      #####,   #    #        
            '#,     ,#'  ##    ##  '#,     ,#' ,#      #,     #,   #   #,  ,#        
             '#######'   ##     ##  '#######'  #'      '#     '####' # '####'        



                #########################################################
                #                        -***-                          #
                #          Department of theory and spectroscopy        #
                #                                                       #
                #                      Frank Neese                      #
                #                                                       #
                #     Directorship, Architecture, Infrastructure        #
                #                    SHARK, DRIVERS                     #
                #        Core code/Algorithms in most modules           #
                #                                                       #
                #        Max Planck Institute fuer Kohlenforschung      #
                #                Kaiser Wilhelm Platz 1                 #
                #                 D-45470 Muelheim/Ruhr                 #
                #                      Germany                          #
                #                                                       #
                #                  All rights reserved                  #
                #                        -***-                          #
                #########################################################


                         Program Version 6.0.0  -   RELEASE  -


 With contributions from (in alphabetic order):
   Daniel Aravena         : Magnetic Suceptibility
   Michael Atanasov       : Ab Initio Ligand Field Theory (pilot matlab implementation)
   Alexander A. Auer      : GIAO ZORA, VPT2 properties, NMR spectrum
   Ute Becker             : All parallelization in ORCA, NUMFREQ, NUMCALC
   Giovanni Bistoni       : ED, misc. LED, open-shell LED, HFLD
   Martin Brehm           : Molecular dynamics
   Dmytro Bykov           : pre 5.0 version of the SCF Hessian
   Marcos Casanova-Páez   : Triplet and SCS-CIS(D). UHF-(DLPNO)-IP/EA/STEOM-CCSD. UHF-CVS-IP/STEOM-CCSD
   Vijay G. Chilkuri      : MRCI spin determinant printing, contributions to CSF-ICE
   Pauline Colinet        : FMM embedding
   Dipayan Datta          : RHF DLPNO-CCSD density
   Achintya Kumar Dutta   : EOM-CC, STEOM-CC
   Nicolas Foglia         : Exact transition moments, OPA infrastructure, MCD improvements
   Dmitry Ganyushin       : Spin-Orbit,Spin-Spin,Magnetic field MRCI
   Miquel Garcia          : C-PCM and meta-GGA Hessian, CCSD/C-PCM, Gaussian charge scheme
   Tiago L. C. Gouveia    : GS-ROHF, GS-ROCIS
   Yang Guo               : DLPNO-NEVPT2, F12-NEVPT2, CIM, IAO-localization
   Andreas Hansen         : Spin unrestricted coupled pair/coupled cluster methods
   Ingolf Harden          : AUTO-CI MPn and infrastructure 
   Benjamin Helmich-Paris : MC-RPA, TRAH-(SCF,CASSCF), AVAS, COSX integrals, SCF dyn. polar.
   Lee Huntington         : MR-EOM, pCC
   Robert Izsak           : Overlap fitted RIJCOSX, COSX-SCS-MP3, EOM
   Riya Kayal             : Wick's Theorem for AUTO-CI, AUTO-CI UHF-CCSDT
   Emily Kempfer          : AUTO-CI, RHF CISDT and CCSDT
   Christian Kollmar      : KDIIS, OOCD, Brueckner-CCSD(T), CCSD density, CASPT2, CASPT2-K, improved NEVPT2
   Axel Koslowski         : Symmetry handling
   Simone Kossmann        : Meta GGA functionals, TD-DFT gradient, OOMP2, (MP2 Hessian; deprecated post 5.0)
   Lucas Lang             : DCDCAS
   Marvin Lechner         : AUTO-CI (C++ implementation), FIC-MRCC
   Spencer Leger          : CASSCF response
   Dagmar Lenk            : GEPOL surface, SMD, ORCA-2-JSON
   Dimitrios Liakos       : Extrapolation schemes; Compound Job, initial MDCI parallelization
   Dimitrios Manganas     : Further ROCIS development; embedding schemes. LFT, Crystal Embedding
   Dimitrios Pantazis     : SARC Basis sets
   Anastasios Papadopoulos: AUTO-CI, single reference methods and gradients
   Taras Petrenko         : pre 6.0 DFT Hessian and TD-DFT gradient, (ASA, deprecated), ECA, 1-Electron XAS/XES, NRVS
   Peter Pinski           : DLPNO-MP2, DLPNO-MP2 Gradient
   Christoph Reimann      : Effective Core Potentials
   Marius Retegan         : Local ZFS, SOC
   Christoph Riplinger    : Optimizer, TS searches, QM/MM, DLPNO-CCSD(T), (RO)-DLPNO pert. Triples
   Michael Roemelt        : Original ROCIS implementation
   Masaaki Saitow         : Open-shell DLPNO-CCSD energy and density
   Barbara Sandhoefer     : DKH picture change effects
   Kantharuban Sivalingam : CASSCF convergence/infrastructure, NEVPT2 and variants, FIC-MRCI
   Bernardo de Souza      : ESD, SOC TD-DFT
   Georgi Stoychev        : AutoAux, RI-MP2 NMR, DLPNO-MP2 response, X2C
   Van Anh Tran           : RI-MP2 g-tensors
   Willem Van den Heuvel  : Paramagnetic NMR
   Zikuan Wang            : NOTCH, Electric field optimization 
   Frank Wennmohs         : Technical directorship and infrastructure
   Hang Xu                : AUTO-CI-Response properties 


 We gratefully acknowledge several colleagues who have allowed us to
 interface, adapt or use parts of their codes:
   Stefan Grimme, W. Hujo, H. Kruse, P. Pracht,  : VdW corrections, initial TS optimization,
                  C. Bannwarth, S. Ehlert,         DFT functionals, gCP, sTDA/sTD-DF
                  L. Wittmann, M. Mueller
   Ed Valeev, F. Pavosevic, A. Kumar             : LibInt (2-el integral package), F12 methods
   Garnet Chan, S. Sharma, J. Yang, R. Olivares  : DMRG
   Ulf Ekstrom                                   : XCFun DFT Library
   Mihaly Kallay                                 : mrcc  (arbitrary order and MRCC methods)
   Frank Weinhold                                : gennbo (NPA and NBO analysis)
   Simon Mueller                                 : openCOSMO-RS
   Christopher J. Cramer and Donald G. Truhlar   : smd solvation model
   Lars Goerigk                                  : TD-DFT with DH, B97 family of functionals
   V. Asgeirsson, H. Jonsson                     : NEB implementation
   FAccTs GmbH                                   : IRC, NEB, NEB-TS, DLPNO-Multilevel, CI-OPT
                                                   MM, QMMM, 2- and 3-layer-ONIOM, Crystal-QMMM,
                                                   LR-CPCM, SF, NACMEs, symmetry and pop. for TD-DFT,
                                                   nearIR, NL-DFT gradient (VV10), updates on ESD,
                                                   ML-optimized integration grids, MBIS, APM,
                                                   GOAT, DOCKER, SOLVATOR, interface openCOSMO-RS
   S Lehtola, MJT Oliveira, MAL Marques          : LibXC Library
   Liviu Ungur et al                             : ANISO software


 Your calculation uses the libint2 library for the computation of 2-el integrals
 For citations please refer to: http://libint.valeyev.net

 Your ORCA version has been built with support for libXC version: 6.2.2
 For citations please refer to: https://libxc.gitlab.io

 This ORCA versions uses:
   CBLAS   interface :  Fast vector & matrix operations
   LAPACKE interface :  Fast linear algebra routines
   SCALAPACK package :  Parallel linear algebra routines
   Shared memory     :  Shared parallel matrices
   BLAS/LAPACK       :  OpenBLAS 0.3.27  USE64BITINT DYNAMIC_ARCH NO_AFFINITY SkylakeX SINGLE_THREADED
        Core in use  :  SkylakeX
   Copyright (c) 2011-2014, The OpenBLAS Project


Your calculation utilizes the geometrical counterpoise correction gCP
Please cite in your paper:
H.Kruse, S. Grimme J.Chem.Phys., 136, (2012), 154101 
   

Your calculation utilizes the DFT-NL dispersion correction.
Cite in your paper:
Vydrov, O. A.; Van Voorhis, T. J. Chem. Phys. 2010, 133, 244103
Hujo, W.; Grimme, S. J. Chem. Theory Comput. 2011, 7, 3866 
   

Your calculation utilizes the SMD solvation module
Please cite in your paper:
A.V. Marenich, C.J. Cramer, D.G. Truhlar J. Phys. Chem. B, 113, (2009), 6378 

================================================================================

----- Orbital basis set information -----
Your calculation utilizes the basis: def2-TZVP
   F. Weigend and R. Ahlrichs, Phys. Chem. Chem. Phys. 7, 3297 (2005).

----- AuxJ basis set information -----
Your calculation utilizes the auxiliary basis: def2/J
   F. Weigend, Phys. Chem. Chem. Phys. 8, 1057 (2006).

================================================================================
                                        WARNINGS
                       Please study these warnings very carefully!
================================================================================


================================================================================
                                       INPUT FILE
================================================================================
NAME = sp_solv.inp
|  1> ! wb97x-v def2-tzvp def2/J RIJCOSX DEFGRID2 scfconv7 GCP(DFT/TZ) printgap
|  2> %output
|  3>     printlevel normal
|  4> end
|  5> %cpcm
|  6>     smd true
|  7>     smdsolvent "water"
|  8> end
|  9> * xyz 0 1
| 10> C 0.03623645613142483 -1.2192934610964714 0.00011435920276947177
| 11> C 1.41567600787264 -1.2183499311708332 4.3230809295292834e-05
| 12> C 2.1084341254693295 -0.00010975790600331026 2.2371863277149503e-05
| 13> C 1.415559226217983 1.2178917886490164 3.687187948630335e-05
| 14> C 0.03508139443176125 1.2192608638895903 0.00010747712817421834
| 15> C -0.6457525843778639 0.0003213465377756147 0.00014906604537297876
| 16> N -2.0892772804129383 0.0007648696813935518 3.2858517228234034e-05
| 17> O -2.6826961035733716 -1.0838021780482476 -0.00019947967448387402
| 18> O -2.6825047240265905 1.0853579006860228 -0.0002188713541068257
| 19> O 3.4616228305779186 -0.0575598200469433 -1.2134673972634212e-05
| 20> H -0.5124972566035221 -2.1524005775284607 7.075286398848265e-05
| 21> H 1.9728394417541053 -2.1483767043951527 -3.278796036382719e-06
| 22> H 1.968944667317986 2.151749191073383 -1.2866769381255832e-05
| 23> H -0.5127920560922019 2.152885114278212 6.09572846711277e-05
| 24> H 3.8290051305890023 0.839280916717312 -1.5763362134173327e-05
| 25> *
| 26> 
| 27>                          ****END OF INPUT****
================================================================================

                       ****************************
                       * Single Point Calculation *
                       ****************************

---------------------------------
CARTESIAN COORDINATES (ANGSTROEM)
---------------------------------
  C      0.036236   -1.219293    0.000114
  C      1.415676   -1.218350    0.000043
  C      2.108434   -0.000110    0.000022
  C      1.415559    1.217892    0.000037
  C      0.035081    1.219261    0.000107
  C     -0.645753    0.000321    0.000149
  N     -2.089277    0.000765    0.000033
  O     -2.682696   -1.083802   -0.000199
  O     -2.682505    1.085358   -0.000219
  O      3.461623   -0.057560   -0.000012
  H     -0.512497   -2.152401    0.000071
  H      1.972839   -2.148377   -0.000003
  H      1.968945    2.151749   -0.000013
  H     -0.512792    2.152885    0.000061
  H      3.829005    0.839281   -0.000016

----------------------------
CARTESIAN COORDINATES (A.U.)
----------------------------
  NO LB      ZA    FRAG     MASS         X           Y           Z
   0 C     6.0000    0    12.011    0.068477   -2.304131    0.000216
   1 C     6.0000    0    12.011    2.675240   -2.302348    0.000082
   2 C     6.0000    0    12.011    3.984363   -0.000207    0.000042
   3 C     6.0000    0    12.011    2.675019    2.301482    0.000070
   4 C     6.0000    0    12.011    0.066294    2.304069    0.000203
   5 C     6.0000    0    12.011   -1.220296    0.000607    0.000282
   6 N     7.0000    0    14.007   -3.948162    0.001445    0.000062
   7 O     8.0000    0    15.999   -5.069561   -2.048089   -0.000377
   8 O     8.0000    0    15.999   -5.069199    2.051029   -0.000414
   9 O     8.0000    0    15.999    6.541519   -0.108772   -0.000023
  10 H     1.0000    0     1.008   -0.968479   -4.067448    0.000134
  11 H     1.0000    0     1.008    3.728126   -4.059844   -0.000006
  12 H     1.0000    0     1.008    3.720766    4.066217   -0.000024
  13 H     1.0000    0     1.008   -0.969037    4.068363    0.000115
  14 H     1.0000    0     1.008    7.235771    1.586011   -0.000030

--------------------------------
INTERNAL COORDINATES (ANGSTROEM)
--------------------------------
 C      0   0   0     0.000000000000     0.00000000     0.00000000
 C      1   0   0     1.379439876260     0.00000000     0.00000000
 C      2   1   0     1.401436024115   119.66412272     0.00000000
 C      3   2   1     1.401286335348   120.74116075     0.00000000
 C      4   3   2     1.380478512475   119.69072904     0.00000000
 C      5   4   3     1.396190694495   119.12855161     0.00000000
 N      6   5   4     1.443524768849   119.16776966   180.00863849
 O      7   6   5     1.236297551030   118.66758738   179.98572095
 O      7   6   5     1.236228500775   118.69443629     0.00000000
 O      3   2   1     1.354407686948   117.19388186   179.99828875
 H      1   2   3     1.082495995433   120.49776256   179.99628253
 H      2   1   3     1.084149848098   120.88592769   180.00039569
 H      4   3   2     1.085506838743   119.71594936   180.00201644
 H      5   4   3     1.082506148189   120.46227111   180.00359173
 H     10   3   2     0.969171327214   109.84494313   180.00050753

---------------------------
INTERNAL COORDINATES (A.U.)
---------------------------
 C      0   0   0     0.000000000000     0.00000000     0.00000000
 C      1   0   0     2.606763584341     0.00000000     0.00000000
 C      2   1   0     2.648330279789   119.66412272     0.00000000
 C      3   2   1     2.648047409014   120.74116075     0.00000000
 C      4   3   2     2.608726322341   119.69072904     0.00000000
 C      5   4   3     2.638418043324   119.12855161     0.00000000
 N      6   5   4     2.727866480656   119.16776966   180.00863849
 O      7   6   5     2.336263791485   118.66758738   179.98572095
 O      7   6   5     2.336133305413   118.69443629     0.00000000
 O      3   2   1     2.559459602010   117.19388186   179.99828875
 H      1   2   3     2.045620972436   120.49776256   179.99628253
 H      2   1   3     2.048746301038   120.88592769   180.00039569
 H      4   3   2     2.051310641723   119.71594936   180.00201644
 H      5   4   3     2.045640158363   120.46227111   180.00359173
 H     10   3   2     1.831468385284   109.84494313   180.00050753

---------------------
BASIS SET INFORMATION
---------------------
There are 4 groups of distinct atoms

 Group   1 Type C   : 11s6p2d1f contracted to 5s3p2d1f pattern {62111/411/11/1}
 Group   2 Type N   : 11s6p2d1f contracted to 5s3p2d1f pattern {62111/411/11/1}
 Group   3 Type O   : 11s6p2d1f contracted to 5s3p2d1f pattern {62111/411/11/1}
 Group   4 Type H   : 5s1p contracted to 3s1p pattern {311/1}

Atom   0C    basis set group =>   1
Atom   1C    basis set group =>   1
Atom   2C    basis set group =>   1
Atom   3C    basis set group =>   1
Atom   4C    basis set group =>   1
Atom   5C    basis set group =>   1
Atom   6N    basis set group =>   2
Atom   7O    basis set group =>   3
Atom   8O    basis set group =>   3
Atom   9O    basis set group =>   3
Atom  10H    basis set group =>   4
Atom  11H    basis set group =>   4
Atom  12H    basis set group =>   4
Atom  13H    basis set group =>   4
Atom  14H    basis set group =>   4
---------------------------------
AUXILIARY/J BASIS SET INFORMATION
---------------------------------
There are 4 groups of distinct atoms

 Group   1 Type C   : 12s5p4d2f1g contracted to 6s4p3d1f1g pattern {711111/2111/211/2/1}
 Group   2 Type N   : 12s5p4d2f1g contracted to 6s4p3d1f1g pattern {711111/2111/211/2/1}
 Group   3 Type O   : 12s5p4d2f1g contracted to 6s4p3d1f1g pattern {711111/2111/211/2/1}
 Group   4 Type H   : 5s2p1d contracted to 3s1p1d pattern {311/2/1}

Atom   0C    basis set group =>   1
Atom   1C    basis set group =>   1
Atom   2C    basis set group =>   1
Atom   3C    basis set group =>   1
Atom   4C    basis set group =>   1
Atom   5C    basis set group =>   1
Atom   6N    basis set group =>   2
Atom   7O    basis set group =>   3
Atom   8O    basis set group =>   3
Atom   9O    basis set group =>   3
Atom  10H    basis set group =>   4
Atom  11H    basis set group =>   4
Atom  12H    basis set group =>   4
Atom  13H    basis set group =>   4
Atom  14H    basis set group =>   4

Checking for AutoStart:
The File: sp_solv.gbw exists
Trying to determine its content:
     ... Fine, the file contains calculation information
     ... Fine, the calculation information was read
     ... Fine, the file contains a basis set
     ... Fine, the basis set was read
     ... Fine, the file contains a geometry
     ... Fine, the geometry was read
     ... Fine, the file contains a set of orbitals
     ... Fine, the orbitals can be read
     => possible old guess file was deleted
     => GBW file was renamed to GES file
     => GES file is set as startup file
     => Guess is set to MORead
     ... now leaving AutoStart

------------------------------------------------------------------------------
                             ORCA STARTUP CALCULATIONS
                           -- RI-GTO INTEGRALS CHOSEN --
------------------------------------------------------------------------------
------------------------------------------------------------------------------
                   ___                                                        
                  /   \      - P O W E R E D   B Y -                         
                 /     \                                                     
                 |  |  |   _    _      __       _____    __    __             
                 |  |  |  | |  | |    /  \     |  _  \  |  |  /  |          
                  \  \/   | |  | |   /    \    | | | |  |  | /  /          
                 / \  \   | |__| |  /  /\  \   | |_| |  |  |/  /          
                |  |  |   |  __  | /  /__\  \  |    /   |      \           
                |  |  |   | |  | | |   __   |  |    \   |  |\   \          
                \     /   | |  | | |  |  |  |  | |\  \  |  | \   \       
                 \___/    |_|  |_| |__|  |__|  |_| \__\ |__|  \__/        
                                                                              
                      - O R C A' S   B I G   F R I E N D -                    
                                      &                                       
                       - I N T E G R A L  F E E D E R -                       
                                                                              
 v1 FN, 2020, v2 2021, v3 2022-2024                                           
------------------------------------------------------------------------------


----------------------
SHARK INTEGRAL PACKAGE
----------------------

Number of atoms                             ...     15
Number of basis functions                   ...    340
Number of shells                            ...    130
Maximum angular momentum                    ...      3
Integral batch strategy                     ... SHARK/LIBINT Hybrid
RI-J (if used) integral strategy            ... SPLIT-RIJ (Revised 2003 algorithm where possible)
Printlevel                                  ...      1
Contraction scheme used                     ... SEGMENTED contraction
Prescreening option                         ... SCHWARTZ
   Thresh                                   ... 3.000e-11
   Tcut                                     ... 1.000e-12
   Tpresel                                  ... 1.000e-12 
Coulomb Range Separation                    ... NOT USED
Exchange Range Separation                   ... Long Range
   Mu parameter                             ... 3.000e-01
   Scaling (regular/separated)              ... 1.670e-01 8.330e-01
Multipole approximations                    ... NOT USED
Finite Nucleus Model                        ... NOT USED
CABS basis                                  ... NOT available
Auxiliary Coulomb fitting basis             ... AVAILABLE
   # of basis functions in Aux-J            ...    545
   # of shells in Aux-J                     ...    175
   Maximum angular momentum in Aux-J        ...      4
Auxiliary J/K fitting basis                 ... NOT available
Auxiliary Correlation fitting basis         ... NOT available
Auxiliary 'external' fitting basis          ... NOT available

Checking pre-screening integrals            ... done (  0.0 sec) Dimension = 130
Check shell pair data                       ... done (  0.0 sec)
Shell pair information
Shell pair cut-off parameter TPreSel        ...   1.0e-12
Total number of shell pairs                 ...      8515
Shell pairs after pre-screening             ...      7481
Total number of primitive shell pairs       ...     26800
Primitive shell pairs kept                  ...     17311
          la=0 lb=0:   1786 shell pairs
          la=1 lb=0:   2046 shell pairs
          la=1 lb=1:    593 shell pairs
          la=2 lb=0:   1132 shell pairs
          la=2 lb=1:    645 shell pairs
          la=2 lb=2:    187 shell pairs
          la=3 lb=0:    548 shell pairs
          la=3 lb=1:    319 shell pairs
          la=3 lb=2:    177 shell pairs
          la=3 lb=3:     48 shell pairs

Calculating one electron integrals          ... done (  0.0 sec)
Calculating RI/J V-Matrix + Cholesky decomp.... done (  0.1 sec)
Calculating Nuclear repulsion               ... done (  0.0 sec) ENN=    495.941314245641 Eh

Diagonalization of the overlap matrix:
Smallest eigenvalue                        ... 9.571e-06
Time for diagonalization                   ...    0.013 sec
Threshold for overlap eigenvalues          ... 1.000e-07
Number of eigenvalues below threshold      ... 0
Time for construction of square roots      ...    0.023 sec
Total time needed                          ...    0.045 sec

-------------------
DFT GRID GENERATION
-------------------

General Integration Accuracy     IntAcc      ... 4.388
Radial Grid Type                 RadialGrid  ... OptM3 with GC (2021)
Angular Grid (max. ang.)         AngularGrid ... 4 (Lebedev-302)
Angular grid pruning method      GridPruning ... 4 (adaptive)
Weight generation scheme         WeightScheme... mBecke (2022)
Basis function cutoff            BFCut       ... 1.0000e-11
Integration weight cutoff        WCut        ... 1.0000e-14
Partially contracted basis set               ... off
Rotationally invariant grid construction     ... off
Angular grids for H and He will be reduced by one unit

Total number of grid points                  ...    76396
Total number of batches                      ...     1200
Average number of points per batch           ...       63
Average number of grid points per atom       ...     5093

--------------------
COSX GRID GENERATION
--------------------

GRIDX 1
-------
General Integration Accuracy     IntAcc      ... 3.816
Radial Grid Type                 RadialGrid  ... OptM3 with GC (2021)
Angular Grid (max. ang.)         AngularGrid ... 1 (Lebedev-50)
Angular grid pruning method      GridPruning ... 4 (adaptive)
Weight generation scheme         WeightScheme... mBecke (2022)
Basis function cutoff            BFCut       ... 1.0000e-11
Integration weight cutoff        WCut        ... 1.0000e-14
Partially contracted basis set               ... on
Rotationally invariant grid construction     ... off
Angular grids for H and He will be reduced by one unit

Total number of grid points                  ...     9738
Total number of batches                      ...       83
Average number of points per batch           ...      117
Average number of grid points per atom       ...      649
UseSFitting                                  ... on

GRIDX 2
-------
General Integration Accuracy     IntAcc      ... 4.020
Radial Grid Type                 RadialGrid  ... OptM3 with GC (2021)
Angular Grid (max. ang.)         AngularGrid ... 2 (Lebedev-110)
Angular grid pruning method      GridPruning ... 4 (adaptive)
Weight generation scheme         WeightScheme... mBecke (2022)
Basis function cutoff            BFCut       ... 1.0000e-11
Integration weight cutoff        WCut        ... 1.0000e-14
Partially contracted basis set               ... on
Rotationally invariant grid construction     ... off
Angular grids for H and He will be reduced by one unit

Total number of grid points                  ...    21878
Total number of batches                      ...      177
Average number of points per batch           ...      123
Average number of grid points per atom       ...     1459
UseSFitting                                  ... on

GRIDX 3
-------
General Integration Accuracy     IntAcc      ... 4.338
Radial Grid Type                 RadialGrid  ... OptM3 with GC (2021)
Angular Grid (max. ang.)         AngularGrid ... 3 (Lebedev-194)
Angular grid pruning method      GridPruning ... 4 (adaptive)
Weight generation scheme         WeightScheme... mBecke (2022)
Basis function cutoff            BFCut       ... 1.0000e-11
Integration weight cutoff        WCut        ... 1.0000e-14
Partially contracted basis set               ... on
Rotationally invariant grid construction     ... off
Angular grids for H and He will be reduced by one unit

Total number of grid points                  ...    48285
Total number of batches                      ...      384
Average number of points per batch           ...      125
Average number of grid points per atom       ...     3219
UseSFitting                                  ... on
Initializing property integral containers    ... done (  0.0 sec)

SHARK setup successfully completed in   2.5 seconds

Maximum memory used throughout the entire STARTUP-calculation: 48.6 MB
-------------------------------------------------------------------------------
                                 ORCA GUESS
                   Start orbitals & Density for SCF / CASSCF
-------------------------------------------------------------------------------

------------
SCF SETTINGS
------------
Hamiltonian:
 Density Functional     Method          .... DFT(GTOs)
 Exchange Functional    Exchange        .... WB97X-V
 Correlation Functional Correlation     .... WB97X-V
 Gradients option       PostSCFGGA      .... off
 Hybrid DFT is turned on
   Fraction HF Exchange ScalHFX         ....  0.167000
   Scaling of DF-GGA-X  ScalDFX         ....  0.000000
   Scaling of DF-GGA-C  ScalDFC         ....  1.000000
   Scaling of DF-LDA-C  ScalLDAC        ....  1.000000
   Perturbative correction              ....  0.000000
 Long-range corrected/Screened/Range-Separated Hybrid DFT is turned on
   Amount of maximum screened exact exchange              ....  0.833000
   Range separation parameter mu (erf(mu*r12)/r12)        ....  0.300000
   NL short-range parameter             ....  6.000000
   NL long-range parameter              ....  0.010000
 RI-approximation to the Coulomb term is turned on
   Number of AuxJ basis functions       .... 545
   RIJ-COSX (HFX calculated with COS-X)).... on


General Settings:
 Integral files         IntName         .... sp_solv
 Hartree-Fock type      HFTyp           .... RHF
 Total Charge           Charge          ....    0
 Multiplicity           Mult            ....    1
 Number of Electrons    NEL             ....   72
 Basis Dimension        Dim             ....  340
 Nuclear Repulsion      ENuc            ....    495.9413142456 Eh

Convergence Acceleration:
 AO-DIIS                CNVDIIS         .... on
   Start iteration      DIISMaxIt       ....    12
   Startup error        DIISStart       ....  0.200000
   # of expansion vecs  DIISMaxEq       ....     5
   Bias factor          DIISBfac        ....   1.050
   Max. coefficient     DIISMaxC        ....  10.000
 MO-DIIS                CNVKDIIS        .... off
 Trust-Rad. Augm. Hess. CNVTRAH         .... auto
   Auto Start mean grad. ratio tolernc. ....  1.125000
   Auto Start start iteration           ....     1
   Auto Start num. interpolation iter.  ....    10
   Max. Number of Micro iterations      ....    24
   Max. Number of Macro iterations      .... Maxiter - #DIIS iter
   Number of Davidson start vectors     ....     2
   Converg. threshold    (grad. norm)   ....   1.000e-04
   Grad. Scal. Fac. for Micro threshold ....   0.100
   Minimum threshold for Micro iter.    ....   1.000e-02
   NR start threshold (gradient norm)   ....   1.000e-04
   Initial trust radius                 ....   0.400
   Minimum AH scaling param. (alpha)    ....   1.000
   Maximum AH scaling param. (alpha)    .... 1000.000
   Quad. conv. algorithm                .... NR
   White noise on init. David. guess    .... on
   Maximum white noise                  ....   0.010
   Pseudo random numbers                .... off
   Inactive MOs                         .... canonical
   Orbital update algorithm             .... Taylor
   Preconditioner                       .... Diag
   Full preconditioner red. dimension   ....   250
 SOSCF                  CNVSOSCF        .... on
   Start iteration      SOSCFMaxIt      ....   150
   Startup grad/error   SOSCFStart      ....  0.003300
   Hessian update       SOSCFHessUp     .... L-BFGS
 Level Shifting         CNVShift        .... on
   Level shift para.    LevelShift      ....    0.2500
   Turn off err/grad.   ShiftErr        ....    0.0010
 Zerner damping         CNVZerner       .... off
 Static damping         CNVDamp         .... on
   Fraction old density DampFac         ....    0.7000
   Max. Damping (<1)    DampMax         ....    0.9800
   Min. Damping (>=0)   DampMin         ....    0.0000
   Turn off err/grad.   DampErr         ....    0.1000

SCF Procedure:
 Maximum # iterations   MaxIter         ....   125
 SCF integral mode      SCFMode         .... Direct
   Integral package                     .... SHARK and LIBINT hybrid scheme
 Reset frequency        DirectResetFreq ....    20
 Integral Threshold     Thresh          ....  3.000e-11 Eh
 Primitive CutOff       TCut            ....  1.000e-12 Eh

Convergence Tolerance:
 Convergence Check Mode ConvCheckMode   .... Total+1el-Energy
 Convergence forced     ConvForced      .... 0
 Energy Change          TolE            ....  1.000e-07 Eh
 1-El. energy change                    ....  1.000e-04 Eh
 Orbital Gradient       TolG            ....  1.000e-04
 Orbital Rotation angle TolX            ....  1.000e-04
 DIIS Error             TolErr          ....  1.000e-07

---------------------
INITIAL GUESS: MOREAD
---------------------
Guess MOs are being read from file: sp_solv.ges
Input Geometry matches current geometry (good)
Atom 0: N(Shells)= 11 and 9 - projection required
Input basis set needs projection
NBasis(read)= 235
NBasis(calc)= 340
Basis set overlap was calculated
Using GuessMode=FMatrix for the initial guess
C*T matrix was formed
Effective Fockian was calculated
Effective Fockian was diagonalized
Initial density was built
                      ------------------
                      INITIAL GUESS DONE (   0.1 sec)
                      ------------------
             **** ENERGY FILE WAS UPDATED (sp_solv.en.tmp) ****
Finished Guess after   0.8 sec
Maximum memory used throughout the entire GUESS-calculation: 32.5 MB

-------------------------------------------------------------------------------------------
                                      ORCA LEAN-SCF
                              memory conserving SCF solver
-------------------------------------------------------------------------------------------

--------------------
CPCM SOLVATION MODEL
--------------------
CPCM parameters:
  Epsilon                                         ...      78.3550
  Refrac                                          ...       1.3328
  Rsolv                                           ...       1.3000
  Surface type                                    ... GAUSSIAN VDW
  Discretization scheme                           ... Constant charge density
    Threshold for H atoms                         ...       5.0000 (charges/Ang^2)
    Threshold for non-H atoms                     ...       5.0000 (charges/Ang^2)
  Epsilon function type                           ...         CPCM
Solvent:                                          ... WATER
SMD-CDS solvent descriptors:
  Soln                                            ...       1.3328
  Soln25                                          ...       1.3323
  Sola                                            ...       0.0000
  Solb                                            ...       0.0000
  Solg                                            ...       0.0000
  Solc                                            ...       0.0000
  Solh                                            ...       0.0000
Radii:
  Scheme                                          ... Element-dependent radii
  Radius for C  used is    3.4960 Bohr (=   1.8500 Ang.)
  Radius for N  used is    3.5716 Bohr (=   1.8900 Ang.)
  Radius for O  used is    2.8724 Bohr (=   1.5200 Ang.)
  Radius for H  used is    2.2677 Bohr (=   1.2000 Ang.)
Calculating surface                               ...        done! (  0.0s)
Cavity surface points                             ...         1185
Cavity Volume                                     ...     843.7467
Cavity Surface-area                               ...     526.1909
Calculating surface distance matrix               ...        done! (  0.0s)
Performing Cholesky decomposition & store         ...        done! (  0.1s)
Overall time for CPCM initialization              ...                 0.1s

----------------------------------------D-I-I-S--------------------------------------------
Iteration    Energy (Eh)           Delta-E    RMSDP     MaxDP     DIISErr   Damp  Time(sec)
-------------------------------------------------------------------------------------------
               ***  Starting incremental Fock matrix formation  ***
    1    -512.2906673477358481     0.00e+00  1.74e-03  8.87e-02  7.57e-02  0.700  23.4
    2    -512.2988852459998270    -8.22e-03  1.44e-03  6.27e-02  5.58e-02  0.700  11.3
                               ***Turning on AO-DIIS***
    3    -512.3050896132738217    -6.20e-03  1.17e-03  4.24e-02  4.03e-02  0.700  11.2
    4    -512.3096720938684712    -4.58e-03  2.90e-03  1.01e-01  2.85e-02  0.000  11.5
                              *** Initializing SOSCF ***
---------------------------------------S-O-S-C-F--------------------------------------
Iteration    Energy (Eh)           Delta-E    RMSDP     MaxDP     MaxGrad    Time(sec)
--------------------------------------------------------------------------------------
    5    -512.3214479638396597    -1.18e-02  1.67e-04  7.01e-03  2.59e-03    12.2
               *** Restarting incremental Fock matrix formation ***
    6    -512.3215538388601544    -1.06e-04  9.38e-05  4.35e-03  1.85e-03    23.2
    7    -512.3216052280519079    -5.14e-05  9.31e-05  5.49e-03  8.89e-04    18.6
    8    -512.3216210237582118    -1.58e-05  1.83e-05  1.01e-03  2.01e-04    18.6
    9    -512.3216218532013499    -8.29e-07  5.25e-06  2.33e-04  1.38e-04    16.9
   10    -512.3216225792996283    -7.26e-07  2.12e-06  6.93e-05  4.59e-05    16.0
   11    -512.3216226246922815    -4.54e-08  1.53e-06  4.56e-05  2.25e-05    14.9
                 **** Energy Check signals convergence ****

               *****************************************************
               *                     SUCCESS                       *
               *           SCF CONVERGED AFTER  11 CYCLES          *
               *****************************************************


------------------
NL GRID GENERATION
------------------

General Integration Accuracy     IntAcc      ... 4.004
Radial Grid Type                 RadialGrid  ... OptM3 with GC (2021)
Angular Grid (max. ang.)         AngularGrid ... 2 (Lebedev-110)
Angular grid pruning method      GridPruning ... 4 (adaptive)
Weight generation scheme         WeightScheme... mBecke (2022)
Basis function cutoff            BFCut       ... 1.0000e-10
Integration weight cutoff        WCut        ... 1.0000e-14
Partially contracted basis set               ... off
Rotationally invariant grid construction     ... off
Angular grids for H and He will be reduced by one unit

Total number of grid points                  ...    25222
Total number of batches                      ...      402
Average number of points per batch           ...       62
Average number of grid points per atom       ...     1681
Final grid set up in    0.2 sec

-------------------------------------------------------------------------------
                    post-SCF DFT-NL dispersion correction                      
-------------------------------------------------------------------------------

SCF Energy:     -512.321622625 
NL    Energy:      0.277771303 
SC+NL Energy:   -512.043851321 
NL done in  :              2.9 sec
-------------------------------------------------------------------------------
Recomputing exchange energy using gridx3       ... done (   41.121 sec)
Old exchange energy                            :    -20.151663240 Eh
New exchange energy                            :    -20.151649961 Eh
Exchange energy change after final integration :      0.000013278 Eh
Total energy after final integration           :   -512.043838043 Eh

SMD CDS free energy correction energy :                 6.30700     Kcal/mol
Total Energy after SMD CDS correction =              -512.033787201 Eh
             **** ENERGY FILE WAS UPDATED (sp_solv.en.tmp) ****

----------------
TOTAL SCF ENERGY
----------------

Total Energy       :       -512.03378720080786 Eh          -13933.14770 eV

Components:
Nuclear Repulsion  :        495.94131424564148 Eh           13495.24925 eV
Electronic Energy  :      -1008.23392277822040 Eh          -27435.43983 eV
One Electron Energy:      -1679.95088583689267 Eh          -45713.78765 eV
Two Electron Energy:        671.71696305867226 Eh           18278.34782 eV
CPCM Dielectric    :         -0.02901409211337 Eh              -0.78951 eV
SMD CDS (Gcds)     :          0.01005084218455 Eh               0.27350 eV

Virial components:
Potential Energy   :      -1022.21398647386764 Eh          -27815.85670 eV
Kinetic Energy     :        510.18019927305977 Eh           13882.70901 eV
Virial Ratio       :          2.00363320240650

DFT components:
N(Alpha)           :       36.000002711848 electrons
N(Beta)            :       36.000002711848 electrons
N(Total)           :       72.000005423696 electrons
E(X)               :      -43.988557791608 Eh       
E(C)               :       -3.085904766602 Eh       
NL Energy, E(C,NL) :        0.277771303354 Eh       
E(XC)              :      -46.796691254856 Eh       

CPCM Solvation Model Properties:
Surface-charge          :         -0.04403108940334
Corrected charge        :         -0.00000000000000
Outlying charge corr.   :          0.00015200257876 Eh               0.00414 eV
Free-energy (cav+disp)  :          0.01005084218455 Eh               0.27350 eV

---------------
SCF CONVERGENCE
---------------

  Last Energy change         ...    4.5393e-08  Tolerance :   1.0000e-07
  Last MAX-Density change    ...    4.5567e-05  Tolerance :   1.0000e-05
  Last RMS-Density change    ...    1.5299e-06  Tolerance :   1.0000e-06
  Last DIIS Error            ...    2.5943e-03  Tolerance :   1.0000e-07
  Last Orbital Gradient      ...    2.2455e-05  Tolerance :   1.0000e-04
  Last Orbital Rotation      ...    1.1440e-04  Tolerance :   1.0000e-04


----------------
ORBITAL ENERGIES
----------------

  NO   OCC          E(Eh)            E(eV) 
   0   2.0000     -21.716710      -590.9417 
   1   2.0000     -21.716314      -590.9309 
   2   2.0000     -21.716189      -590.9275 
   3   2.0000     -16.783141      -456.6925 
   4   2.0000     -12.138082      -330.2940 
   5   2.0000     -12.107515      -329.4622 
   6   2.0000     -12.079949      -328.7121 
   7   2.0000     -12.079077      -328.6884 
   8   2.0000     -12.063503      -328.2646 
   9   2.0000     -12.061680      -328.2150 
  10   2.0000      -1.905940       -51.8633 
  11   2.0000      -1.750895       -47.6443 
  12   2.0000      -1.736788       -47.2604 
  13   2.0000      -1.439018       -39.1577 
  14   2.0000      -1.373481       -37.3743 
  15   2.0000      -1.303627       -35.4735 
  16   2.0000      -1.274569       -34.6828 
  17   2.0000      -1.197915       -32.5969 
  18   2.0000      -1.162227       -31.6258 
  19   2.0000      -1.144954       -31.1558 
  20   2.0000      -1.123658       -30.5763 
  21   2.0000      -1.082065       -29.4445 
  22   2.0000      -1.068223       -29.0678 
  23   2.0000      -1.026830       -27.9415 
  24   2.0000      -0.964414       -26.2430 
  25   2.0000      -0.962969       -26.2037 
  26   2.0000      -0.935693       -25.4615 
  27   2.0000      -0.927367       -25.2350 
  28   2.0000      -0.917327       -24.9617 
  29   2.0000      -0.907240       -24.6873 
  30   2.0000      -0.896732       -24.4013 
  31   2.0000      -0.895577       -24.3699 
  32   2.0000      -0.828221       -22.5370 
  33   2.0000      -0.796841       -21.6831 
  34   2.0000      -0.675192       -18.3729 
  35   2.0000      -0.665109       -18.0985 
  36   0.0000      -0.490268       -13.3409 
  37   0.0000      -0.264612        -7.2005 
  38   0.0000      -0.253085        -6.8868 
  39   0.0000      -0.233967        -6.3666 
  40   0.0000      -0.140981        -3.8363 
  41   0.0000      -0.122554        -3.3349 
  42   0.0000      -0.115830        -3.1519 
  43   0.0000      -0.086648        -2.3578 
  44   0.0000      -0.034271        -0.9326 
  45   0.0000      -0.013641        -0.3712 
  46   0.0000       0.014747         0.4013 
*Only the first 10 virtual orbitals were printed.

                    ********************************
                    * MULLIKEN POPULATION ANALYSIS *
                    ********************************

-----------------------
MULLIKEN ATOMIC CHARGES
-----------------------
   0 C :   -0.176088
   1 C :   -0.215003
   2 C :    0.286263
   3 C :   -0.214515
   4 C :   -0.179859
   5 C :    0.096548
   6 N :    0.500396
   7 O :   -0.389172
   8 O :   -0.389088
   9 O :   -0.431992
  10 H :    0.184641
  11 H :    0.169994
  12 H :    0.182900
  13 H :    0.187247
  14 H :    0.387728
Sum of atomic charges:   -0.0000000

--------------------------------
MULLIKEN REDUCED ORBITAL CHARGES
--------------------------------
  0 C s       :     3.243095  s :     3.243095
      pz      :     0.894744  p :     2.827548
      px      :     0.943521
      py      :     0.989283
      dz2     :     0.005577  d :     0.097748
      dxz     :     0.023467
      dyz     :     0.011670
      dx2y2   :     0.024817
      dxy     :     0.032218
      f0      :     0.001629  f :     0.007697
      f+1     :     0.000607
      f-1     :     0.000705
      f+2     :     0.001007
      f-2     :     0.000533
      f+3     :     0.001070
      f-3     :     0.002145

  1 C s       :     3.240510  s :     3.240510
      pz      :     1.019677  p :     2.889676
      px      :     0.920108
      py      :     0.949891
      dz2     :     0.003905  d :     0.077287
      dxz     :     0.015189
      dyz     :     0.009342
      dx2y2   :     0.020065
      dxy     :     0.028787
      f0      :     0.001658  f :     0.007530
      f+1     :     0.000697
      f-1     :     0.000746
      f+2     :     0.000781
      f-2     :     0.000392
      f+3     :     0.001074
      f-3     :     0.002181

  2 C s       :     3.028266  s :     3.028266
      pz      :     0.851919  p :     2.490278
      px      :     0.731287
      py      :     0.907072
      dz2     :     0.005367  d :     0.179258
      dxz     :     0.049891
      dyz     :     0.023557
      dx2y2   :     0.040744
      dxy     :     0.059699
      f0      :     0.002550  f :     0.015935
      f+1     :     0.001243
      f-1     :     0.000735
      f+2     :     0.002604
      f-2     :     0.001084
      f+3     :     0.002025
      f-3     :     0.005695

  3 C s       :     3.221307  s :     3.221307
      pz      :     1.027417  p :     2.907968
      px      :     0.918335
      py      :     0.962215
      dz2     :     0.005433  d :     0.077927
      dxz     :     0.014747
      dyz     :     0.008746
      dx2y2   :     0.021090
      dxy     :     0.027911
      f0      :     0.001648  f :     0.007314
      f+1     :     0.000641
      f-1     :     0.000737
      f+2     :     0.000780
      f-2     :     0.000344
      f+3     :     0.001102
      f-3     :     0.002062

  4 C s       :     3.240265  s :     3.240265
      pz      :     0.893205  p :     2.834033
      px      :     0.955262
      py      :     0.985567
      dz2     :     0.005471  d :     0.097831
      dxz     :     0.023749
      dyz     :     0.011710
      dx2y2   :     0.024182
      dxy     :     0.032719
      f0      :     0.001634  f :     0.007731
      f+1     :     0.000623
      f-1     :     0.000704
      f+2     :     0.001016
      f-2     :     0.000535
      f+3     :     0.001072
      f-3     :     0.002146

  5 C s       :     3.059355  s :     3.059355
      pz      :     1.093954  p :     2.709330
      px      :     0.729507
      py      :     0.885869
      dz2     :     0.004902  d :     0.122598
      dxz     :     0.014586
      dyz     :     0.025864
      dx2y2   :     0.048108
      dxy     :     0.029138
      f0      :     0.002183  f :     0.012169
      f+1     :     0.001342
      f-1     :     0.000775
      f+2     :     0.000731
      f-2     :     0.001064
      f+3     :     0.002076
      f-3     :     0.003998

  6 N s       :     3.240546  s :     3.240546
      pz      :     1.068148  p :     2.994823
      px      :     1.062835
      py      :     0.863840
      dz2     :     0.004839  d :     0.250034
      dxz     :     0.024569
      dyz     :     0.065253
      dx2y2   :     0.091238
      dxy     :     0.064134
      f0      :     0.001525  f :     0.014201
      f+1     :     0.000749
      f-1     :     0.001056
      f+2     :     0.000940
      f-2     :     0.002303
      f+3     :     0.001928
      f-3     :     0.005700

  7 O s       :     3.873892  s :     3.873892
      pz      :     1.463832  p :     4.470921
      px      :     1.707849
      py      :     1.299240
      dz2     :     0.004959  d :     0.041071
      dxz     :     0.003105
      dyz     :     0.008992
      dx2y2   :     0.010027
      dxy     :     0.013989
      f0      :     0.000291  f :     0.003288
      f+1     :     0.000138
      f-1     :     0.000402
      f+2     :     0.000183
      f-2     :     0.000445
      f+3     :     0.001121
      f-3     :     0.000708

  8 O s       :     3.873581  s :     3.873581
      pz      :     1.463986  p :     4.471144
      px      :     1.707955
      py      :     1.299203
      dz2     :     0.004957  d :     0.041074
      dxz     :     0.003105
      dyz     :     0.008994
      dx2y2   :     0.010029
      dxy     :     0.013988
      f0      :     0.000291  f :     0.003288
      f+1     :     0.000138
      f-1     :     0.000402
      f+2     :     0.000183
      f-2     :     0.000445
      f+3     :     0.001121
      f-3     :     0.000708

  9 O s       :     3.741465  s :     3.741465
      pz      :     1.810610  p :     4.657100
      px      :     1.328455
      py      :     1.518035
      dz2     :     0.004394  d :     0.031690
      dxz     :     0.005177
      dyz     :     0.001233
      dx2y2   :     0.012990
      dxy     :     0.007896
      f0      :     0.000238  f :     0.001738
      f+1     :     0.000360
      f-1     :     0.000307
      f+2     :     0.000120
      f-2     :     0.000017
      f+3     :     0.000460
      f-3     :     0.000234

 10 H s       :     0.792821  s :     0.792821
      pz      :     0.003821  p :     0.022538
      px      :     0.006781
      py      :     0.011935

 11 H s       :     0.807787  s :     0.807787
      pz      :     0.004582  p :     0.022219
      px      :     0.006121
      py      :     0.011516

 12 H s       :     0.794911  s :     0.794911
      pz      :     0.004619  p :     0.022189
      px      :     0.005958
      py      :     0.011611

 13 H s       :     0.790202  s :     0.790202
      pz      :     0.003812  p :     0.022551
      px      :     0.006807
      py      :     0.011931

 14 H s       :     0.568866  s :     0.568866
      pz      :     0.013572  p :     0.043406
      px      :     0.010708
      py      :     0.019126


------------------------
MULLIKEN OVERLAP CHARGES
------------------------
B(  0-C ,  1-C ) :   0.8998 B(  0-C ,  2-C ) :   0.0883 B(  0-C ,  3-C ) :  -0.1702 
B(  0-C ,  4-C ) :  -0.0724 B(  0-C ,  5-C ) :   0.7084 B(  0-C ,  6-N ) :  -0.1097 
B(  0-C ,  7-O ) :   0.0621 B(  0-C , 10-H ) :   0.8637 B(  0-C , 11-H ) :  -0.0931 
B(  1-C ,  2-C ) :   0.8141 B(  1-C ,  3-C ) :   0.0832 B(  1-C ,  4-C ) :  -0.2089 
B(  1-C ,  9-O ) :  -0.0933 B(  1-C , 10-H ) :  -0.0753 B(  1-C , 11-H ) :   0.8870 
B(  2-C ,  3-C ) :   0.6235 B(  2-C ,  4-C ) :   0.2672 B(  2-C ,  5-C ) :  -0.2390 
B(  2-C ,  9-O ) :   0.7851 B(  2-C , 11-H ) :  -0.1275 B(  2-C , 12-H ) :  -0.0886 
B(  2-C , 14-H ) :  -0.0573 B(  3-C ,  4-C ) :   0.3804 B(  3-C ,  5-C ) :   0.1299 
B(  3-C ,  9-O ) :  -0.2060 B(  3-C , 12-H ) :   0.8888 B(  4-C ,  5-C ) :   0.5670 
B(  4-C ,  6-N ) :  -0.1155 B(  4-C ,  8-O ) :   0.0644 B(  4-C , 12-H ) :  -0.0949 
B(  4-C , 13-H ) :   0.8335 B(  5-C ,  6-N ) :   0.8660 B(  5-C ,  7-O ) :  -0.2817 
B(  5-C ,  8-O ) :  -0.2844 B(  5-C , 10-H ) :  -0.0929 B(  5-C , 13-H ) :  -0.0744 
B(  6-N ,  7-O ) :   0.8397 B(  6-N ,  8-O ) :   0.8419 B(  7-O ,  8-O ) :  -0.2489 
B(  9-O , 14-H ) :   0.6303 


                     *******************************
                     * LOEWDIN POPULATION ANALYSIS *
                     *******************************

----------------------
LOEWDIN ATOMIC CHARGES
----------------------
   0 C :   -0.078765
   1 C :   -0.110186
   2 C :   -0.242372
   3 C :   -0.115440
   4 C :   -0.077912
   5 C :   -0.187064
   6 N :    0.014458
   7 O :   -0.084532
   8 O :   -0.084527
   9 O :    0.088048
  10 H :    0.165383
  11 H :    0.162110
  12 H :    0.164260
  13 H :    0.165691
  14 H :    0.220849

-------------------------------
LOEWDIN REDUCED ORBITAL CHARGES
-------------------------------
  0 C s       :     2.759790  s :     2.759790
      pz      :     0.827991  p :     2.887147
      px      :     1.054290
      py      :     1.004866
      dz2     :     0.024518  d :     0.387301
      dxz     :     0.074460
      dyz     :     0.035548
      dx2y2   :     0.105313
      dxy     :     0.147461
      f0      :     0.003396  f :     0.044527
      f+1     :     0.003947
      f-1     :     0.003444
      f+2     :     0.007247
      f-2     :     0.003759
      f+3     :     0.008109
      f-3     :     0.014626

  1 C s       :     2.758500  s :     2.758500
      pz      :     0.917771  p :     2.955095
      px      :     1.041002
      py      :     0.996322
      dz2     :     0.025166  d :     0.354661
      dxz     :     0.051052
      dyz     :     0.024776
      dx2y2   :     0.105579
      dxy     :     0.148088
      f0      :     0.003188  f :     0.041931
      f+1     :     0.004138
      f-1     :     0.003535
      f+2     :     0.005491
      f-2     :     0.002583
      f+3     :     0.008241
      f-3     :     0.014754

  2 C s       :     2.721728  s :     2.721728
      pz      :     0.797718  p :     2.732635
      px      :     0.846430
      py      :     1.088487
      dz2     :     0.044461  d :     0.689939
      dxz     :     0.146270
      dyz     :     0.079386
      dx2y2   :     0.221343
      dxy     :     0.198478
      f0      :     0.007049  f :     0.098071
      f+1     :     0.008841
      f-1     :     0.004537
      f+2     :     0.018009
      f-2     :     0.007515
      f+3     :     0.015855
      f-3     :     0.036265

  3 C s       :     2.759270  s :     2.759270
      pz      :     0.923721  p :     2.957695
      px      :     1.038594
      py      :     0.995381
      dz2     :     0.025623  d :     0.356529
      dxz     :     0.051187
      dyz     :     0.024647
      dx2y2   :     0.105927
      dxy     :     0.149145
      f0      :     0.003185  f :     0.041946
      f+1     :     0.004192
      f-1     :     0.003554
      f+2     :     0.005510
      f-2     :     0.002587
      f+3     :     0.008159
      f-3     :     0.014760

  4 C s       :     2.759843  s :     2.759843
      pz      :     0.826860  p :     2.885934
      px      :     1.053333
      py      :     1.005741
      dz2     :     0.024535  d :     0.387554
      dxz     :     0.074995
      dyz     :     0.035555
      dx2y2   :     0.105727
      dxy     :     0.146742
      f0      :     0.003406  f :     0.044581
      f+1     :     0.003945
      f-1     :     0.003448
      f+2     :     0.007298
      f-2     :     0.003766
      f+3     :     0.008113
      f-3     :     0.014605

  5 C s       :     2.711826  s :     2.711826
      pz      :     0.967252  p :     2.874572
      px      :     0.831409
      py      :     1.075911
      dz2     :     0.041791  d :     0.533345
      dxz     :     0.050306
      dyz     :     0.082151
      dx2y2   :     0.214042
      dxy     :     0.145055
      f0      :     0.004956  f :     0.067321
      f+1     :     0.007073
      f-1     :     0.004469
      f+2     :     0.005477
      f-2     :     0.007556
      f+3     :     0.013626
      f-3     :     0.024164

  6 N s       :     2.928854  s :     2.928854
      pz      :     0.988992  p :     3.242065
      px      :     1.158898
      py      :     1.094175
      dz2     :     0.041118  d :     0.743953
      dxz     :     0.063487
      dyz     :     0.155523
      dx2y2   :     0.268562
      dxy     :     0.215263
      f0      :     0.002540  f :     0.070670
      f+1     :     0.002796
      f-1     :     0.006276
      f+2     :     0.004620
      f-2     :     0.012721
      f+3     :     0.010116
      f-3     :     0.031602

  7 O s       :     3.504939  s :     3.504939
      pz      :     1.417663  p :     4.474645
      px      :     1.651767
      py      :     1.405215
      dz2     :     0.012769  d :     0.094538
      dxz     :     0.004902
      dyz     :     0.016245
      dx2y2   :     0.025704
      dxy     :     0.034919
      f0      :     0.000868  f :     0.010410
      f+1     :     0.000555
      f-1     :     0.001496
      f+2     :     0.000469
      f-2     :     0.001031
      f+3     :     0.003491
      f-3     :     0.002500

  8 O s       :     3.504858  s :     3.504858
      pz      :     1.417822  p :     4.474700
      px      :     1.651703
      py      :     1.405174
      dz2     :     0.012771  d :     0.094557
      dxz     :     0.004903
      dyz     :     0.016252
      dx2y2   :     0.025710
      dxy     :     0.034921
      f0      :     0.000868  f :     0.010412
      f+1     :     0.000555
      f-1     :     0.001497
      f+2     :     0.000469
      f-2     :     0.001031
      f+3     :     0.003492
      f-3     :     0.002501

  9 O s       :     3.314265  s :     3.314265
      pz      :     1.692452  p :     4.523667
      px      :     1.370273
      py      :     1.460942
      dz2     :     0.007845  d :     0.069276
      dxz     :     0.012692
      dyz     :     0.000440
      dx2y2   :     0.024571
      dxy     :     0.023728
      f0      :     0.000381  f :     0.004743
      f+1     :     0.000717
      f-1     :     0.000389
      f+2     :     0.000541
      f-2     :     0.000013
      f+3     :     0.001260
      f-3     :     0.001443

 10 H s       :     0.772975  s :     0.772975
      pz      :     0.011528  p :     0.061642
      px      :     0.018497
      py      :     0.031617

 11 H s       :     0.777146  s :     0.777146
      pz      :     0.013549  p :     0.060744
      px      :     0.016840
      py      :     0.030355

 12 H s       :     0.775040  s :     0.775040
      pz      :     0.013647  p :     0.060700
      px      :     0.016514
      py      :     0.030539

 13 H s       :     0.772624  s :     0.772624
      pz      :     0.011510  p :     0.061685
      px      :     0.018505
      py      :     0.031670

 14 H s       :     0.629884  s :     0.629884
      pz      :     0.039217  p :     0.149267
      px      :     0.029993
      py      :     0.080056


---------------------------------
LOEWDIN BOND ORDERS (THRESH 0.050000)
---------------------------------
B(  0-C ,  1-C ) :   1.6222 B(  0-C ,  2-C ) :   0.2499 B(  0-C ,  3-C ) :   0.0956 
B(  0-C ,  4-C ) :   0.2154 B(  0-C ,  5-C ) :   1.4532 B(  0-C ,  6-N ) :   0.1431 
B(  0-C ,  7-O ) :   0.0560 B(  0-C , 10-H ) :   0.8098 B(  0-C , 11-H ) :   0.0984 
B(  1-C ,  2-C ) :   1.4498 B(  1-C ,  3-C ) :   0.2144 B(  1-C ,  4-C ) :   0.0959 
B(  1-C ,  5-C ) :   0.2424 B(  1-C ,  9-O ) :   0.1557 B(  1-C , 10-H ) :   0.0980 
B(  1-C , 11-H ) :   0.8162 B(  2-C ,  3-C ) :   1.4590 B(  2-C ,  4-C ) :   0.2502 
B(  2-C ,  5-C ) :   0.0965 B(  2-C ,  9-O ) :   1.6948 B(  2-C , 11-H ) :   0.0953 
B(  2-C , 12-H ) :   0.0948 B(  2-C , 14-H ) :   0.1043 B(  3-C ,  4-C ) :   1.6159 
B(  3-C ,  5-C ) :   0.2429 B(  3-C ,  9-O ) :   0.1459 B(  3-C , 12-H ) :   0.8137 
B(  3-C , 13-H ) :   0.0981 B(  4-C ,  5-C ) :   1.4587 B(  4-C ,  6-N ) :   0.1440 
B(  4-C ,  8-O ) :   0.0565 B(  4-C , 12-H ) :   0.0979 B(  4-C , 13-H ) :   0.8093 
B(  5-C ,  6-N ) :   1.1407 B(  5-C ,  7-O ) :   0.1811 B(  5-C ,  8-O ) :   0.1810 
B(  5-C , 10-H ) :   0.0937 B(  5-C , 13-H ) :   0.0938 B(  6-N ,  7-O ) :   2.2267 
B(  6-N ,  8-O ) :   2.2269 B(  7-O ,  8-O ) :   0.3305 B(  9-O , 14-H ) :   0.9644 


------------------------------------------
LOEWDIN REDUCED ORBITAL POPULATIONS PER MO
-------------------------------------------
THRESHOLD FOR PRINTING IS 0.1%%
                      0         1         2         3         4         5   
                 -21.71671 -21.71631 -21.71619 -16.78314 -12.13808 -12.10751
                   2.00000   2.00000   2.00000   2.00000   2.00000   2.00000
                  --------  --------  --------  --------  --------  --------
 0 C  s               0.0       0.0       0.0       0.0       0.0       0.1
 0 C  dxy             0.0       0.0       0.0       0.0       0.0       0.1
 1 C  dxy             0.0       0.0       0.0       0.0       0.1       0.0
 2 C  s               0.0       0.0       0.0       0.0      98.9       0.0
 3 C  dxy             0.0       0.0       0.0       0.0       0.1       0.0
 4 C  s               0.0       0.0       0.0       0.0       0.0       0.2
 4 C  dxy             0.0       0.0       0.0       0.0       0.0       0.1
 5 C  s               0.0       0.0       0.0       0.0       0.0      98.6
 6 N  s               0.0       0.0       0.0      99.5       0.0       0.0
 7 O  s               0.0      52.2      47.6       0.0       0.0       0.0
 8 O  s               0.0      47.6      52.2       0.0       0.0       0.0
 9 O  s              99.8       0.0       0.0       0.0       0.0       0.0

                      6         7         8         9        10        11   
                 -12.07995 -12.07908 -12.06350 -12.06168  -1.90594  -1.75090
                   2.00000   2.00000   2.00000   2.00000   2.00000   2.00000
                  --------  --------  --------  --------  --------  --------
 0 C  s               6.8      91.7       0.0       0.4       0.1       0.0
 0 C  px              0.0       0.0       0.0       0.1       0.4       0.1
 0 C  dx2y2           0.0       0.0       0.0       0.2       0.0       0.0
 1 C  s               0.0       0.3       1.1      97.5       0.0       0.0
 1 C  dx2y2           0.0       0.2       0.0       0.0       0.0       0.0
 2 C  dxy             0.0       0.0       0.2       0.1       0.0       0.0
 3 C  s               0.4       0.0      97.4       1.1       0.0       0.0
 3 C  dx2y2           0.2       0.0       0.0       0.0       0.0       0.0
 4 C  s              91.6       6.7       0.4       0.0       0.1       0.0
 4 C  px              0.0       0.0       0.1       0.0       0.4       0.1
 4 C  dx2y2           0.0       0.0       0.2       0.0       0.0       0.0
 5 C  s               0.1       0.2       0.0       0.0       1.4       0.0
 5 C  px              0.0       0.0       0.0       0.0       3.8       0.0
 5 C  py              0.1       0.0       0.0       0.0       0.0       0.5
 5 C  dz2             0.0       0.1       0.0       0.0       0.4       0.0
 5 C  dx2y2           0.0       0.1       0.0       0.0       1.1       0.0
 5 C  dxy             0.2       0.1       0.0       0.0       0.0       0.7
 5 C  f-3             0.0       0.0       0.0       0.0       0.0       0.1
 6 N  s               0.0       0.0       0.0       0.0      31.2       0.0
 6 N  px              0.0       0.0       0.0       0.0       4.6       0.0
 6 N  py              0.0       0.0       0.0       0.0       0.0      34.9
 6 N  dz2             0.0       0.0       0.0       0.0       1.1       0.0
 6 N  dx2y2           0.0       0.0       0.0       0.0       1.0       0.0
 6 N  dxy             0.0       0.0       0.0       0.0       0.0       4.7
 6 N  f-1             0.0       0.0       0.0       0.0       0.0       0.3
 6 N  f+3             0.0       0.0       0.0       0.0       0.5       0.0
 7 O  s               0.0       0.0       0.0       0.0      19.6      26.8
 7 O  px              0.0       0.0       0.0       0.0       1.1       0.7
 7 O  py              0.0       0.0       0.0       0.0       5.1       1.5
 7 O  dz2             0.0       0.0       0.0       0.0       0.2       0.0
 7 O  dx2y2           0.0       0.0       0.0       0.0       0.4       0.0
 7 O  dxy             0.0       0.0       0.0       0.0       0.3       0.2
 8 O  s               0.0       0.0       0.0       0.0      19.6      26.8
 8 O  px              0.0       0.0       0.0       0.0       1.1       0.7
 8 O  py              0.0       0.0       0.0       0.0       5.1       1.5
 8 O  dz2             0.0       0.0       0.0       0.0       0.2       0.0
 8 O  dx2y2           0.0       0.0       0.0       0.0       0.4       0.0
 8 O  dxy             0.0       0.0       0.0       0.0       0.3       0.2

                     12        13        14        15        16        17   
                  -1.73679  -1.43902  -1.37348  -1.30363  -1.27457  -1.19792
                   2.00000   2.00000   2.00000   2.00000   2.00000   2.00000
                  --------  --------  --------  --------  --------  --------
 0 C  s               0.0       7.8       2.3      11.4       5.8       1.9
 0 C  px              0.1       0.1       4.0       2.3       1.0       1.9
 0 C  py              0.0       3.3       0.0       0.4       1.1       0.4
 0 C  dz2             0.0       0.5       0.1       0.2       0.1       0.0
 0 C  dx2y2           0.0       0.0       0.1       0.9       0.5       0.0
 0 C  dxy             0.0       0.5       0.5       0.0       0.2       0.1
 1 C  s               0.4       3.5       9.2      12.0       0.5       0.5
 1 C  px              0.8       1.2       0.0       1.9       5.5       3.7
 1 C  py              0.6       0.8       2.3       0.3       1.6       0.6
 1 C  dz2             0.1       0.2       0.4       0.2       0.0       0.0
 1 C  dx2y2           0.0       0.0       0.1       0.8       0.8       0.1
 1 C  dxy             0.3       0.0       0.1       0.0       0.8       0.2
 1 C  f+3             0.0       0.0       0.1       0.1       0.0       0.0
 2 C  s               7.7       2.2      10.7       0.0       9.5       2.2
 2 C  px             11.3       2.1       4.4       0.0       0.1       2.2
 2 C  py              0.0       0.0       0.0      10.5       0.0       0.6
 2 C  dz2             1.2       0.1       0.3       0.0       0.0       0.1
 2 C  dx2y2           3.5       0.0       0.4       0.0       0.8       0.0
 2 C  dxy             0.0       0.0       0.0       2.0       0.1       0.1
 2 C  f+1             0.3       0.0       0.0       0.0       0.0       0.0
 2 C  f+3             0.5       0.0       0.1       0.0       0.1       0.0
 3 C  s               0.4       3.4       8.8      12.2       1.2       1.1
 3 C  px              0.8       1.2       0.0       2.7       3.6       0.9
 3 C  py              0.6       0.8       2.2       0.4       1.3       0.3
 3 C  dz2             0.1       0.2       0.4       0.2       0.0       0.0
 3 C  dx2y2           0.0       0.0       0.1       1.0       0.6       0.0
 3 C  dxy             0.3       0.0       0.1       0.0       0.7       0.1
 3 C  f+3             0.0       0.0       0.1       0.1       0.0       0.0
 4 C  s               0.0       7.9       2.2      13.4       3.3       0.3
 4 C  px              0.1       0.1       4.0       2.3       1.3       2.8
 4 C  py              0.0       3.3       0.0       0.3       1.2       0.3
 4 C  dz2             0.0       0.5       0.1       0.2       0.0       0.0
 4 C  dx2y2           0.0       0.0       0.1       0.8       0.7       0.0
 4 C  dxy             0.0       0.5       0.5       0.0       0.2       0.1
 4 C  f+3             0.0       0.1       0.0       0.1       0.0       0.0
 5 C  s               0.0      20.7       1.0       0.0       5.3       1.6
 5 C  px              0.0       0.9       8.6       0.0       5.4       3.6
 5 C  py              0.0       0.0       0.0      10.4       0.1       0.3
 5 C  dz2             0.0       0.9       0.0       0.0       0.0       0.0
 5 C  dx2y2           0.0       0.2       0.5       0.0       1.7       0.0
 5 C  dxy             0.0       0.0       0.0       2.4       0.0       0.0
 5 C  f+1             0.0       0.0       0.1       0.0       0.1       0.0
 5 C  f+3             0.0       0.4       0.1       0.0       0.0       0.0
 6 N  s               0.0       4.2       4.5       0.0       4.3       1.4
 6 N  px              0.0      16.8       8.7       0.0       0.1      12.0
 6 N  dz2             0.0       0.0       0.1       0.0       0.3       0.3
 6 N  dx2y2           0.0       1.2       0.6       0.0       0.1       0.1
 6 N  dxy             0.0       0.0       0.0       0.2       0.0       0.0
 7 O  s               0.0       3.5       4.1       0.1       5.0       5.9
 7 O  px              0.0       1.4       1.6       0.1       1.3       0.1
 7 O  py              0.0       0.4       1.0       0.1       4.7      14.1
 7 O  dz2             0.0       0.0       0.0       0.0       0.1       0.1
 7 O  dx2y2           0.0       0.0       0.0       0.0       0.1       0.5
 7 O  dxy             0.0       0.2       0.2       0.0       0.2       0.0
 8 O  s               0.0       3.5       4.1       0.0       5.3       4.8
 8 O  px              0.0       1.4       1.6       0.0       1.3       0.0
 8 O  py              0.0       0.4       1.0       0.0       4.8      12.5
 8 O  dx2y2           0.0       0.0       0.0       0.0       0.1       0.5
 8 O  dxy             0.0       0.2       0.2       0.0       0.2       0.0
 9 O  s              56.0       0.2       1.1       0.0       1.3       0.4
 9 O  px              1.0       0.3       3.2       0.1       9.5      12.4
 9 O  py              0.5       0.0       0.2       0.5       0.8       2.8
 9 O  dx2y2           0.1       0.0       0.1       0.0       0.3       0.3
10 H  s               0.0       0.8       0.3       1.8       1.1       0.3
10 H  py              0.0       0.1       0.0       0.1       0.1       0.0
11 H  s               0.1       0.4       1.1       1.8       0.1       0.1
11 H  py              0.0       0.0       0.1       0.1       0.0       0.0
12 H  s               0.1       0.4       1.0       1.9       0.2       0.3
12 H  px              0.0       0.0       0.0       0.1       0.0       0.0
12 H  py              0.0       0.0       0.1       0.1       0.1       0.0
13 H  s               0.0       0.8       0.3       2.1       0.6       0.0
13 H  px              0.0       0.0       0.0       0.1       0.0       0.0
13 H  py              0.0       0.1       0.0       0.2       0.1       0.0
14 H  s              10.0       0.1       0.7       0.1       2.2       3.6
14 H  px              0.5       0.0       0.0       0.0       0.0       0.0
14 H  py              2.4       0.0       0.2       0.0       0.4       0.4

                     18        19        20        21        22        23   
                  -1.16223  -1.14495  -1.12366  -1.08206  -1.06822  -1.02683
                   2.00000   2.00000   2.00000   2.00000   2.00000   2.00000
                  --------  --------  --------  --------  --------  --------
 0 C  s               0.9       0.1       3.7       0.0       2.5       0.1
 0 C  pz              0.0       0.0       0.0       0.1       0.0       0.0
 0 C  px              2.0       0.2       7.9       0.0       0.3       4.4
 0 C  py              0.0       0.5       1.5       0.0       7.4       4.3
 0 C  dx2y2           0.0       0.3       1.3       0.0       0.3       0.1
 1 C  s               1.5       0.1       7.9       0.0       0.2       0.5
 1 C  px              0.9       0.8       2.0       0.0       2.3       3.0
 1 C  py              0.1       0.0       0.2       0.0       6.4       5.6
 1 C  dx2y2           0.0       0.2       0.5       0.0       0.9       0.1
 1 C  dxy             0.0       0.0       0.0       0.0       0.1       0.1
 2 C  s               0.2       0.2       0.3       0.0       2.0       0.1
 2 C  px              0.6       3.8       5.2       0.0       4.4       4.7
 2 C  py              8.4       4.6       6.8       0.0       0.0       3.2
 2 C  dx2y2           0.1       0.5       0.3       0.0       0.2       0.1
 2 C  dxy             0.0       0.2       0.5       0.0       0.8       2.2
 2 C  f-3             0.0       0.0       0.1       0.0       0.1       0.2
 3 C  s               3.4       2.3       0.1       0.0       2.7       0.6
 3 C  px              3.5       3.4       2.2       0.0       3.3       1.2
 3 C  py              0.4       0.5       0.1       0.0      10.4       0.1
 3 C  dx2y2           0.2       0.4       0.1       0.0       0.4       0.6
 3 C  dxy             0.1       0.0       0.1       0.0       0.1       0.2
 3 C  f-3             0.0       0.0       0.1       0.0       0.0       0.1
 4 C  s               3.6       3.1       1.1       0.0       0.7       1.0
 4 C  pz              0.0       0.0       0.0       0.1       0.0       0.0
 4 C  px              2.8       1.1       0.1       0.0       6.6       5.6
 4 C  py              0.2       0.2       0.9       0.0      10.5       0.2
 4 C  dx2y2           0.2       0.6       0.3       0.0       0.8       0.0
 5 C  s               0.0       0.4       1.1       0.0       2.5       0.1
 5 C  pz              0.0       0.0       0.0       2.3       0.0       0.0
 5 C  px              1.0       3.2       3.8       0.0       2.6       0.1
 5 C  py              8.7       1.1       6.4       0.0       1.6       6.1
 5 C  dxz             0.0       0.0       0.0       1.7       0.0       0.0
 5 C  dx2y2           0.1       0.6       0.9       0.0       0.1       0.2
 5 C  dxy             0.0       0.9       0.6       0.0       0.0       0.0
 5 C  f0              0.0       0.0       0.0       0.1       0.0       0.0
 5 C  f+2             0.0       0.0       0.0       0.2       0.0       0.0
 6 N  s               0.0       0.1       0.1       0.0       0.1       0.0
 6 N  pz              0.0       0.0       0.0      48.3       0.0       0.0
 6 N  px              1.5       4.1       4.0       0.0       1.2       0.0
 6 N  py              8.2       7.7       2.1       0.0       0.1       0.3
 6 N  dxz             0.0       0.0       0.0       0.5       0.0       0.0
 6 N  dx2y2           0.0       0.1       0.2       0.0       0.3       0.0
 6 N  dxy             1.0       0.1       0.1       0.0       0.1       0.3
 6 N  f0              0.0       0.0       0.0       0.1       0.0       0.0
 7 O  s               3.0       6.7       0.1       0.0       0.0       0.0
 7 O  pz              0.0       0.0       0.0      22.0       0.0       0.0
 7 O  px              7.7       3.3       2.9       0.0       0.8       0.0
 7 O  py              3.0      17.6       0.0       0.0       1.2       0.4
 7 O  dxz             0.0       0.0       0.0       0.2       0.0       0.0
 7 O  dyz             0.0       0.0       0.0       0.8       0.0       0.0
 7 O  dx2y2           0.0       0.1       0.1       0.0       0.0       0.0
 7 O  dxy             0.2       0.1       0.1       0.0       0.0       0.0
 8 O  s               7.4       1.5       1.8       0.0       0.0       0.0
 8 O  pz              0.0       0.0       0.0      22.0       0.0       0.0
 8 O  px              5.7       7.7       0.2       0.0       1.1       0.1
 8 O  py             13.7       1.4       7.9       0.0       0.2       0.4
 8 O  dz2             0.1       0.0       0.0       0.0       0.0       0.0
 8 O  dxz             0.0       0.0       0.0       0.2       0.0       0.0
 8 O  dyz             0.0       0.0       0.0       0.8       0.0       0.0
 8 O  dx2y2           0.1       0.1       0.1       0.0       0.0       0.0
 8 O  dxy             0.2       0.2       0.0       0.0       0.0       0.0
 9 O  s               0.1       0.1       0.4       0.0       0.5       3.7
 9 O  px              0.4       5.7      13.3       0.0       1.9      14.3
 9 O  py              3.2       7.1       0.3       0.0       8.5      29.2
 9 O  dz2             0.0       0.0       0.0       0.0       0.0       0.1
 9 O  dx2y2           0.0       0.2       0.2       0.0       0.0       0.0
 9 O  dxy             0.0       0.0       0.3       0.0       0.1       0.0
10 H  s               0.4       0.2       1.4       0.0       3.5       0.3
10 H  px              0.0       0.0       0.0       0.0       0.2       0.1
10 H  py              0.1       0.0       0.2       0.0       0.1       0.0
11 H  s               0.6       0.0       3.1       0.0       0.8       0.9
11 H  px              0.0       0.0       0.1       0.0       0.1       0.2
11 H  py              0.1       0.0       0.3       0.0       0.0       0.0
12 H  s               1.2       0.8       0.1       0.0       3.0       0.0
12 H  px              0.0       0.0       0.0       0.0       0.3       0.0
12 H  py              0.2       0.1       0.0       0.0       0.1       0.0
13 H  s               1.1       0.9       0.9       0.0       1.4       1.9
13 H  px              0.0       0.0       0.0       0.0       0.2       0.0
13 H  py              0.2       0.1       0.1       0.0       0.0       0.2
14 H  s               0.7       3.5       2.4       0.0       2.9       1.5
14 H  px              0.0       0.0       0.1       0.0       0.0       0.6
14 H  py              0.0       0.2       0.3       0.0       0.1       0.1

                     24        25        26        27        28        29   
                  -0.96441  -0.96297  -0.93569  -0.92737  -0.91733  -0.90724
                   2.00000   2.00000   2.00000   2.00000   2.00000   2.00000
                  --------  --------  --------  --------  --------  --------
 0 C  s               0.0       0.0       0.1       0.2       1.4       0.0
 0 C  px              0.0       8.2       0.9       0.5       8.7       0.0
 0 C  py              0.0       2.3       0.0       0.9      10.1       0.0
 0 C  dx2y2           0.0       0.1       0.0       0.0       0.1       0.0
 0 C  dxy             0.0       0.0       1.0       0.0       1.7       0.0
 1 C  s               0.0       0.1       1.0       0.0       0.5       0.0
 1 C  pz              0.7       0.0       0.0       0.0       0.0       0.0
 1 C  px              0.0      10.6       3.6       0.1       1.4       0.0
 1 C  py              0.0       1.5       4.5       1.0       2.2       0.0
 1 C  dxz             0.2       0.0       0.0       0.0       0.0       0.0
 1 C  dyz             0.3       0.0       0.0       0.0       0.0       0.0
 1 C  dx2y2           0.0       0.1       0.1       0.0       0.1       0.0
 1 C  dxy             0.0       0.0       0.2       0.0       1.5       0.0
 1 C  f-3             0.0       0.1       0.0       0.0       0.2       0.0
 2 C  s               0.0       0.1       0.2       0.0       1.7       0.0
 2 C  pz             12.9       0.0       0.0       0.0       0.0       0.0
 2 C  px              0.0       0.3       0.2       0.0       2.8       0.0
 2 C  py              0.0       9.9       0.0       0.7       0.0       0.0
 2 C  dz2             0.0       0.0       0.0       0.0       0.2       0.0
 2 C  dxz             3.9       0.0       0.0       0.0       0.0       0.0
 2 C  dx2y2           0.0       0.1       1.9       0.0       0.3       0.0
 2 C  dxy             0.0       1.6       0.0       0.1       0.0       0.0
 2 C  f0              0.3       0.0       0.0       0.0       0.0       0.0
 2 C  f+2             0.5       0.0       0.0       0.0       0.0       0.0
 2 C  f-3             0.0       0.7       0.0       0.0       0.0       0.0
 3 C  s               0.0       0.3       1.1       0.0       0.4       0.0
 3 C  pz              0.6       0.0       0.0       0.0       0.0       0.0
 3 C  px              0.0       7.8       4.4       0.1       2.1       0.0
 3 C  py              0.0       3.0       4.5       0.8       2.8       0.0
[...]
 3 C  f-3             0.0       0.0       0.1       0.0       0.0       0.0
 4 C  s               0.0       0.0       0.0       0.0       0.2       0.1
 4 C  dx2y2           0.0       0.0       0.0       0.1       0.0       0.2
 4 C  f-3             0.0       0.0       0.0       0.1       0.0       0.1
 5 C  s               0.1       0.5       0.1       0.0       0.7       0.0
 5 C  px              0.4       0.2       0.0       0.0       0.4       0.0
 5 C  py              0.0       0.0       0.0       0.1       0.0       0.8
 5 C  dx2y2           0.1       0.3       0.0       0.0       0.4       0.0
 5 C  dxy             0.0       0.0       0.0       0.3       0.0       1.8
 5 C  f+1             0.1       0.0       0.0       0.0       0.0       0.0
 5 C  f+3             0.2       0.3       0.0       0.0       0.1       0.0
 5 C  f-3             0.0       0.0       0.0       1.9       0.0       0.2
 6 N  s               0.2       3.8       0.1       0.0      16.9       0.0
 6 N  px              4.5       0.7       0.0       0.0       3.4       0.0
 6 N  py              0.0       0.0       0.0       0.5       0.0      15.1
 6 N  dz2             0.2       1.3       0.1       0.0       7.7       0.0
 6 N  dx2y2           4.7       1.6       0.1       0.0       4.1       0.0
 6 N  dxy             0.0       0.0       0.1       3.9       0.0      17.0
 6 N  f+1             1.3       0.3       0.0       0.0       0.8       0.0
 6 N  f-1             0.0       0.0       0.0       0.0       0.0       2.0
 6 N  f+3             0.0       9.2       0.0       0.0       7.7       0.0
 6 N  f-3             0.0       0.0       0.3      28.1       0.0       3.0
 7 O  s               0.1       1.2       0.1       1.1       7.3       5.0
 7 O  px              1.2       0.3       0.0       0.4       1.4       3.0
 7 O  py              0.6       1.1       0.1       2.1       4.9       2.9
 7 O  dz2             0.0       8.5       0.0       0.1       0.4       1.0
 7 O  dx2y2          19.7       7.1       0.1       3.4       1.8       0.2
 7 O  dxy            10.2      16.8       0.0       0.7       1.9       2.8
 7 O  f+1             0.2       1.2       0.0       0.5       0.8       2.0
 7 O  f-1             1.0       2.3       0.0       0.6       2.2       3.3
 7 O  f+3             0.1       2.0       0.1       1.5       7.2       7.4
 7 O  f-3            10.8       0.0       0.2      20.9       0.3       1.6
 8 O  s               0.1       1.2       0.0       1.3       7.1       5.1
 8 O  px              1.2       0.3       0.1       0.4       1.4       3.0
 8 O  py              0.6       1.1       0.0       2.2       4.8       3.0
 8 O  dz2             0.0       8.5       0.0       0.1       0.4       1.0
 8 O  dx2y2          19.6       7.2       0.1       3.4       1.9       0.2
 8 O  dxy            10.1      16.7       0.1       0.7       1.9       2.8
 8 O  f+1             0.2       1.2       0.1       0.5       0.8       2.0
 8 O  f-1             1.0       2.3       0.0       0.7       2.2       3.3
 8 O  f+3             0.1       2.1       0.0       1.7       7.0       7.5
 8 O  f-3            10.5       0.0       0.5      20.7       0.3       1.6
 9 O  s               0.0       0.0       2.9       0.0       0.0       0.0
 9 O  px              0.0       0.0       0.3       0.0       0.0       0.0
 9 O  py              0.0       0.0       0.4       0.0       0.0       0.0
 9 O  dz2             0.0       0.0       5.8       0.1       0.1       0.0
 9 O  dx2y2           0.0       0.0       5.7       0.1       0.2       0.0
 9 O  dxy             0.1       0.1      40.9       0.3       0.2       0.0
 9 O  f+1             0.0       0.0       0.3       0.0       0.0       0.0
 9 O  f-1             0.0       0.0       2.6       0.0       0.0       0.0
 9 O  f+3             0.0       0.0      10.3       0.1       0.0       0.0
 9 O  f-3             0.1       0.1      13.8       0.2       0.1       0.0
14 H  s               0.0       0.0       6.3       0.1       0.0       0.0
14 H  py              0.0       0.0       0.4       0.0       0.0       0.0

                    330       331       332       333       334       335   
                  20.61737  21.05550  21.13707  21.14207  21.35021  21.70848
                   0.00000   0.00000   0.00000   0.00000   0.00000   0.00000
                  --------  --------  --------  --------  --------  --------
 0 C  s              19.8       9.3      35.0      24.5       0.9       8.1
 0 C  px              0.2       0.1       0.0       0.2       0.0       0.0
 1 C  s              22.8      38.7       8.8      11.9       6.7       9.0
 1 C  px              0.0       0.0       0.1       0.3       0.0       0.0
 1 C  py              0.0       0.0       0.0       0.1       0.0       0.0
 1 C  dx2y2           0.0       0.0       0.0       0.1       0.0       0.0
 2 C  s               7.3       0.2       0.0      23.1      37.9      28.9
 2 C  px              0.2       0.0       0.0       0.0       0.0       0.0
 2 C  py              0.0       0.7       0.0       0.0       0.0       0.0
 2 C  dxy             0.0       0.3       0.0       0.0       0.0       0.0
 3 C  s              23.4      38.4      12.0      11.9       4.6       7.6
 3 C  px              0.0       0.1       0.1       0.3       0.0       0.0
 4 C  s              19.7      10.6      42.4      15.9       1.0       8.3
 4 C  px              0.2       0.1       0.0       0.2       0.0       0.0
 5 C  s               4.4       0.0       0.1      10.1      47.1      36.1
 5 C  px              0.3       0.0       0.0       0.1       0.0       0.0
 5 C  py              0.0       0.4       0.4       0.0       0.0       0.0
 5 C  dx2y2           0.2       0.0       0.0       0.0       0.0       0.0
 5 C  dxy             0.0       0.2       0.3       0.0       0.0       0.0
 6 N  s               0.1       0.0       0.0       0.0       0.0       0.0
 6 N  px              0.2       0.0       0.0       0.1       0.2       0.2
 6 N  dx2y2           0.0       0.0       0.0       0.0       0.2       0.1
 9 O  s               0.2       0.0       0.0       0.1       0.1       0.1
 9 O  px              0.1       0.0       0.0       0.1       0.2       0.2

                    336       337       338       339   
                  30.48368  41.55726  41.68907  41.72579
                   0.00000   0.00000   0.00000   0.00000
                  --------  --------  --------  --------
 6 N  s              98.1       0.0       0.0       0.2
 6 N  px              0.3       0.0       0.0       0.0
 6 N  py              0.0       0.0       0.1       0.0
 7 O  s               0.2       0.9      53.1      45.7
 7 O  py              0.2       0.0       0.0       0.0
 8 O  s               0.2       0.6      46.6      52.5
 8 O  py              0.2       0.0       0.0       0.0
 9 O  s               0.0      98.3       0.0       1.4


                      *****************************
                      * MAYER POPULATION ANALYSIS *
                      *****************************

  NA   - Mulliken gross atomic population
  ZA   - Total nuclear charge
  QA   - Mulliken gross atomic charge
  VA   - Mayer's total valence
  BVA  - Mayer's bonded valence
  FA   - Mayer's free valence

  ATOM       NA         ZA         QA         VA         BVA        FA
  0 C      6.1761     6.0000    -0.1761     4.0028     4.0028    -0.0000
  1 C      6.2150     6.0000    -0.2150     3.9309     3.9309     0.0000
  2 C      5.7137     6.0000     0.2863     3.9939     3.9939    -0.0000
  3 C      6.2145     6.0000    -0.2145     3.8422     3.8422    -0.0000
  4 C      6.1799     6.0000    -0.1799     3.9587     3.9587     0.0000
  5 C      5.9035     6.0000     0.0965     3.7396     3.7396    -0.0000
  6 N      6.4996     7.0000     0.5004     4.2313     4.2313    -0.0000
  7 O      8.3892     8.0000    -0.3892     1.8787     1.8787     0.0000
  8 O      8.3891     8.0000    -0.3891     1.8799     1.8799     0.0000
  9 O      8.4320     8.0000    -0.4320     2.0870     2.0870    -0.0000
 10 H      0.8154     1.0000     0.1846     0.9835     0.9835    -0.0000
 11 H      0.8300     1.0000     0.1700     0.9753     0.9753     0.0000
 12 H      0.8171     1.0000     0.1829     0.9618     0.9618    -0.0000
 13 H      0.8128     1.0000     0.1872     0.9846     0.9846     0.0000
 14 H      0.6123     1.0000     0.3877     0.8607     0.8607    -0.0000

  Mayer bond orders larger than 0.100000
B(  0-C ,  1-C ) :   1.4997 B(  0-C ,  5-C ) :   1.3402 B(  0-C , 10-H ) :   0.9448 
B(  1-C ,  2-C ) :   1.3454 B(  1-C , 11-H ) :   0.9743 B(  2-C ,  3-C ) :   1.3381 
B(  2-C ,  9-O ) :   1.1703 B(  3-C ,  4-C ) :   1.4463 B(  3-C , 12-H ) :   0.9618 
B(  4-C ,  5-C ) :   1.3476 B(  4-C , 13-H ) :   0.9333 B(  5-C ,  6-N ) :   1.0387 
B(  6-N ,  7-O ) :   1.5931 B(  6-N ,  8-O ) :   1.5939 B(  7-O ,  8-O ) :   0.1730 
B(  9-O , 14-H ) :   0.8390 

-------
TIMINGS
-------

Total SCF time: 0 days 0 hours 3 min 42 sec 

Total time                  ....     222.785 sec
Sum of individual times     ....     219.342 sec  ( 98.5%)

SCF preparation             ....       0.355 sec  (  0.2%)
Fock matrix formation       ....     217.066 sec  ( 97.4%)
  Startup                   ....       0.071 sec  (  0.0% of F)
  Split-RI-J                ....       9.279 sec  (  4.3% of F)
  Chain of spheres X        ....     180.635 sec  ( 83.2% of F)
  XC integration            ....      20.909 sec  (  9.6% of F)
    XC Preparation          ....       0.000 sec  (  0.0% of XC)
    Basis function eval.    ....       4.667 sec  ( 22.3% of XC)
    Density eval.           ....       3.984 sec  ( 19.1% of XC)
    XC-Functional eval.     ....       4.171 sec  ( 19.9% of XC)
    XC-Potential eval.      ....       7.131 sec  ( 34.1% of XC)
  CPCM terms                ....       8.387 sec  (  3.9% of F)
Diagonalization             ....       0.000 sec  (  0.0%)
Density matrix formation    ....       0.261 sec  (  0.1%)
Total Energy calculation    ....       0.068 sec  (  0.0%)
Population analysis         ....       0.217 sec  (  0.1%)
Orbital Transformation      ....       0.097 sec  (  0.0%)
Orbital Orthonormalization  ....       0.000 sec  (  0.0%)
DIIS solution               ....       0.653 sec  (  0.3%)
  MO trafo                  ....       0.000 sec  (  0.0 % of DIIS)
  Orb grad                  ....       0.000 sec  (  0.0 % of DIIS)
  Energy W gradient         ....       0.000 sec  (  0.0 % of DIIS)
  DIIS error                ....       0.020 sec  (  3.1 % of DIIS)
  DIIS work                 ....       0.569 sec  ( 87.1 % of DIIS)
  Form Q                    ....       0.000 sec  (  0.0 % of DIIS)
  Form QpQm                 ....       0.000 sec  (  0.0 % of DIIS)
  Exp/Cayley                ....       0.000 sec  (  0.0 % of DIIS)
  Orb update                ....       0.000 sec  (  0.0 % of DIIS)
  Wake-sleep                ....       0.013 sec  (  2.1 % of DIIS)
SOSCF solution              ....       0.404 sec  (  0.2%)
  MO trafo                  ....       0.118 sec  ( 29.3 % of SOSCF)
  Orb grad                  ....       0.004 sec  (  1.1 % of SOSCF)
  Rot update                ....       0.153 sec  ( 37.7 % of SOSCF)
  Step                      ....       0.129 sec  ( 31.9 % of SOSCF)
Grid generation             ....       0.220 sec  (  0.1%)
Finished LeanSCF after 222.9 sec

Maximum memory used throughout the entire LEANSCF-calculation: 46.0 MB
------------------   -----------------
gCP correction             0.008013919
------------------   -----------------

-------------------------   --------------------
FINAL SINGLE POINT ENERGY      -512.025773282008
-------------------------   --------------------


------------------------------------------------------------------------------
                              ORCA PROPERTY CALCULATIONS
------------------------------------------------------------------------------

GBWName                                 ... sp_solv.gbw
Number of atoms                         ...     15
Number of basis functions               ...    340
Max core memory                         ...   1024 MB

Electric properties:
Dipole moment                           ... YES
Quadrupole moment                       ...  NO
Static polarizability (Dipole/Dipole)   ...  NO
Static polarizability (Dipole/Quad.)    ...  NO
Static polarizability (Quad./Quad.)     ...  NO
Static polarizability (Velocity)        ...  NO

Atomic electric properties:
Dipole moment                           ...  NO
Quadrupole moment                       ...  NO
Static polarizability                   ...  NO

Choice of electric origin               ... Center of mass
Position of electric origin             ...    -0.006650    -0.000527    -0.000009

General magnetic properties:
Magnetizability                         ...  NO

EPR properties:
g-Tensor (aka g-matrix)                 ...  NO
Zero-Field splitting spin-orbit         ...  NO
Zero-field splitting spin-spin          ...  NO
Hyperfine couplings                     ...  NO (   0 nuclei)
Quadrupole couplings                    ...  NO (   0 nuclei)
Contact density                         ...  NO (   0 nuclei)

NMR properties:
Chemical shifts                         ...  NO (   0 nuclei)
Spin-rotation constants                 ...  NO (   0 nuclei)
Spin-spin couplings                     ...  NO (   0 nuclei,    0 pairs)

Choice of magnetic origin               ... GIAO
Position of magnetic origin             ...     0.000000     0.000000     0.000000

Properties with geometric perturbations:
SCF Hessian                             ...  NO
IR spectrum                             ...  NO
VCD spectrum                            ...  NO
X-ray spectroscopy properties:
SCF XES/XAS/RIXS spectra                ...  NO


-------------
DIPOLE MOMENT
-------------

Method             : SCF
Type of density    : Electron Density
Multiplicity       :   1
Irrep              :   0
Energy             :  -512.0337872008078648 Eh
Relativity type    : 
Basis              : AO
                                X                 Y                 Z
Electronic contribution:     -3.398829504      -0.000892876       0.000167301
Nuclear contribution   :      6.305495053       0.791509191       0.000109282
                        -----------------------------------------
Total Dipole Moment    :      2.906665549       0.790616315       0.000276583
                        -----------------------------------------
Magnitude (a.u.)       :      3.012271377
Magnitude (Debye)      :      7.656585360



--------------------
Rotational spectrum 
--------------------
 
Rotational constants in cm-1:             0.131269             0.027508             0.022742 
Rotational constants in MHz :          3935.351769           824.658728           681.788874 

Dipole components along the rotational axes: 
x,y,z [a.u.] :    -2.906553     0.791029     0.000199 
x,y,z [Debye]:    -7.387871     2.010636     0.000507 

 

Dipole moment calculation done in   0.0 sec 

Maximum memory used throughout the entire PROP-calculation: 29.4 MB

--------------------------------
SUGGESTED CITATIONS FOR THIS RUN
--------------------------------

Below you find a list of papers that are relevant to this ORCA run
We neither can nor want to force you to cite these papers, but we appreciate if you do
You receive ORCA, which is the product of decades of hard work by many enthusiastic individuals, for free
The only thing we kindly ask in return is that you cite our papers,
We deeply appreciate it, if you show your appreciation for ORCA by not just citing the generic ORCA reference.

Please note that relegating all ORCA citations to the supporting information does *not* help us.
SI sections are not indexed - citations you put there will not count into any citation statistics
But we need these citations in order to attract the funding resources that allow us to do what we are doing

Therefore, if you are a happy ORCA user, please consider citing a few of the papers listed below in the main body of your paper

In addition to the list printed below, the program has created the file sp_solv.bibtex that contains the list in bibtex format
You can import this file easily into all common literature databanks and citation aid programs


List of essential papers. We consider these as the minimum necessary citations

  1. Neese,F.
     Software update: the ORCA program system, version 5.0
     WIRES Comput. Molec. Sci., 2022 12(1)e1606
     doi.org/10.1002/wcms.1606

List of papers to cite with high priority. The work reported in these papers was absolutely
necessary for this run to complete.
Our perspective: the developers of density functionals and basis sets usually get cited in chemistry papers
Good! But without the algorithms to do something with them, the functionals or basis sets would not do anything.
Hence, in our opinion, the algorithm design and method developments papers are equally worthy of getting cited

  1. Neese,F.
     An improvement of the resolution of the identity approximation for the formation of the Coulomb matrix
     J. Comp. Chem., 2003 24(14)1740-1747
     doi.org/10.1002/jcc.10318
  2. Neese,F.; Wennmohs,F.; Hansen,A.; Becker,U.
     Efficient, approximate and parallel Hartree-Fock and hybrid DFT calculations. A 'chain-of-spheres' algorithm for the Hartree-Fock exchange
     Chem. Phys., 2009 356(1-3)98-109
     doi.org/10.1016/j.chemphys.2008.10.036
  3. Garcia-Rates,M.; Neese,F.
     Effect of the Solute Cavity on the Solvation Energy and its Derivatives within the Framework of the Gaussian Charge Scheme
     J. Comput. Chem., 2020 41 922-939
     doi.org/10.1002/jcc.26139
  4. Helmich-Paris,B.; de Souza,B.; Neese,F.; Izsák,R.
     An improved chain of spheres for exchange algorithm
     J. Chem. Phys., 2021 155 104109
     doi.org/doi: 10.1063/5.0058766.
  5. Neese,F.
     The SHARK Integral Generation and Digestion System
     J. Comp. Chem., 2022  1-16
     doi.org/10.1002/jcc.26942

List of suggested additional citations. These are papers that are important in the 'surrounding' of 
of this run, or papers that preceded the highly important papers. If you like your results we are grateful for a citation.

  1. Izsak,R.; Neese,F.
     An overlap fitted chain of spheres exchange method
     J. Chem. Phys., 2011 135 144105
     doi.org/10.1063/1.3646921
  2. Izsak,R.; Hansen,A.; Neese,F.
     The resolution of identity and chain of spheres approximations for the LPNO-CCSD singles Fock term
     Molec. Phys., 2012 110 2413-2417
     doi.org/10.1080/00268976.2012.687466
  3. Neese,F.
     The ORCA program system
     WIRES Comput. Molec. Sci., 2012 2(1)73-78
     doi.org/10.1002/wcms.81
  4. Izsak,R.; Neese,F.; Klopper,W.
     Robust fitting techniques in the chain of spheres approximation to the Fock exchange: The role of the complementary space
     J. Chem. Phys., 2013 139 
     doi.org/10.1063/1.4819264
  5. Neese,F.
     Software update: the ORCA program system, version 4.0
     WIRES Comput. Molec. Sci., 2018 8(1)1-6
     doi.org/10.1002/wcms.1327
  6. Neese,F.; Wennmohs,F.; Becker,U.; Riplinger,C.
     The ORCA quantum chemistry program package
     J. Chem. Phys., 2020 152 Art. No. L224108
     doi.org/10.1063/5.0004608

List of optional additional citations

  1. Neese,F.
     Approximate second-order SCF convergence for spin unrestricted wavefunctions
     Chem. Phys. Lett., 2000 325(1-3)93-98
     doi.org/10.1016/s0009-2614(00)00662-x

Timings for individual modules:

Sum of individual times          ...      226.335 sec (=   3.772 min)
Startup calculation              ...        2.539 sec (=   0.042 min)   1.1 %
SCF iterations                   ...      223.679 sec (=   3.728 min)  98.8 %
Property calculations            ...        0.117 sec (=   0.002 min)   0.1 %
                             ****ORCA TERMINATED NORMALLY****
TOTAL RUN TIME: 0 days 0 hours 3 minutes 46 seconds 992 msec
