17
 energy: -197.681482575020 gnorm: 0.022004314168 xtb: 6.7.1 (edcfbbe)
C           -2.06635009401565        0.42886932769004        0.32684804974484
C           -0.82209057546429        0.29663859903145       -0.54467348214136
C            0.42010561698616       -0.13988656236199        0.25952866131500
C            0.94147619331719       -1.49329793846172       -0.22098699699793
C            1.52817313687717        0.90880554590272        0.17701895167844
H           -2.30288042162047       -0.52091060983083        0.80144768535514
H           -2.92131071179451        0.73482658742562       -0.27198419592052
H           -1.90963605914621        1.17264905091963        1.10500849178966
H           -1.02053005185222       -0.42908899119014       -1.33539654829175
H           -0.62746570007805        1.25532875145627       -1.02874047265586
H            0.13293002565890       -0.24392334460809        1.31155956738119
H            0.16517919247320       -2.25122660199758       -0.14464307526410
H            1.79059334469346       -1.81124473360261        0.38026362586850
H            1.26187764935917       -1.42889627943318       -1.25892618605786
H            1.17301179431979        1.86959301252847        0.54263258204045
H            1.85880527082369        1.03059476565668       -0.85249718337776
H            2.38376360915631        0.60884459706980        0.77826520254487
17
 energy: -197.682091818046 gnorm: 0.006076385144 xtb: 6.7.1 (edcfbbe)
C           -2.07543948131444        0.43046333432015        0.32459113772965
C           -0.82578636023708        0.29827879411993       -0.54367564750316
C            0.42621498408412       -0.13949518904250        0.25271309955668
C            0.94423440725269       -1.49968160639530       -0.21708635623912
C            1.53466620447360        0.91181696898070        0.18140165795602
H           -2.31425496983031       -0.52264093316832        0.80555465557129
H           -2.94239971373784        0.73771626189410       -0.26703922608226
H           -1.92147098857021        1.17482413523328        1.11138084751589
H           -1.02188311980523       -0.42439080662753       -1.34341002529611
H           -0.63123568069117        1.25761532975784       -1.03562316606648
H            0.13475079963405       -0.24225742874887        1.30651239324570
H            0.16506547652644       -2.26424697206219       -0.14573803128080
H            1.79884654753466       -1.82667949984726        0.38273646214205
H            1.26572071557437       -1.43936498686975       -1.26177165611477
H            1.18127015532362        1.88132975828568        0.54455506233234
H            1.86804213822010        1.03777637454950       -0.85364268476854
H            2.39931110551489        0.61661146825556        0.78326612606943
17
 energy: -197.682152835841 gnorm: 0.001103050716 xtb: 6.7.1 (edcfbbe)
C           -2.07552481490376        0.42904495411683        0.32457105305958
C           -0.82601349434877        0.29966440921285       -0.54473067638087
C            0.42652670747646       -0.13906752220356        0.25498516804037
C            0.94344002655232       -1.49966665768346       -0.21611962455684
C            1.53567947026194        0.91185371240150        0.18082137710560
H           -2.31759521896327       -0.52495563670816        0.80721901368408
H           -2.94603909792881        0.73671544669172       -0.26516563133182
H           -1.92636469654546        1.17330837725483        1.11552284126886
H           -1.02007284017777       -0.42097826570097       -1.34916354302935
H           -0.63141039072843        1.25987831072803       -1.03870996321088
H            0.13300786299381       -0.24052217186476        1.30957712950977
H            0.16339578194205       -2.26631887181464       -0.14582577403294
H            1.79898883907971       -1.83113934894163        0.38351271017324
H            1.26694534724657       -1.44571344838994       -1.26326368166713
H            1.18421236268965        1.88452162270734        0.54347444575549
H            1.87312275590203        1.04185158193476       -0.85514579674375
H            2.40335361163928        0.61919828992002        0.78316555401426
17
 energy: -197.682157237676 gnorm: 0.000409209744 xtb: 6.7.1 (edcfbbe)
C           -2.07619652321374        0.42757446789170        0.32393320423231
C           -0.82640263757150        0.30101263853294       -0.54402382628791
C            0.42762800047771       -0.13818261461954        0.25406573058224
C            0.94258657726109       -1.49964215095297       -0.21512236687992
C            1.53693311555677        0.91184290756945        0.17991818583973
H           -2.31734363411448       -0.52727608226337        0.80501422019260
H           -2.94676191220656        0.73511248117017       -0.26549217246124
H           -1.92823971296117        1.17069676622868        1.11595961066111
H           -1.01918658595232       -0.41847252900756       -1.34971440270734
H           -0.63236484910545        1.26243760411434       -1.03571930938355
H            0.13452471269007       -0.23865096661642        1.30867983527606
H            0.16176083047147       -2.26523000835745       -0.14418683686468
H            1.79747136489439       -1.83181371220674        0.38473970909856
H            1.26622360190335       -1.44712921012853       -1.26204760469393
H            1.18624329566654        1.88460074759030        0.54261523249256
H            1.87421245476882        1.04168488618898       -0.85587281121946
H            2.40456406758902        0.61910923686332        0.78197809872673
17
 energy: -197.682157237676 gnorm: 0.000409209744 xtb: 6.7.1 (edcfbbe)
C           -2.07619652321374        0.42757446789170        0.32393320423231
C           -0.82640263757150        0.30101263853294       -0.54402382628791
C            0.42762800047771       -0.13818261461954        0.25406573058224
C            0.94258657726109       -1.49964215095297       -0.21512236687992
C            1.53693311555677        0.91184290756945        0.17991818583973
H           -2.31734363411448       -0.52727608226337        0.80501422019260
H           -2.94676191220656        0.73511248117017       -0.26549217246124
H           -1.92823971296117        1.17069676622868        1.11595961066111
H           -1.01918658595232       -0.41847252900756       -1.34971440270734
H           -0.63236484910545        1.26243760411434       -1.03571930938355
H            0.13452471269007       -0.23865096661642        1.30867983527606
H            0.16176083047147       -2.26523000835745       -0.14418683686468
H            1.79747136489439       -1.83181371220674        0.38473970909856
H            1.26622360190335       -1.44712921012853       -1.26204760469393
H            1.18624329566654        1.88460074759030        0.54261523249256
H            1.87421245476882        1.04168488618898       -0.85587281121946
H            2.40456406758902        0.61910923686332        0.78197809872673
