22
 energy: -38.872523457716 gnorm: 0.021064233558 xtb: 6.7.1 (edcfbbe)
C           -3.91760399464897        1.53257943284964        0.04194037891427
C           -3.16434839379486        1.47162425267539        1.21149864450169
C           -1.88072164785403        0.93410322634889        1.18851808461006
C           -1.34153304470310        0.44142640830899       -0.00448106840290
C           -2.10312919436680        0.50662157807159       -1.17672984477317
C           -3.38201207977831        1.05244314091908       -1.15176082613636
C            0.04161069834125       -0.08659781097846       -0.02089534141000
C            1.08058559725434        0.73992591748148        0.42673450833598
C            2.38978456965576        0.28517699061629        0.41744540976383
C            2.71955362396523       -0.98856841085459       -0.02558957426990
C            1.69826176458649       -1.82433157316088       -0.45923774523498
C            0.38311614991310       -1.37429223089332       -0.45232088751769
Cl          -0.86690354493110       -2.50822340843932       -0.94904476908973
Cl           3.66781384794518        1.35686588586266        0.97555660615559
H           -4.91706477955973        1.95551674781673        0.05882120322293
H           -3.57548430832216        1.84229605472463        2.14515024215379
H           -1.29330516914929        0.88492433728254        2.10046970126015
H           -1.68496454346234        0.14710693066337       -2.11136918535471
H           -3.95948459717968        1.10827968695132       -2.06918274767646
H            0.84653592212510        1.74378444611980        0.76307529056168
H            3.74694140244867       -1.33285492451637       -0.03065830769232
H            1.92979515163413       -2.82961167214143       -0.79197413864624
22
 energy: -38.873672827615 gnorm: 0.010390406120 xtb: 6.7.1 (edcfbbe)
C           -3.90439834423768        1.52253961369325        0.04030229864781
C           -3.15561298761636        1.46394846882763        1.20475866264664
C           -1.87616940753294        0.93483992286874        1.18268799229029
C           -1.33685431322740        0.44304321063036       -0.00355871795340
C           -2.09704246802143        0.49998142705266       -1.16932190950581
C           -3.37083431617415        1.04235801090539       -1.14577815507688
C            0.04349432176815       -0.08168146968289       -0.01698707526416
C            1.08000994364304        0.74066037466965        0.42637685822494
C            2.38487974961257        0.28698576041632        0.41505073979058
C            2.70712954941012       -0.98538562739121       -0.02516747263152
C            1.68589035062397       -1.81661708913690       -0.45469692609207
C            0.37621327617868       -1.36463993333747       -0.44747991292758
Cl          -0.88153563089558       -2.47077207913394       -0.95879860110401
Cl           3.65895193000275        1.34957496233668        0.97327327550393
H           -4.89960049868403        1.94380142154421        0.05572393005581
H           -3.56606176959229        1.83635951575317        2.13266299566361
H           -1.29272351318577        0.88632869768487        2.09134922983906
H           -1.68050701746600        0.13773589328865       -2.09855645937159
H           -3.94781447749044        1.09409736042901       -2.05837039358080
H            0.84973968518488        1.73912139995222        0.76551284361546
H            3.72976642310998       -1.32766842812147       -0.03059866891905
H            1.91052294470881       -2.81641640754091       -0.79241890057573
22
 energy: -38.873854008110 gnorm: 0.006046079005 xtb: 6.7.1 (edcfbbe)
C           -3.89977303082384        1.51478428355794        0.03901919410235
C           -3.15173783695189        1.46170326741283        1.20265916946520
C           -1.87258037494183        0.93767922110545        1.18166529539924
C           -1.33259493818723        0.44744226434777       -0.00286982971085
C           -2.09160325060746        0.49739073810156       -1.16698735730541
C           -3.36625774973640        1.03319173199034       -1.14431924707697
C            0.04618091489770       -0.07524227111037       -0.01573705844050
C            1.08149031190479        0.74314433283372        0.43030872417528
C            2.38479357398809        0.28719714021234        0.41863705282325
C            2.69994193485941       -0.98572216559479       -0.02453062077358
C            1.67784710139919       -1.81236303788654       -0.45681362755240
C            0.37080159195636       -1.35652927854864       -0.45175676785893
Cl          -0.89209986711851       -2.44625663897470       -0.96242691046744
Cl           3.65732238379242        1.34255993869338        0.97112398053332
H           -4.89469261711862        1.93220147059879        0.05343851717776
H           -3.56359923171612        1.83314273197860        2.12835613511986
H           -1.28890390606238        0.89241371191489        2.08842712024021
H           -1.67430272248338        0.13263581356498       -2.09324960485021
H           -3.94379840056252        1.07864380571621       -2.05494593445035
H            0.85440864549984        1.74021456606400        0.77059252381485
H            3.72033220866159       -1.32856390535975       -0.02994091481182
H            1.89626868946965       -2.81147271490998       -0.79468420627732
22
 energy: -38.873905843961 gnorm: 0.002630667419 xtb: 6.7.1 (edcfbbe)
C           -3.90069450482375        1.50830767414632        0.03832090384502
C           -3.15181387386022        1.46201553183971        1.20217605394926
C           -1.87030686101487        0.94386752046279        1.18190904506576
C           -1.32957329005936        0.45310878284423       -0.00210447952608
C           -2.08868371912036        0.49658918808556       -1.16627962576245
C           -3.36595630128322        1.02625817724794       -1.14435282515777
C            0.04855957411658       -0.06978202326129       -0.01437279598573
C            1.08467786784612        0.74571002567617        0.43317276097201
C            2.38780808732169        0.28713046206753        0.41992591178086
C            2.69706662262530       -0.98727237258092       -0.02538523954616
C            1.67344309607686       -1.81095133682301       -0.45873413352097
C            0.36710700117326       -1.35226377818678       -0.45350634205238
Cl          -0.89734110908466       -2.43240564852378       -0.96663142721840
Cl           3.66055602890698        1.33442311854983        0.97305830528106
H           -4.89736949775455        1.92106798152139        0.05219857716834
H           -3.56531854286656        1.83348707816568        2.12694930030491
H           -1.28557613527610        0.90172568682739        2.08808226211209
H           -1.66930740981465        0.13176212979754       -2.09148792076493
H           -3.94453807862237        1.06554947206903       -2.05447130741895
H            0.85995163517918        1.74226572954815        0.77649286206979
H            3.71658994064043       -1.33242246108575       -0.03011256151963
H            1.88816289981312       -2.80997593267972       -0.79888169080013
22
 energy: -38.873931400614 gnorm: 0.000999567895 xtb: 6.7.1 (edcfbbe)
C           -3.90394780338076        1.50165857845485        0.03812650548073
C           -3.15326344181315        1.46345896888152        1.20175716158778
C           -1.86884990336189        0.95130828783877        1.18196691068508
C           -1.32712294976472        0.45954661263171       -0.00170640173767
C           -2.08688080600445        0.49765051559809       -1.16617244509276
C           -3.36754148936583        1.02014999783191       -1.14446583431517
C            0.05099784777043       -0.06417552416998       -0.01402177749819
C            1.08880712538673        0.74743260184309        0.43631902527502
C            2.39176477603707        0.28541633977073        0.42294104425394
C            2.69578523430430       -0.98979223699164       -0.02571950558887
C            1.67049653395362       -1.80983460303127       -0.46150225355725
C            0.36454792573821       -1.34812550448354       -0.45641587056477
Cl          -0.90027028728871       -2.42310254400209       -0.96976028363527
Cl           3.66640154904942        1.32533894094743        0.97648603049649
H           -4.90371896838989        1.90777960391850        0.05219262694175
H           -3.56835922569071        1.83544013056676        2.12596428495750
H           -1.28232923706123        0.91412181801247        2.08762452371683
H           -1.66540958136946        0.13373924698382       -2.09109473241567
H           -3.94752113826867        1.05308987634948       -2.05431192142413
H            0.86666080739594        1.74424987481080        0.78177184003582
H            3.71485187257225       -1.33786416191848       -0.03060292173798
H            1.88234458967037       -2.80929181413492       -0.80341037258768
22
 energy: -38.873942432225 gnorm: 0.001854108927 xtb: 6.7.1 (edcfbbe)
C           -3.90800085747291        1.49531180438946        0.03845577723107
C           -3.15491541782751        1.46534971165256        1.20099177924810
C           -1.86773797399080        0.95920790806560        1.18114082859963
C           -1.32529992859078        0.46557520499578       -0.00179151213643
C           -2.08633175915087        0.49926106789107       -1.16611651528951
C           -3.36998866098479        1.01496351684791       -1.14416818216861
C            0.05291563855508       -0.05949101268538       -0.01402445117445
C            1.09298857878968        0.74821853558603        0.43831295747477
C            2.39539333070239        0.28304544304948        0.42506609551132
C            2.69582398350910       -0.99229160846792       -0.02618525421106
C            1.66867475704980       -1.80887418712330       -0.46376353522861
C            0.36320756666088       -1.34454997916844       -0.45802384185459
Cl          -0.90187246060247       -2.41731023409098       -0.97290361339266
Cl           3.67262259448475        1.31664549910294        0.98278067202938
H           -4.91100904631900        1.89436222822830        0.05330262341627
H           -3.57091562989503        1.83830148571644        2.12476723518034
H           -1.27981570349908        0.92737782206176        2.08643635666152
H           -1.66348411515036        0.13689093974599       -2.09128885942750
H           -3.95111578735377        1.04290609472704       -2.05375567322528
H            0.87333318446700        1.74527954439996        0.78569392452482
H            3.71431128207138       -1.34354670094979       -0.03127578693003
H            1.87865985466614       -2.80843807826650       -0.80768539156293
22
 energy: -38.873949715561 gnorm: 0.001039032379 xtb: 6.7.1 (edcfbbe)
C           -3.91023524059745        1.49130186118480        0.03886230107465
C           -3.15546524327310        1.46641741944233        1.20017157059039
C           -1.86683297635663        0.96411718766312        1.17992180460807
C           -1.32415355152199        0.46918756951931       -0.00226817785694
C           -2.08622321262506        0.50029052358165       -1.16603109870077
C           -3.37136820242650        1.01181591421704       -1.14366669146044
C            0.05388473785525       -0.05662724770458       -0.01448444459060
C            1.09543133683789        0.74829685775759        0.43953259902542
C            2.39681911200673        0.28077341346819        0.42710460458813
C            2.69602989089244       -0.99391907422048       -0.02610561987233
C            1.66755314346706       -1.80791983004996       -0.46539390149441
C            0.36294622195700       -1.34156604781127       -0.45936611725006
Cl          -0.90334413499128       -2.41408033324028       -0.97456950303267
Cl           3.67602270679163        1.31184679901073        0.98800361721178
H           -4.91510590313273        1.88553963594987        0.05450280944374
H           -3.57148394230426        1.84013053136966        2.12363510187857
H           -1.27827380370617        0.93635069822682        2.08488459945895
H           -1.66328077214899        0.13848846988397       -2.09136297915842
H           -3.95326722323262        1.03665946198459       -2.05281139327578
H            0.87761982171978        1.74549052282044        0.78764816662710
H            3.71382640136452       -1.34707088352093       -0.03181538486306
H            1.87634426354333       -2.80732844382461       -0.81042622967578
22
 energy: -38.873953831004 gnorm: 0.000211420467 xtb: 6.7.1 (edcfbbe)
C           -3.91185106813838        1.48712907653489        0.03916688329659
C           -3.15529272722454        1.46765747072642        1.19929118071164
C           -1.86516847797507        0.96943842767694        1.17856418240986
C           -1.32264237371034        0.47295488631807       -0.00285733060440
C           -2.08592643409223        0.50028785867172       -1.16587514220799
C           -3.37252794956533        1.00763527506981       -1.14309378527188
C            0.05483355838348       -0.05347511663727       -0.01473316246296
C            1.09763237345441        0.74894001040318        0.44092291686816
C            2.39781808866759        0.27884627787354        0.42856131578332
C            2.69580930846822       -0.99537851965978       -0.02629238177605
C            1.66590915933943       -1.80691037958334       -0.46712400232198
C            0.36248111589254       -1.33815608439976       -0.46057637444294
Cl          -0.90570461650786       -2.40908473944597       -0.97724811330941
Cl           3.67844237753267        1.30705291862117        0.99399199145136
H           -4.91816877983611        1.87712644859245        0.05539665967060
H           -3.57129826928171        1.84170188134114        2.12249009640677
H           -1.27610193112391        0.94529825255061        2.08314260902805
H           -1.66294323109379        0.13862375990788       -2.09114376327989
H           -3.95527645541197        1.02911168968563       -2.05164179307920
H            0.88176382388722        1.74588611537772        0.79064098180044
H            3.71268374722123       -1.35053905182673       -0.03178096475787
H            1.87297219123330       -2.80595145209031       -0.81383637063667
22
 energy: -38.873954692779 gnorm: 0.000188495247 xtb: 6.7.1 (edcfbbe)
C           -3.91227221043961        1.48568751374887        0.03929908757979
C           -3.15501153363799        1.46840857507976        1.19894504050739
C           -1.86440568224609        0.97153519924741        1.17799139287048
C           -1.32206951336895        0.47438371379503       -0.00322563526866
C           -2.08588334169466        0.50002917909478       -1.16586981880346
C           -3.37303588058068        1.00579960790305       -1.14281581270475
C            0.05524581319492       -0.05206520726027       -0.01519293707404
C            1.09831034845463        0.74913802923750        0.44212893654680
C            2.39799335162958        0.27772036299823        0.43037072104012
C            2.69552749173704       -0.99604450263423       -0.02590968043341
C            1.66531760485316       -1.80632009696678       -0.46843223638016
C            0.36239880440081       -1.33643882919878       -0.46221011877014
Cl          -0.90647314952573       -2.40680539277113       -0.97890214815038
Cl           3.67923188548452        1.30492935880007        0.99656340067122
H           -4.91921282942707        1.87393682332900        0.05581689514114
H           -3.57071767587586        1.84323931069390        2.12192706991643
H           -1.27463481266977        0.94951252532264        2.08214455413662
H           -1.66312136539455        0.13768925712776       -2.09093283725425
H           -3.95665705518714        1.02484071578548       -2.05085449012078
H            0.88323863118025        1.74598812730824        0.79238331436318
H            3.71214666126132       -1.35170601621603       -0.03152756689423
H            1.87152788797074       -2.80526324871650       -0.81573149764334
22
 energy: -38.873955174388 gnorm: 0.000162353530 xtb: 6.7.1 (edcfbbe)
C           -3.91229698803915        1.48553141555125        0.03939617393189
C           -3.15459064011230        1.46926964302951        1.19877310963682
C           -1.86396888907154        0.97247263249709        1.17769630129270
C           -1.32202817159423        0.47452223931788       -0.00339003857339
C           -2.08625427262765        0.49927319322801       -1.16579419377771
C           -3.37349627571548        1.00481564897561       -1.14257284951558
C            0.05525190758486       -0.05196654368745       -0.01527704267247
C            1.09824565037120        0.74907840095642        0.44250669080805
C            2.39790433699380        0.27757002698078        0.43069621819530
C            2.69548704563526       -0.99603851275077       -0.02590752136228
C            1.66537291312764       -1.80615471250342       -0.46889550868912
C            0.36248658024901       -1.33621530614507       -0.46263687871686
Cl          -0.90626110740848       -2.40633897342203       -0.98033919374534
Cl           3.67905258296003        1.30420363791584        0.99822281364872
H           -4.91920917556735        1.87381500345660        0.05596848204874
H           -3.57007519936139        1.84449279481588        2.12169676110762
H           -1.27397929838125        0.95072023414511        2.08168491523129
H           -1.66364269432599        0.13664149543114       -2.09080283770085
H           -3.95734454134085        1.02341928723322       -2.05043378106093
H            0.88318580179239        1.74572255870666        0.79328260284422
H            3.71209827631346       -1.35172309027985       -0.03118600830940
H            1.87150558863686       -2.80491606774443       -0.81672258134588
22
 energy: -38.873955745595 gnorm: 0.000121572701 xtb: 6.7.1 (edcfbbe)
C           -3.91210306364204        1.48608723987049        0.03954704314684
C           -3.15393727985564        1.47034835846696        1.19864663746350
C           -1.86351631844808        0.97303335570992        1.17736409306713
C           -1.32221862063158        0.47406077528505       -0.00363274847557
C           -2.08696175238967        0.49817818560874       -1.16572574348069
C           -3.37403049506054        1.00422000656813       -1.14228590529218
C            0.05507075397465       -0.05243245010992       -0.01549883889645
C            1.09773829309324        0.74869209311108        0.44291761158999
C            2.39754994969570        0.27756337841908        0.43122326316091
C            2.69554398609554       -0.99582255715751       -0.02576724278165
C            1.66581077068331       -1.80601986946316       -0.46942595090363
C            0.36276295691713       -1.33643033841190       -0.46333739391440
Cl          -0.90537217766377       -2.40668259266484       -0.98217862907646
Cl           3.67821628577001        1.30397319672596        1.00011617533168
H           -4.91880799329094        1.87496439157815        0.05622077710858
H           -3.56887440191870        1.84646969847887        2.12145939745903
H           -1.27314441456361        0.95144863157590        2.08110981278256
H           -1.66482642530701        0.13485394396033       -2.09068056470538
H           -3.95829215772307        1.02237350156513       -2.04988990330430
H            0.88231258826283        1.74509702882734        0.79416303279505
H            3.71228306062180       -1.35123216208175       -0.03061347641409
H            1.87223988549927       -2.80454881015404       -0.81776581338492
22
 energy: -38.873956469761 gnorm: 0.000112354839 xtb: 6.7.1 (edcfbbe)
C           -3.91176731977224        1.48712258082877        0.03980351602743
C           -3.15280252902075        1.47215505103266        1.19842297362987
C           -1.86282368171865        0.97374862851135        1.17680969767923
C           -1.32257100816971        0.47316397378966       -0.00404669482733
C           -2.08815161814675        0.49644518402151       -1.16562261811228
C           -3.37491641744588        1.00333812848776       -1.14180607532954
C            0.05473678563848       -0.05328292603196       -0.01599896616409
C            1.09686726356260        0.74793467300186        0.44358785011575
C            2.39690911179528        0.27743011677548        0.43246909377769
C            2.69568832896553       -0.99551086184005       -0.02534312710992
C            1.66659205390609       -1.80576592986081       -0.47029743437935
C            0.36324706192556       -1.33682897870874       -0.46462517435981
Cl          -0.90387927333754       -2.40745796364921       -0.98493155707442
Cl           3.67674018513850        1.30391220613859        1.00288034287491
H           -4.91812262680864        1.87695687068973        0.05668737262203
H           -3.56689012608018        1.84951790551903        2.12111994580924
H           -1.27186956018074        0.95253354143648        2.08019339522153
H           -1.66689043734961        0.13204467799286       -2.09055588777222
H           -3.95973411033870        1.02108118900668       -2.04905440111857
H            0.88078403729992        1.74402348530517        0.79537264184874
H            3.71262805268211       -1.35042365595226       -0.02978921622012
H            1.87366925757417       -2.80394289078655       -0.81931004386323
22
 energy: -38.873957080154 gnorm: 0.000098211167 xtb: 6.7.1 (edcfbbe)
C           -3.91137689159434        1.48832827477740        0.04010690618983
C           -3.15157948379959        1.47401687054722        1.19818274109067
C           -1.86202578019554        0.97457324197480        1.17614577036133
C           -1.32295787802485        0.47212679002930       -0.00451407419856
C           -2.08951143072143        0.49448567379338       -1.16546759089677
C           -3.37581966276322        1.00255097608771       -1.14126736403745
C            0.05432422843565       -0.05429119089815       -0.01656039209470
C            1.09585682602184        0.74697728680467        0.44443472504370
C            2.39615062170269        0.27726253989216        0.43383485158591
C            2.69589579317313       -0.99512972652426       -0.02493635007174
C            1.66749646809791       -1.80540644037049       -0.47140153090388
C            0.36383321886539       -1.33724758652731       -0.46621550120037
Cl          -0.90210427703540       -2.40839107654640       -0.98823233854908
Cl           3.67489645991262        1.30378802622661        1.00652439207078
H           -4.91731809153598        1.87922399199104        0.05725148360506
H           -3.56441188657530        1.85339772916750        2.12062599969504
H           -1.27035002723507        0.95421069763738        2.07909170596992
H           -1.66947126578301        0.12851042851991       -2.09033528735035
H           -3.96150777784130        1.01925019683261       -2.04801621741038
H            0.87900807155118        1.74268594142224        0.79686152815122
H            3.71299965212870       -1.34958967042681       -0.02891781432497
H            1.87541654333475       -2.80313796870252       -0.82123000944965
22
 energy: -38.873957371462 gnorm: 0.000062279030 xtb: 6.7.1 (edcfbbe)
C           -3.91116460518312        1.48904906076220        0.04027761735614
C           -3.15060709305555        1.47571370267264        1.19788438662525
C           -1.86139544458910        0.97545501024656        1.17563512619050
C           -1.32317389035997        0.47152401872094       -0.00479599489530
C           -2.09046783363837        0.49298600015924       -1.16528505175966
C           -3.37658664826959        1.00154554022503       -1.14082479803774
C            0.05409038365576       -0.05484568266644       -0.01695613220867
C            1.09525796520104        0.74630137587630        0.44516893051818
C            2.39565262219751        0.27693861951311        0.43515963508337
C            2.69603598299331       -0.99494073777435       -0.02462370091030
C            1.66805230472037       -1.80505511060699       -0.47236940897263
C            0.36421867983028       -1.33736146840940       -0.46742890205161
Cl          -0.90099966863989       -2.40879401774655       -0.99054878898237
Cl           3.67374516380690        1.30354937438855        1.00914927480119
H           -4.91691949400774        1.88042299682804        0.05760400261336
H           -3.56274812529747        1.85609020752210        2.12021127550161
H           -1.26930806136604        0.95575091387197        2.07831593976712
H           -1.67120608730705        0.12604070289889       -2.09010963877183
H           -3.96272351966876        1.01769834744782       -2.04727526983128
H            0.87796558249706        1.74172618296766        0.79813065352699
H            3.71321255841732       -1.34915842635127       -0.02848203042044
H            1.87651265818192       -2.80244160483805       -0.82287149186633
22
 energy: -38.873957494295 gnorm: 0.000033493835 xtb: 6.7.1 (edcfbbe)
C           -3.91116724341899        1.48912480081019        0.04035132833458
C           -3.15029644910720        1.47634887328220        1.19774220747410
C           -1.86109148041866        0.97607523766453        1.17539351550703
C           -1.32318844744979        0.47146818054867       -0.00489750100782
C           -2.09082118493185        0.49236767965459       -1.16516900131780
C           -3.37689963258820        1.00100555431590       -1.14062640274641
C            0.05403625505810       -0.05494030955370       -0.01709586786319
C            1.09510370893167        0.74602468596238        0.44560412880410
C            2.39551214110026        0.27673084766857        0.43571951007569
C            2.69608261082521       -0.99491761925500       -0.02454142994020
C            1.66821300389570       -1.80485647421878       -0.47288389779471
C            0.36435454823226       -1.33724822310533       -0.46804799123431
Cl          -0.90064572383912       -2.40872651062395       -0.99163111848143
Cl           3.67338659516910        1.30316083023429        1.01058113473937
H           -4.91686437359512        1.88061216054345        0.05773156742556
H           -3.56205655254948        1.85746083964496        2.11993656326600
H           -1.26879571521881        0.95689752296176        2.07795293759947
H           -1.67189099079471        0.12492180006918       -2.08993708090111
H           -3.96333806434003        1.01654985863466       -2.04690779566827
H            0.87771100908418        1.74131152260745        0.79887924775724
H            3.71325382962055       -1.34911631588213       -0.02839238850786
H            1.87684558645377       -2.80205993625589       -0.82379603224449
22
 energy: -38.873957574203 gnorm: 0.000031182495 xtb: 6.7.1 (edcfbbe)
C           -3.91124206560442        1.48898102354809        0.04035182417215
C           -3.15018281572873        1.47675508261533        1.19761991887603
C           -1.86093688903128        0.97659874959112        1.17527999459162
C           -1.32312318076393        0.47164275940594       -0.00490056056765
C           -2.09090193264819        0.49213319492532       -1.16508797159239
C           -3.37705624993352        1.00055549775138       -1.14053722214301
C            0.05407589226512       -0.05479707722958       -0.01709512704468
C            1.09518041240300        0.74594914503863        0.44591066897744
C            2.39554551460365        0.27653778211910        0.43604035418636
C            2.69608125708176       -0.99496951231591       -0.02461121308033
C            1.66817407721134       -1.80470115582130       -0.47325478816582
C            0.36435286869918       -1.33702837520830       -0.46832138535112
Cl          -0.90062882775138       -2.40841877489576       -0.99216425306114
Cl           3.67343768011679        1.30269896504760        1.01138939399048
H           -4.91706618931109        1.88015170440273        0.05777658138695
H           -3.56187483012475        1.85808601886269        2.11974878853022
H           -1.26853322077351        0.95787039961827        2.07777631813701
H           -1.67205055802232        0.12448312663917       -2.08980540322614
H           -3.96364501284138        1.01561827368505       -2.04672910871709
H            0.87786698558457        1.74116811677474        0.79941938709643
H            3.71320955016379       -1.34928401842898       -0.02845835479538
H            1.87676096452413       -2.80183592041733       -0.82438220892438
