
                                 *****************
                                 * O   R   C   A *
                                 *****************

                                            #,                                       
                                            ###                                      
                                            ####                                     
                                            #####                                    
                                            ######                                   
                                           ########,                                 
                                     ,,################,,,,,                         
                               ,,#################################,,                 
                          ,,##########################################,,             
                       ,#########################################, ''#####,          
                    ,#############################################,,   '####,        
                  ,##################################################,,,,####,       
                ,###########''''           ''''###############################       
              ,#####''   ,,,,##########,,,,          '''####'''          '####       
            ,##' ,,,,###########################,,,                        '##       
           ' ,,###''''                  '''############,,,                           
         ,,##''                                '''############,,,,        ,,,,,,###''
      ,#''                                            '''#######################'''  
     '                                                          ''''####''''         
             ,#######,   #######,   ,#######,      ##                                
            ,#'     '#,  ##    ##  ,#'     '#,    #''#        ,####,   ,####,        
            ##       ##  ##   ,#'  ##            #'  '#       #'       #'  '#        
            ##       ##  #######   ##           ,######,      #####,   #    #        
            '#,     ,#'  ##    ##  '#,     ,#' ,#      #,     #,   #   #,  ,#        
             '#######'   ##     ##  '#######'  #'      '#     '####' # '####'        



                #########################################################
                #                        -***-                          #
                #          Department of theory and spectroscopy        #
                #                                                       #
                #                      Frank Neese                      #
                #                                                       #
                #     Directorship, Architecture, Infrastructure        #
                #                    SHARK, DRIVERS                     #
                #        Core code/Algorithms in most modules           #
                #                                                       #
                #        Max Planck Institute fuer Kohlenforschung      #
                #                Kaiser Wilhelm Platz 1                 #
                #                 D-45470 Muelheim/Ruhr                 #
                #                      Germany                          #
                #                                                       #
                #                  All rights reserved                  #
                #                        -***-                          #
                #########################################################


                         Program Version 6.0.0  -   RELEASE  -


 With contributions from (in alphabetic order):
   Daniel Aravena         : Magnetic Suceptibility
   Michael Atanasov       : Ab Initio Ligand Field Theory (pilot matlab implementation)
   Alexander A. Auer      : GIAO ZORA, VPT2 properties, NMR spectrum
   Ute Becker             : All parallelization in ORCA, NUMFREQ, NUMCALC
   Giovanni Bistoni       : ED, misc. LED, open-shell LED, HFLD
   Martin Brehm           : Molecular dynamics
   Dmytro Bykov           : pre 5.0 version of the SCF Hessian
   Marcos Casanova-Páez   : Triplet and SCS-CIS(D). UHF-(DLPNO)-IP/EA/STEOM-CCSD. UHF-CVS-IP/STEOM-CCSD
   Vijay G. Chilkuri      : MRCI spin determinant printing, contributions to CSF-ICE
   Pauline Colinet        : FMM embedding
   Dipayan Datta          : RHF DLPNO-CCSD density
   Achintya Kumar Dutta   : EOM-CC, STEOM-CC
   Nicolas Foglia         : Exact transition moments, OPA infrastructure, MCD improvements
   Dmitry Ganyushin       : Spin-Orbit,Spin-Spin,Magnetic field MRCI
   Miquel Garcia          : C-PCM and meta-GGA Hessian, CCSD/C-PCM, Gaussian charge scheme
   Tiago L. C. Gouveia    : GS-ROHF, GS-ROCIS
   Yang Guo               : DLPNO-NEVPT2, F12-NEVPT2, CIM, IAO-localization
   Andreas Hansen         : Spin unrestricted coupled pair/coupled cluster methods
   Ingolf Harden          : AUTO-CI MPn and infrastructure 
   Benjamin Helmich-Paris : MC-RPA, TRAH-(SCF,CASSCF), AVAS, COSX integrals, SCF dyn. polar.
   Lee Huntington         : MR-EOM, pCC
   Robert Izsak           : Overlap fitted RIJCOSX, COSX-SCS-MP3, EOM
   Riya Kayal             : Wick's Theorem for AUTO-CI, AUTO-CI UHF-CCSDT
   Emily Kempfer          : AUTO-CI, RHF CISDT and CCSDT
   Christian Kollmar      : KDIIS, OOCD, Brueckner-CCSD(T), CCSD density, CASPT2, CASPT2-K, improved NEVPT2
   Axel Koslowski         : Symmetry handling
   Simone Kossmann        : Meta GGA functionals, TD-DFT gradient, OOMP2, (MP2 Hessian; deprecated post 5.0)
   Lucas Lang             : DCDCAS
   Marvin Lechner         : AUTO-CI (C++ implementation), FIC-MRCC
   Spencer Leger          : CASSCF response
   Dagmar Lenk            : GEPOL surface, SMD, ORCA-2-JSON
   Dimitrios Liakos       : Extrapolation schemes; Compound Job, initial MDCI parallelization
   Dimitrios Manganas     : Further ROCIS development; embedding schemes. LFT, Crystal Embedding
   Dimitrios Pantazis     : SARC Basis sets
   Anastasios Papadopoulos: AUTO-CI, single reference methods and gradients
   Taras Petrenko         : pre 6.0 DFT Hessian and TD-DFT gradient, (ASA, deprecated), ECA, 1-Electron XAS/XES, NRVS
   Peter Pinski           : DLPNO-MP2, DLPNO-MP2 Gradient
   Christoph Reimann      : Effective Core Potentials
   Marius Retegan         : Local ZFS, SOC
   Christoph Riplinger    : Optimizer, TS searches, QM/MM, DLPNO-CCSD(T), (RO)-DLPNO pert. Triples
   Michael Roemelt        : Original ROCIS implementation
   Masaaki Saitow         : Open-shell DLPNO-CCSD energy and density
   Barbara Sandhoefer     : DKH picture change effects
   Kantharuban Sivalingam : CASSCF convergence/infrastructure, NEVPT2 and variants, FIC-MRCI
   Bernardo de Souza      : ESD, SOC TD-DFT
   Georgi Stoychev        : AutoAux, RI-MP2 NMR, DLPNO-MP2 response, X2C
   Van Anh Tran           : RI-MP2 g-tensors
   Willem Van den Heuvel  : Paramagnetic NMR
   Zikuan Wang            : NOTCH, Electric field optimization 
   Frank Wennmohs         : Technical directorship and infrastructure
   Hang Xu                : AUTO-CI-Response properties 


 We gratefully acknowledge several colleagues who have allowed us to
 interface, adapt or use parts of their codes:
   Stefan Grimme, W. Hujo, H. Kruse, P. Pracht,  : VdW corrections, initial TS optimization,
                  C. Bannwarth, S. Ehlert,         DFT functionals, gCP, sTDA/sTD-DF
                  L. Wittmann, M. Mueller
   Ed Valeev, F. Pavosevic, A. Kumar             : LibInt (2-el integral package), F12 methods
   Garnet Chan, S. Sharma, J. Yang, R. Olivares  : DMRG
   Ulf Ekstrom                                   : XCFun DFT Library
   Mihaly Kallay                                 : mrcc  (arbitrary order and MRCC methods)
   Frank Weinhold                                : gennbo (NPA and NBO analysis)
   Simon Mueller                                 : openCOSMO-RS
   Christopher J. Cramer and Donald G. Truhlar   : smd solvation model
   Lars Goerigk                                  : TD-DFT with DH, B97 family of functionals
   V. Asgeirsson, H. Jonsson                     : NEB implementation
   FAccTs GmbH                                   : IRC, NEB, NEB-TS, DLPNO-Multilevel, CI-OPT
                                                   MM, QMMM, 2- and 3-layer-ONIOM, Crystal-QMMM,
                                                   LR-CPCM, SF, NACMEs, symmetry and pop. for TD-DFT,
                                                   nearIR, NL-DFT gradient (VV10), updates on ESD,
                                                   ML-optimized integration grids, MBIS, APM,
                                                   GOAT, DOCKER, SOLVATOR, interface openCOSMO-RS
   S Lehtola, MJT Oliveira, MAL Marques          : LibXC Library
   Liviu Ungur et al                             : ANISO software


 Your calculation uses the libint2 library for the computation of 2-el integrals
 For citations please refer to: http://libint.valeyev.net

 Your ORCA version has been built with support for libXC version: 6.2.2
 For citations please refer to: https://libxc.gitlab.io

 This ORCA versions uses:
   CBLAS   interface :  Fast vector & matrix operations
   LAPACKE interface :  Fast linear algebra routines
   SCALAPACK package :  Parallel linear algebra routines
   Shared memory     :  Shared parallel matrices
   BLAS/LAPACK       :  OpenBLAS 0.3.27  USE64BITINT DYNAMIC_ARCH NO_AFFINITY SkylakeX SINGLE_THREADED
        Core in use  :  SkylakeX
   Copyright (c) 2011-2014, The OpenBLAS Project


Your calculation utilizes the geometrical counterpoise correction gCP
Please cite in your paper:
H.Kruse, S. Grimme J.Chem.Phys., 136, (2012), 154101 
   

Your calculation utilizes the DFT-NL dispersion correction.
Cite in your paper:
Vydrov, O. A.; Van Voorhis, T. J. Chem. Phys. 2010, 133, 244103
Hujo, W.; Grimme, S. J. Chem. Theory Comput. 2011, 7, 3866 
   

================================================================================

----- Orbital basis set information -----
Your calculation utilizes the basis: def2-TZVP
   F. Weigend and R. Ahlrichs, Phys. Chem. Chem. Phys. 7, 3297 (2005).

----- AuxJ basis set information -----
Your calculation utilizes the auxiliary basis: def2/J
   F. Weigend, Phys. Chem. Chem. Phys. 8, 1057 (2006).

================================================================================
                                        WARNINGS
                       Please study these warnings very carefully!
================================================================================


================================================================================
                                       INPUT FILE
================================================================================
NAME = sp_gas.inp
|  1> ! wb97x-v def2-tzvp def2/J RIJCOSX DEFGRID2 scfconv7 GCP(DFT/TZ) printgap
|  2> %output
|  3>     printlevel normal
|  4> end
|  5> * xyz 0 1
|  6> C -2.5684742270708725 -0.8976675077113687 0.3353782668330123
|  7> C -1.145175985918058 -0.4399706890813022 0.5899129560732782
|  8> H -0.9896783750858699 -0.39378672558982236 1.6820162595424963
|  9> C -0.8182093653763403 0.9241675378111737 -0.02389383027795138
| 10> H -1.032105405452678 0.8988155637888146 -1.0978829076252403
| 11> C 0.656849374437238 1.2625513017091132 0.1851783501518402
| 12> H 0.8342126339264818 1.3924660586785027 1.2667594120221004
| 13> C 1.544260094235499 0.13915786804785776 -0.31669962317176303
| 14> H 1.4426730426128196 0.04744309660217521 -1.4091882307528156
| 15> C 1.1031447163241073 -1.1789674713320617 0.3168467072043197
| 16> H 1.2331432699109044 -1.1446604492639758 1.411188538461587
| 17> O -0.27296159759731875 -1.430952939751203 0.014349464513790542
| 18> O 1.8647652636109362 -2.2100475019203953 -0.25271865059040677
| 19> O 2.8926964450086556 0.44539074160080605 0.043815617409586255
| 20> O 1.0142888762340627 2.45898714396836 -0.5134389325795733
| 21> O -1.6467252016932308 1.956977541571306 0.5193203121048774
| 22> O -2.902462654924941 -0.9468019214019161 -1.0564883354584675
| 23> H -3.2593120150942325 -0.1904881872675699 0.8011429794712576
| 24> H -2.7120809657003777 -1.880766635139646 0.8033690449270658
| 25> H 1.8349877413868112 -2.973525730769154 0.3400886154935535
| 26> H 3.4580953733940287 -0.22592554838142215 -0.3608651240015618
| 27> H 0.4319986976643977 3.1578611542746344 -0.18471723504348084
| 28> H -1.4934503203753065 1.983866014151892 1.4754561910748598
| 29> H -2.3303388452269744 -1.6084154406471742 -1.4673195116253155
| 30> *
| 31> 
| 32>                          ****END OF INPUT****
================================================================================

                       ****************************
                       * Single Point Calculation *
                       ****************************

---------------------------------
CARTESIAN COORDINATES (ANGSTROEM)
---------------------------------
  C     -2.568474   -0.897668    0.335378
  C     -1.145176   -0.439971    0.589913
  H     -0.989678   -0.393787    1.682016
  C     -0.818209    0.924168   -0.023894
  H     -1.032105    0.898816   -1.097883
  C      0.656849    1.262551    0.185178
  H      0.834213    1.392466    1.266759
  C      1.544260    0.139158   -0.316700
  H      1.442673    0.047443   -1.409188
  C      1.103145   -1.178967    0.316847
  H      1.233143   -1.144660    1.411189
  O     -0.272962   -1.430953    0.014349
  O      1.864765   -2.210048   -0.252719
  O      2.892696    0.445391    0.043816
  O      1.014289    2.458987   -0.513439
  O     -1.646725    1.956978    0.519320
  O     -2.902463   -0.946802   -1.056488
  H     -3.259312   -0.190488    0.801143
  H     -2.712081   -1.880767    0.803369
  H      1.834988   -2.973526    0.340089
  H      3.458095   -0.225926   -0.360865
  H      0.431999    3.157861   -0.184717
  H     -1.493450    1.983866    1.475456
  H     -2.330339   -1.608415   -1.467320

----------------------------
CARTESIAN COORDINATES (A.U.)
----------------------------
  NO LB      ZA    FRAG     MASS         X           Y           Z
   0 C     6.0000    0    12.011   -4.853713   -1.696346    0.633773
   1 C     6.0000    0    12.011   -2.164069   -0.831424    1.114774
   2 H     1.0000    0     1.008   -1.870221   -0.744149    3.178550
   3 C     6.0000    0    12.011   -1.546192    1.746424   -0.045153
   4 H     1.0000    0     1.008   -1.950397    1.698515   -2.074698
   5 C     6.0000    0    12.011    1.241265    2.385876    0.349936
   6 H     1.0000    0     1.008    1.576433    2.631380    2.393828
   7 C     6.0000    0    12.011    2.918229    0.262970   -0.598476
   8 H     1.0000    0     1.008    2.726257    0.089654   -2.662980
   9 C     6.0000    0    12.011    2.084641   -2.227926    0.598754
  10 H     1.0000    0     1.008    2.330303   -2.163095    2.666760
  11 O     8.0000    0    15.999   -0.515823   -2.704109    0.027117
  12 O     8.0000    0    15.999    3.523896   -4.176385   -0.477569
  13 O     8.0000    0    15.999    5.466404    0.841667    0.082800
  14 O     8.0000    0    15.999    1.916728    4.646812   -0.970259
  15 O     8.0000    0    15.999   -3.111860    3.698152    0.981373
  16 O     8.0000    0    15.999   -5.484860   -1.789196   -1.996474
  17 H     1.0000    0     1.008   -6.159207   -0.359971    1.513941
  18 H     1.0000    0     1.008   -5.125090   -3.554134    1.518147
  19 H     1.0000    0     1.008    3.467624   -5.619149    0.642674
  20 H     1.0000    0     1.008    6.534853   -0.426937   -0.681936
  21 H     1.0000    0     1.008    0.816359    5.967493   -0.349065
  22 H     1.0000    0     1.008   -2.822212    3.748963    2.788208
  23 H     1.0000    0     1.008   -4.403702   -3.039465   -2.772832

--------------------------------
INTERNAL COORDINATES (ANGSTROEM)
--------------------------------
 C      0   0   0     0.000000000000     0.00000000     0.00000000
 C      1   0   0     1.516592288349     0.00000000     0.00000000
 H      2   1   0     1.104084277085   108.10810332     0.00000000
 C      2   1   3     1.531188768241   113.70266458   238.54675445
 H      4   2   1     1.095375176279   109.31281120   304.36395840
 C      4   2   1     1.527747699785   110.40426222   184.29739772
 H      6   4   2     1.103699761390   108.38106940   294.12884213
 C      6   4   2     1.517033978694   110.82391304    53.08750364
 H      8   6   4     1.101028104116   109.63184726    65.66531584
 C      8   6   4     1.527552990792   109.44263732   307.08847325
 H     10   8   6     1.102570015617   110.53340659   296.87483627
 O     10   8   6     1.431317520798   109.99237748    57.51617711
 O     10   8   6     1.402710442083   108.00418744   175.00142621
 O      8   6   4     1.428996292375   108.04903052   186.52442254
 O      6   4   2     1.430834661943   111.07473654   173.33809292
 O      4   2   1     1.431159180308   111.54014789    61.26985870
 O      1   2   3     1.432220338888   113.09824830   177.78536595
 H      1   2   3     1.092838601150   109.05293567    59.12196130
 H      1   2   3     1.098235930077   108.74472417   301.14565867
 H     13  10   8     0.967060577977   108.34239570   159.78465150
 H     14   8   6     0.966492634159   107.30969233   185.91516485
 H     15   6   4     0.967235591142   106.72939153    57.64650755
 H     16   4   2     0.968716675945   107.64182828    59.61022859
 H     17   1   2     0.966354157533   107.37247147    63.27511901

---------------------------
INTERNAL COORDINATES (A.U.)
---------------------------
 C      0   0   0     0.000000000000     0.00000000     0.00000000
 C      1   0   0     2.865944081796     0.00000000     0.00000000
 H      2   1   0     2.086416912459   108.10810332     0.00000000
 C      2   1   3     2.893527431312   113.70266458   238.54675445
 H      4   2   1     2.069959097063   109.31281120   304.36395840
 C      4   2   1     2.887024754323   110.40426222   184.29739772
 H      6   4   2     2.085690283101   108.38106940   294.12884213
 C      6   4   2     2.866778755585   110.82391304    53.08750364
 H      8   6   4     2.080641582530   109.63184726    65.66531584
 C      8   6   4     2.886656807650   109.44263732   307.08847325
 H     10   8   6     2.083555372989   110.53340659   296.87483627
 O     10   8   6     2.704798124992   109.99237748    57.51617711
 O     10   8   6     2.650738580728   108.00418744   175.00142621
 O      8   6   4     2.700411638978   108.04903052   186.52442254
 O      6   4   2     2.703885653995   111.07473654   173.33809292
 O      4   2   1     2.704498904829   111.54014789    61.26985870
 O      1   2   3     2.706504203930   113.09824830   177.78536595
 H      1   2   3     2.065165664751   109.05293567    59.12196130
 H      1   2   3     2.075365138277   108.74472417   301.14565867
 H     13  10   8     1.827479647289   108.34239570   159.78465150
 H     14   8   6     1.826406389013   107.30969233   185.91516485
 H     15   6   4     1.827810374239   106.72939153    57.64650755
 H     16   4   2     1.830609218899   107.64182828    59.61022859
 H     17   1   2     1.826144706114   107.37247147    63.27511901

---------------------
BASIS SET INFORMATION
---------------------
There are 3 groups of distinct atoms

 Group   1 Type C   : 11s6p2d1f contracted to 5s3p2d1f pattern {62111/411/11/1}
 Group   2 Type H   : 5s1p contracted to 3s1p pattern {311/1}
 Group   3 Type O   : 11s6p2d1f contracted to 5s3p2d1f pattern {62111/411/11/1}

Atom   0C    basis set group =>   1
Atom   1C    basis set group =>   1
Atom   2H    basis set group =>   2
Atom   3C    basis set group =>   1
Atom   4H    basis set group =>   2
Atom   5C    basis set group =>   1
Atom   6H    basis set group =>   2
Atom   7C    basis set group =>   1
Atom   8H    basis set group =>   2
Atom   9C    basis set group =>   1
Atom  10H    basis set group =>   2
Atom  11O    basis set group =>   3
Atom  12O    basis set group =>   3
Atom  13O    basis set group =>   3
Atom  14O    basis set group =>   3
Atom  15O    basis set group =>   3
Atom  16O    basis set group =>   3
Atom  17H    basis set group =>   2
Atom  18H    basis set group =>   2
Atom  19H    basis set group =>   2
Atom  20H    basis set group =>   2
Atom  21H    basis set group =>   2
Atom  22H    basis set group =>   2
Atom  23H    basis set group =>   2
---------------------------------
AUXILIARY/J BASIS SET INFORMATION
---------------------------------
There are 3 groups of distinct atoms

 Group   1 Type C   : 12s5p4d2f1g contracted to 6s4p3d1f1g pattern {711111/2111/211/2/1}
 Group   2 Type H   : 5s2p1d contracted to 3s1p1d pattern {311/2/1}
 Group   3 Type O   : 12s5p4d2f1g contracted to 6s4p3d1f1g pattern {711111/2111/211/2/1}

Atom   0C    basis set group =>   1
Atom   1C    basis set group =>   1
Atom   2H    basis set group =>   2
Atom   3C    basis set group =>   1
Atom   4H    basis set group =>   2
Atom   5C    basis set group =>   1
Atom   6H    basis set group =>   2
Atom   7C    basis set group =>   1
Atom   8H    basis set group =>   2
Atom   9C    basis set group =>   1
Atom  10H    basis set group =>   2
Atom  11O    basis set group =>   3
Atom  12O    basis set group =>   3
Atom  13O    basis set group =>   3
Atom  14O    basis set group =>   3
Atom  15O    basis set group =>   3
Atom  16O    basis set group =>   3
Atom  17H    basis set group =>   2
Atom  18H    basis set group =>   2
Atom  19H    basis set group =>   2
Atom  20H    basis set group =>   2
Atom  21H    basis set group =>   2
Atom  22H    basis set group =>   2
Atom  23H    basis set group =>   2

Checking for AutoStart:
The File: sp_gas.gbw exists
Trying to determine its content:
     ... Fine, the file contains calculation information
     ... Fine, the calculation information was read
     ... Fine, the file contains a basis set
     ... Fine, the basis set was read
     ... Fine, the file contains a geometry
     ... Fine, the geometry was read
     ... Fine, the file contains a set of orbitals
     ... Fine, the orbitals can be read
     => possible old guess file was deleted
     => GBW file was renamed to GES file
     => GES file is set as startup file
     => Guess is set to MORead
     ... now leaving AutoStart

------------------------------------------------------------------------------
                             ORCA STARTUP CALCULATIONS
                           -- RI-GTO INTEGRALS CHOSEN --
------------------------------------------------------------------------------
------------------------------------------------------------------------------
                   ___                                                        
                  /   \      - P O W E R E D   B Y -                         
                 /     \                                                     
                 |  |  |   _    _      __       _____    __    __             
                 |  |  |  | |  | |    /  \     |  _  \  |  |  /  |          
                  \  \/   | |  | |   /    \    | | | |  |  | /  /          
                 / \  \   | |__| |  /  /\  \   | |_| |  |  |/  /          
                |  |  |   |  __  | /  /__\  \  |    /   |      \           
                |  |  |   | |  | | |   __   |  |    \   |  |\   \          
                \     /   | |  | | |  |  |  |  | |\  \  |  | \   \       
                 \___/    |_|  |_| |__|  |__|  |_| \__\ |__|  \__/        
                                                                              
                      - O R C A' S   B I G   F R I E N D -                    
                                      &                                       
                       - I N T E G R A L  F E E D E R -                       
                                                                              
 v1 FN, 2020, v2 2021, v3 2022-2024                                           
------------------------------------------------------------------------------


----------------------
SHARK INTEGRAL PACKAGE
----------------------

Number of atoms                             ...     24
Number of basis functions                   ...    444
Number of shells                            ...    180
Maximum angular momentum                    ...      3
Integral batch strategy                     ... SHARK/LIBINT Hybrid
RI-J (if used) integral strategy            ... SPLIT-RIJ (Revised 2003 algorithm where possible)
Printlevel                                  ...      1
Contraction scheme used                     ... SEGMENTED contraction
Prescreening option                         ... SCHWARTZ
   Thresh                                   ... 3.000e-11
   Tcut                                     ... 1.000e-12
   Tpresel                                  ... 1.000e-12 
Coulomb Range Separation                    ... NOT USED
Exchange Range Separation                   ... Long Range
   Mu parameter                             ... 3.000e-01
   Scaling (regular/separated)              ... 1.670e-01 8.330e-01
Multipole approximations                    ... NOT USED
Finite Nucleus Model                        ... NOT USED
CABS basis                                  ... NOT available
Auxiliary Coulomb fitting basis             ... AVAILABLE
   # of basis functions in Aux-J            ...    720
   # of shells in Aux-J                     ...    240
   Maximum angular momentum in Aux-J        ...      4
Auxiliary J/K fitting basis                 ... NOT available
Auxiliary Correlation fitting basis         ... NOT available
Auxiliary 'external' fitting basis          ... NOT available

Checking pre-screening integrals            ... done (  0.0 sec) Dimension = 180
Check shell pair data                       ... done (  0.0 sec)
Shell pair information
Shell pair cut-off parameter TPreSel        ...   1.0e-12
Total number of shell pairs                 ...     16290
Shell pairs after pre-screening             ...     13963
Total number of primitive shell pairs       ...     49128
Primitive shell pairs kept                  ...     30177
          la=0 lb=0:   3886 shell pairs
          la=1 lb=0:   4030 shell pairs
          la=1 lb=1:   1072 shell pairs
          la=2 lb=0:   1935 shell pairs
          la=2 lb=1:   1024 shell pairs
          la=2 lb=2:    257 shell pairs
          la=3 lb=0:    942 shell pairs
          la=3 lb=1:    512 shell pairs
          la=3 lb=2:    238 shell pairs
          la=3 lb=3:     67 shell pairs

Calculating one electron integrals          ... done (  0.1 sec)
Calculating RI/J V-Matrix + Cholesky decomp.... done (  0.1 sec)
Calculating Nuclear repulsion               ... done (  0.0 sec) ENN=    827.266872356900 Eh

Diagonalization of the overlap matrix:
Smallest eigenvalue                        ... 4.901e-05
Time for diagonalization                   ...    0.021 sec
Threshold for overlap eigenvalues          ... 1.000e-07
Number of eigenvalues below threshold      ... 0
Time for construction of square roots      ...    0.026 sec
Total time needed                          ...    0.056 sec

-------------------
DFT GRID GENERATION
-------------------

General Integration Accuracy     IntAcc      ... 4.388
Radial Grid Type                 RadialGrid  ... OptM3 with GC (2021)
Angular Grid (max. ang.)         AngularGrid ... 4 (Lebedev-302)
Angular grid pruning method      GridPruning ... 4 (adaptive)
Weight generation scheme         WeightScheme... mBecke (2022)
Basis function cutoff            BFCut       ... 1.0000e-11
Integration weight cutoff        WCut        ... 1.0000e-14
Partially contracted basis set               ... off
Rotationally invariant grid construction     ... off
Angular grids for H and He will be reduced by one unit

Total number of grid points                  ...   110335
Total number of batches                      ...     1737
Average number of points per batch           ...       63
Average number of grid points per atom       ...     4597

--------------------
COSX GRID GENERATION
--------------------

GRIDX 1
-------
General Integration Accuracy     IntAcc      ... 3.816
Radial Grid Type                 RadialGrid  ... OptM3 with GC (2021)
Angular Grid (max. ang.)         AngularGrid ... 1 (Lebedev-50)
Angular grid pruning method      GridPruning ... 4 (adaptive)
Weight generation scheme         WeightScheme... mBecke (2022)
Basis function cutoff            BFCut       ... 1.0000e-11
Integration weight cutoff        WCut        ... 1.0000e-14
Partially contracted basis set               ... on
Rotationally invariant grid construction     ... off
Angular grids for H and He will be reduced by one unit

Total number of grid points                  ...    14056
Total number of batches                      ...      126
Average number of points per batch           ...      111
Average number of grid points per atom       ...      586
UseSFitting                                  ... on

GRIDX 2
-------
General Integration Accuracy     IntAcc      ... 4.020
Radial Grid Type                 RadialGrid  ... OptM3 with GC (2021)
Angular Grid (max. ang.)         AngularGrid ... 2 (Lebedev-110)
Angular grid pruning method      GridPruning ... 4 (adaptive)
Weight generation scheme         WeightScheme... mBecke (2022)
Basis function cutoff            BFCut       ... 1.0000e-11
Integration weight cutoff        WCut        ... 1.0000e-14
Partially contracted basis set               ... on
Rotationally invariant grid construction     ... off
Angular grids for H and He will be reduced by one unit

Total number of grid points                  ...    30321
Total number of batches                      ...      252
Average number of points per batch           ...      120
Average number of grid points per atom       ...     1263
UseSFitting                                  ... on

GRIDX 3
-------
General Integration Accuracy     IntAcc      ... 4.338
Radial Grid Type                 RadialGrid  ... OptM3 with GC (2021)
Angular Grid (max. ang.)         AngularGrid ... 3 (Lebedev-194)
Angular grid pruning method      GridPruning ... 4 (adaptive)
Weight generation scheme         WeightScheme... mBecke (2022)
Basis function cutoff            BFCut       ... 1.0000e-11
Integration weight cutoff        WCut        ... 1.0000e-14
Partially contracted basis set               ... on
Rotationally invariant grid construction     ... off
Angular grids for H and He will be reduced by one unit

Total number of grid points                  ...    66340
Total number of batches                      ...      531
Average number of points per batch           ...      124
Average number of grid points per atom       ...     2764
UseSFitting                                  ... on
Initializing property integral containers    ... done (  0.0 sec)

SHARK setup successfully completed in   4.0 seconds

Maximum memory used throughout the entire STARTUP-calculation: 72.4 MB
-------------------------------------------------------------------------------
                                 ORCA GUESS
                   Start orbitals & Density for SCF / CASSCF
-------------------------------------------------------------------------------

------------
SCF SETTINGS
------------
Hamiltonian:
 Density Functional     Method          .... DFT(GTOs)
 Exchange Functional    Exchange        .... WB97X-V
 Correlation Functional Correlation     .... WB97X-V
 Gradients option       PostSCFGGA      .... off
 Hybrid DFT is turned on
   Fraction HF Exchange ScalHFX         ....  0.167000
   Scaling of DF-GGA-X  ScalDFX         ....  0.000000
   Scaling of DF-GGA-C  ScalDFC         ....  1.000000
   Scaling of DF-LDA-C  ScalLDAC        ....  1.000000
   Perturbative correction              ....  0.000000
 Long-range corrected/Screened/Range-Separated Hybrid DFT is turned on
   Amount of maximum screened exact exchange              ....  0.833000
   Range separation parameter mu (erf(mu*r12)/r12)        ....  0.300000
   NL short-range parameter             ....  6.000000
   NL long-range parameter              ....  0.010000
 RI-approximation to the Coulomb term is turned on
   Number of AuxJ basis functions       .... 720
   RIJ-COSX (HFX calculated with COS-X)).... on


General Settings:
 Integral files         IntName         .... sp_gas
 Hartree-Fock type      HFTyp           .... RHF
 Total Charge           Charge          ....    0
 Multiplicity           Mult            ....    1
 Number of Electrons    NEL             ....   96
 Basis Dimension        Dim             ....  444
 Nuclear Repulsion      ENuc            ....    827.2668723569 Eh

Convergence Acceleration:
 AO-DIIS                CNVDIIS         .... on
   Start iteration      DIISMaxIt       ....    12
   Startup error        DIISStart       ....  0.200000
   # of expansion vecs  DIISMaxEq       ....     5
   Bias factor          DIISBfac        ....   1.050
   Max. coefficient     DIISMaxC        ....  10.000
 MO-DIIS                CNVKDIIS        .... off
 Trust-Rad. Augm. Hess. CNVTRAH         .... auto
   Auto Start mean grad. ratio tolernc. ....  1.125000
   Auto Start start iteration           ....     1
   Auto Start num. interpolation iter.  ....    10
   Max. Number of Micro iterations      ....    24
   Max. Number of Macro iterations      .... Maxiter - #DIIS iter
   Number of Davidson start vectors     ....     2
   Converg. threshold    (grad. norm)   ....   1.000e-04
   Grad. Scal. Fac. for Micro threshold ....   0.100
   Minimum threshold for Micro iter.    ....   1.000e-02
   NR start threshold (gradient norm)   ....   1.000e-04
   Initial trust radius                 ....   0.400
   Minimum AH scaling param. (alpha)    ....   1.000
   Maximum AH scaling param. (alpha)    .... 1000.000
   Quad. conv. algorithm                .... NR
   White noise on init. David. guess    .... on
   Maximum white noise                  ....   0.010
   Pseudo random numbers                .... off
   Inactive MOs                         .... canonical
   Orbital update algorithm             .... Taylor
   Preconditioner                       .... Diag
   Full preconditioner red. dimension   ....   250
 SOSCF                  CNVSOSCF        .... on
   Start iteration      SOSCFMaxIt      ....   150
   Startup grad/error   SOSCFStart      ....  0.003300
   Hessian update       SOSCFHessUp     .... L-BFGS
 Level Shifting         CNVShift        .... on
   Level shift para.    LevelShift      ....    0.2500
   Turn off err/grad.   ShiftErr        ....    0.0010
 Zerner damping         CNVZerner       .... off
 Static damping         CNVDamp         .... on
   Fraction old density DampFac         ....    0.7000
   Max. Damping (<1)    DampMax         ....    0.9800
   Min. Damping (>=0)   DampMin         ....    0.0000
   Turn off err/grad.   DampErr         ....    0.1000

SCF Procedure:
 Maximum # iterations   MaxIter         ....   125
 SCF integral mode      SCFMode         .... Direct
   Integral package                     .... SHARK and LIBINT hybrid scheme
 Reset frequency        DirectResetFreq ....    20
 Integral Threshold     Thresh          ....  3.000e-11 Eh
 Primitive CutOff       TCut            ....  1.000e-12 Eh

Convergence Tolerance:
 Convergence Check Mode ConvCheckMode   .... Total+1el-Energy
 Convergence forced     ConvForced      .... 0
 Energy Change          TolE            ....  1.000e-07 Eh
 1-El. energy change                    ....  1.000e-04 Eh
 Orbital Gradient       TolG            ....  1.000e-04
 Orbital Rotation angle TolX            ....  1.000e-04
 DIIS Error             TolErr          ....  1.000e-07

---------------------
INITIAL GUESS: MOREAD
---------------------
Guess MOs are being read from file: sp_gas.ges
Input Geometry matches current geometry (good)
Atom 0: N(Shells)= 11 and 9 - projection required
Input basis set needs projection
NBasis(read)= 318
NBasis(calc)= 444
Basis set overlap was calculated
Using GuessMode=FMatrix for the initial guess
C*T matrix was formed
Effective Fockian was calculated
Effective Fockian was diagonalized
Initial density was built
                      ------------------
                      INITIAL GUESS DONE (   0.1 sec)
                      ------------------
             **** ENERGY FILE WAS UPDATED (sp_gas.en.tmp) ****
Finished Guess after   0.5 sec
Maximum memory used throughout the entire GUESS-calculation: 50.5 MB

-------------------------------------------------------------------------------------------
                                      ORCA LEAN-SCF
                              memory conserving SCF solver
-------------------------------------------------------------------------------------------

----------------------------------------D-I-I-S--------------------------------------------
Iteration    Energy (Eh)           Delta-E    RMSDP     MaxDP     DIISErr   Damp  Time(sec)
-------------------------------------------------------------------------------------------
               ***  Starting incremental Fock matrix formation  ***
    1    -687.5849076403256959     0.00e+00  1.19e-03  6.96e-02  4.88e-02  0.700  39.4
    2    -687.5970564893440269    -1.21e-02  1.03e-03  6.30e-02  3.44e-02  0.700  18.5
                               ***Turning on AO-DIIS***
    3    -687.6057669544626378    -8.71e-03  7.88e-04  4.25e-02  2.41e-02  0.700  18.2
    4    -687.6119717692880613    -6.20e-03  1.96e-03  1.00e-01  1.64e-02  0.000  17.9
                              *** Initializing SOSCF ***
---------------------------------------S-O-S-C-F--------------------------------------
Iteration    Energy (Eh)           Delta-E    RMSDP     MaxDP     MaxGrad    Time(sec)
--------------------------------------------------------------------------------------
    5    -687.6275665738277212    -1.56e-02  1.05e-04  4.20e-03  1.78e-03    18.8
               *** Restarting incremental Fock matrix formation ***
    6    -687.6276244475656085    -5.79e-05  7.41e-05  7.99e-03  3.32e-04    39.1
    7    -687.6276326310970717    -8.18e-06  2.60e-05  1.12e-03  1.63e-04    28.9
    8    -687.6276373852639381    -4.75e-06  5.76e-06  2.15e-04  1.65e-05    27.3
                  *** Gradient check signals convergence ***

               *****************************************************
               *                     SUCCESS                       *
               *           SCF CONVERGED AFTER   8 CYCLES          *
               *****************************************************


------------------
NL GRID GENERATION
------------------

General Integration Accuracy     IntAcc      ... 4.004
Radial Grid Type                 RadialGrid  ... OptM3 with GC (2021)
Angular Grid (max. ang.)         AngularGrid ... 2 (Lebedev-110)
Angular grid pruning method      GridPruning ... 4 (adaptive)
Weight generation scheme         WeightScheme... mBecke (2022)
Basis function cutoff            BFCut       ... 1.0000e-10
Integration weight cutoff        WCut        ... 1.0000e-14
Partially contracted basis set               ... off
Rotationally invariant grid construction     ... off
Angular grids for H and He will be reduced by one unit

Total number of grid points                  ...    34541
Total number of batches                      ...      552
Average number of points per batch           ...       62
Average number of grid points per atom       ...     1439
Final grid set up in    0.3 sec

-------------------------------------------------------------------------------
                    post-SCF DFT-NL dispersion correction                      
-------------------------------------------------------------------------------

SCF Energy:     -687.627637385 
NL    Energy:      0.364019312 
SC+NL Energy:   -687.263618073 
NL done in  :              4.8 sec
-------------------------------------------------------------------------------
Recomputing exchange energy using gridx3       ... done (   72.213 sec)
Old exchange energy                            :    -26.820807087 Eh
New exchange energy                            :    -26.820821492 Eh
Exchange energy change after final integration :     -0.000014404 Eh
Total energy after final integration           :   -687.263632478 Eh
             **** ENERGY FILE WAS UPDATED (sp_gas.en.tmp) ****

----------------
TOTAL SCF ENERGY
----------------

Total Energy       :       -687.26363247767438 Eh          -18701.39420 eV

Components:
Nuclear Repulsion  :        827.26687235690031 Eh           22511.07604 eV
Electronic Energy  :      -1514.89450974216425 Eh          -41222.37532 eV
One Electron Energy:      -2584.38265765017559 Eh          -70324.62735 eV
Two Electron Energy:       1069.48814790801134 Eh           29102.25203 eV

Virial components:
Potential Energy   :      -1371.91674770853297 Eh          -37331.75261 eV
Kinetic Energy     :        684.65311523085870 Eh           18630.35841 eV
Virial Ratio       :          2.00381290494229

DFT components:
N(Alpha)           :       47.999945215386 electrons
N(Beta)            :       47.999945215386 electrons
N(Total)           :       95.999890430773 electrons
E(X)               :      -58.001007398936 Eh       
E(C)               :       -4.111690279214 Eh       
NL Energy, E(C,NL) :        0.364019311975 Eh       
E(XC)              :      -61.748678366176 Eh       

---------------
SCF CONVERGENCE
---------------

  Last Energy change         ...    4.7542e-06  Tolerance :   1.0000e-07
  Last MAX-Density change    ...    2.1540e-04  Tolerance :   1.0000e-05
  Last RMS-Density change    ...    5.7555e-06  Tolerance :   1.0000e-06
  Last DIIS Error            ...    1.7800e-03  Tolerance :   1.0000e-07
  Last Orbital Gradient      ...    1.6532e-05  Tolerance :   1.0000e-04
  Last Orbital Rotation      ...    2.3039e-05  Tolerance :   1.0000e-04


----------------
ORBITAL ENERGIES
----------------

  NO   OCC          E(Eh)            E(eV) 
   0   2.0000     -21.704653      -590.6136 
   1   2.0000     -21.699399      -590.4707 
   2   2.0000     -21.694696      -590.3427 
   3   2.0000     -21.677800      -589.8829 
   4   2.0000     -21.675944      -589.8324 
   5   2.0000     -21.674202      -589.7850 
   6   2.0000     -12.165159      -331.0308 
   7   2.0000     -12.118605      -329.7640 
   8   2.0000     -12.110566      -329.5453 
   9   2.0000     -12.108896      -329.4998 
  10   2.0000     -12.108197      -329.4808 
  11   2.0000     -12.102066      -329.3140 
  12   2.0000      -1.733314       -47.1659 
  13   2.0000      -1.698220       -46.2109 
  14   2.0000      -1.691041       -46.0156 
  15   2.0000      -1.682680       -45.7881 
  16   2.0000      -1.675378       -45.5894 
  17   2.0000      -1.673741       -45.5448 
  18   2.0000      -1.339624       -36.4530 
  19   2.0000      -1.329117       -36.1671 
  20   2.0000      -1.240155       -33.7463 
  21   2.0000      -1.207941       -32.8697 
  22   2.0000      -1.166756       -31.7490 
  23   2.0000      -1.126854       -30.6633 
  24   2.0000      -1.102408       -29.9981 
  25   2.0000      -1.073721       -29.2174 
  26   2.0000      -1.054130       -28.6843 
  27   2.0000      -1.049027       -28.5455 
  28   2.0000      -1.039064       -28.2744 
  29   2.0000      -1.009895       -27.4806 
  30   2.0000      -0.997141       -27.1336 
  31   2.0000      -0.985939       -26.8288 
  32   2.0000      -0.980869       -26.6908 
  33   2.0000      -0.970586       -26.4110 
  34   2.0000      -0.961047       -26.1514 
  35   2.0000      -0.950775       -25.8719 
  36   2.0000      -0.943284       -25.6681 
  37   2.0000      -0.938190       -25.5294 
  38   2.0000      -0.925861       -25.1940 
  39   2.0000      -0.914726       -24.8910 
  40   2.0000      -0.899951       -24.4889 
  41   2.0000      -0.883214       -24.0335 
  42   2.0000      -0.853182       -23.2163 
  43   2.0000      -0.843046       -22.9405 
  44   2.0000      -0.822308       -22.3761 
  45   2.0000      -0.809982       -22.0407 
  46   2.0000      -0.800175       -21.7739 
  47   2.0000      -0.778651       -21.1882 
  48   0.0000      -0.243817        -6.6346 
  49   0.0000      -0.200811        -5.4643 
  50   0.0000      -0.178912        -4.8684 
  51   0.0000      -0.157345        -4.2816 
  52   0.0000      -0.134359        -3.6561 
  53   0.0000      -0.115961        -3.1555 
  54   0.0000      -0.081543        -2.2189 
  55   0.0000      -0.065849        -1.7919 
  56   0.0000      -0.064157        -1.7458 
  57   0.0000      -0.053407        -1.4533 
  58   0.0000      -0.036652        -0.9974 
*Only the first 10 virtual orbitals were printed.

                    ********************************
                    * MULLIKEN POPULATION ANALYSIS *
                    ********************************

-----------------------
MULLIKEN ATOMIC CHARGES
-----------------------
   0 C :    0.038332
   1 C :   -0.056638
   2 H :    0.068908
   3 C :    0.042050
   4 H :    0.097780
   5 C :    0.081903
   6 H :    0.068422
   7 C :    0.106763
   8 H :    0.088875
   9 C :    0.063391
  10 H :    0.067033
  11 O :   -0.270575
  12 O :   -0.411307
  13 O :   -0.423590
  14 O :   -0.414026
  15 O :   -0.438170
  16 O :   -0.454453
  17 H :    0.096131
  18 H :    0.104210
  19 H :    0.317452
  20 H :    0.309649
  21 H :    0.307004
  22 H :    0.298239
  23 H :    0.312616
Sum of atomic charges:    0.0000000

--------------------------------
MULLIKEN REDUCED ORBITAL CHARGES
--------------------------------
  0 C s       :     3.163412  s :     3.163412
      pz      :     0.725403  p :     2.667669
      px      :     0.923275
      py      :     1.018991
      dz2     :     0.022068  d :     0.121191
      dxz     :     0.039737
      dyz     :     0.034121
      dx2y2   :     0.013015
      dxy     :     0.012250
      f0      :     0.002494  f :     0.009396
      f+1     :     0.002301
      f-1     :     0.002098
      f+2     :     0.000571
      f-2     :     0.000379
      f+3     :     0.000754
      f-3     :     0.000799

  1 C s       :     3.195251  s :     3.195251
      pz      :     0.965579  p :     2.681829
      px      :     0.889055
      py      :     0.827194
      dz2     :     0.043696  d :     0.167348
      dxz     :     0.020610
      dyz     :     0.020223
      dx2y2   :     0.041812
      dxy     :     0.041006
      f0      :     0.001296  f :     0.012211
      f+1     :     0.001292
      f-1     :     0.001717
      f+2     :     0.001365
      f-2     :     0.001560
      f+3     :     0.002611
      f-3     :     0.002370

  2 H s       :     0.910714  s :     0.910714
      pz      :     0.013422  p :     0.020378
      px      :     0.003669
      py      :     0.003286

  3 C s       :     3.119074  s :     3.119074
      pz      :     1.027825  p :     2.669784
      px      :     0.847643
      py      :     0.794316
      dz2     :     0.036841  d :     0.157170
      dxz     :     0.022610
      dyz     :     0.021356
      dx2y2   :     0.044392
      dxy     :     0.031972
      f0      :     0.001043  f :     0.011922
      f+1     :     0.001008
      f-1     :     0.001641
      f+2     :     0.001722
      f-2     :     0.001302
      f+3     :     0.002257
      f-3     :     0.002949

  4 H s       :     0.880705  s :     0.880705
      pz      :     0.014441  p :     0.021514
      px      :     0.003970
      py      :     0.003104

  5 C s       :     3.145585  s :     3.145585
      pz      :     0.915819  p :     2.594115
      px      :     0.906074
      py      :     0.772222
      dz2     :     0.042929  d :     0.166122
      dxz     :     0.017969
      dyz     :     0.029134
      dx2y2   :     0.033634
      dxy     :     0.042456
      f0      :     0.001185  f :     0.012276
      f+1     :     0.000793
      f-1     :     0.002464
      f+2     :     0.001647
      f-2     :     0.001617
      f+3     :     0.002317
      f-3     :     0.002251

  6 H s       :     0.911459  s :     0.911459
      pz      :     0.012857  p :     0.020119
      px      :     0.004164
      py      :     0.003098

  7 C s       :     3.101805  s :     3.101805
      pz      :     0.977641  p :     2.614914
      px      :     0.719612
      py      :     0.917662
      dz2     :     0.031985  d :     0.164175
      dxz     :     0.033528
      dyz     :     0.018372
      dx2y2   :     0.033432
      dxy     :     0.046858
      f0      :     0.001449  f :     0.012343
      f+1     :     0.001408
      f-1     :     0.001228
      f+2     :     0.001915
      f-2     :     0.001102
      f+3     :     0.002167
      f-3     :     0.003074

  8 H s       :     0.890750  s :     0.890750
      pz      :     0.014192  p :     0.020375
      px      :     0.002642
      py      :     0.003541

  9 C s       :     3.211303  s :     3.211303
      pz      :     0.942001  p :     2.497830
      px      :     0.708644
      py      :     0.847185
      dz2     :     0.042412  d :     0.209738
      dxz     :     0.036897
      dyz     :     0.028053
      dx2y2   :     0.051543
      dxy     :     0.050833
      f0      :     0.001804  f :     0.017738
      f+1     :     0.001652
      f-1     :     0.001936
      f+2     :     0.002995
      f-2     :     0.001955
      f+3     :     0.002681
      f-3     :     0.004715

 10 H s       :     0.913685  s :     0.913685
      pz      :     0.013782  p :     0.019282
      px      :     0.002640
      py      :     0.002860

 11 O s       :     3.740082  s :     3.740082
      pz      :     1.711760  p :     4.491952
      px      :     1.209051
      py      :     1.571141
      dz2     :     0.004748  d :     0.036713
      dxz     :     0.007185
      dyz     :     0.005252
      dx2y2   :     0.009620
      dxy     :     0.009907
      f0      :     0.000236  f :     0.001828
      f+1     :     0.000308
      f-1     :     0.000144
      f+2     :     0.000218
      f-2     :     0.000236
      f+3     :     0.000344
      f-3     :     0.000341

 12 O s       :     3.759150  s :     3.759150
      pz      :     1.602334  p :     4.620507
      px      :     1.724850
      py      :     1.293324
      dz2     :     0.003884  d :     0.029973
      dxz     :     0.004898
      dyz     :     0.011925
      dx2y2   :     0.004548
      dxy     :     0.004717
      f0      :     0.000130  f :     0.001676
      f+1     :     0.000085
      f-1     :     0.000213
      f+2     :     0.000399
      f-2     :     0.000224
      f+3     :     0.000320
      f-3     :     0.000307

 13 O s       :     3.765545  s :     3.765545
      pz      :     1.757766  p :     4.626670
      px      :     1.250554
      py      :     1.618350
      dz2     :     0.003231  d :     0.029788
      dxz     :     0.006407
      dyz     :     0.004745
      dx2y2   :     0.005780
      dxy     :     0.009625
      f0      :     0.000267  f :     0.001587
      f+1     :     0.000233
      f-1     :     0.000070
      f+2     :     0.000148
      f-2     :     0.000329
      f+3     :     0.000337
      f-3     :     0.000204

 14 O s       :     3.768074  s :     3.768074
      pz      :     1.691405  p :     4.614579
      px      :     1.669221
      py      :     1.253953
      dz2     :     0.003848  d :     0.029802
      dxz     :     0.004747
      dyz     :     0.008367
      dx2y2   :     0.003351
      dxy     :     0.009490
      f0      :     0.000238  f :     0.001571
      f+1     :     0.000067
      f-1     :     0.000186
      f+2     :     0.000203
      f-2     :     0.000343
      f+3     :     0.000299
      f-3     :     0.000236

 15 O s       :     3.786995  s :     3.786995
      pz      :     1.299755  p :     4.619390
      px      :     1.704382
      py      :     1.615252
      dz2     :     0.011571  d :     0.030243
      dxz     :     0.003906
      dyz     :     0.002860
      dx2y2   :     0.004456
      dxy     :     0.007449
      f0      :     0.000531  f :     0.001543
      f+1     :     0.000159
      f-1     :     0.000119
      f+2     :     0.000064
      f-2     :     0.000213
      f+3     :     0.000255
      f-3     :     0.000202

 16 O s       :     3.784936  s :     3.784936
      pz      :     1.303256  p :     4.638243
      px      :     1.682078
      py      :     1.652909
      dz2     :     0.008467  d :     0.029720
      dxz     :     0.007571
      dyz     :     0.005225
      dx2y2   :     0.001929
      dxy     :     0.006527
      f0      :     0.000443  f :     0.001554
      f+1     :     0.000210
      f-1     :     0.000206
      f+2     :     0.000067
      f-2     :     0.000291
      f+3     :     0.000207
      f-3     :     0.000130

 17 H s       :     0.882880  s :     0.882880
      pz      :     0.004550  p :     0.020989
      px      :     0.008149
      py      :     0.008290

 18 H s       :     0.875892  s :     0.875892
      pz      :     0.004347  p :     0.019897
      px      :     0.004126
      py      :     0.011425

 19 H s       :     0.635970  s :     0.635970
      pz      :     0.014722  p :     0.046578
      px      :     0.014406
      py      :     0.017450

 20 H s       :     0.643444  s :     0.643444
      pz      :     0.015761  p :     0.046907
      px      :     0.013876
      py      :     0.017270

 21 H s       :     0.645888  s :     0.645888
      pz      :     0.014183  p :     0.047109
      px      :     0.017006
      py      :     0.015919

 22 H s       :     0.655188  s :     0.655188
      pz      :     0.019341  p :     0.046572
      px      :     0.014002
      py      :     0.013230

 23 H s       :     0.640644  s :     0.640644
      pz      :     0.012424  p :     0.046740
      px      :     0.016659
      py      :     0.017657


------------------------
MULLIKEN OVERLAP CHARGES
------------------------
B(  0-C ,  1-C ) :   0.5602 B(  0-C ,  2-H ) :  -0.0573 B(  0-C , 11-O ) :  -0.0864 
B(  0-C , 16-O ) :   0.5701 B(  0-C , 17-H ) :   0.7569 B(  0-C , 18-H ) :   0.8516 
B(  0-C , 23-H ) :  -0.0645 B(  1-C ,  2-H ) :   0.7894 B(  1-C ,  5-C ) :  -0.1286 
B(  1-C ,  7-C ) :   0.1477 B(  1-C ,  9-C ) :  -0.3116 B(  1-C , 11-O ) :   0.4925 
B(  1-C , 18-H ) :  -0.1121 B(  2-H ,  3-C ) :  -0.1432 B(  2-H , 11-O ) :  -0.0919 
B(  3-C ,  4-H ) :   0.6395 B(  3-C ,  5-C ) :   0.2799 B(  3-C ,  7-C ) :   0.0514 
B(  3-C ,  9-C ) :   0.1007 B(  3-C , 11-O ) :  -0.0521 B(  3-C , 14-O ) :  -0.0873 
B(  3-C , 15-O ) :   0.4424 B(  3-C , 16-O ) :  -0.1225 B(  3-C , 22-H ) :  -0.0697 
B(  4-H ,  5-C ) :  -0.0630 B(  4-H , 15-O ) :  -0.0605 B(  4-H , 16-O ) :   0.0720 
B(  5-C ,  6-H ) :   0.7371 B(  5-C ,  7-C ) :  -0.2965 B(  5-C ,  8-H ) :  -0.1135 
B(  5-C ,  9-C ) :   0.2843 B(  5-C , 13-O ) :  -0.1180 B(  5-C , 14-O ) :   0.6671 
B(  5-C , 21-H ) :  -0.0634 B(  6-H ,  7-C ) :  -0.1419 B(  6-H , 14-O ) :  -0.0891 
B(  7-C ,  8-H ) :   0.8303 B(  7-C , 10-H ) :  -0.1537 B(  7-C , 11-O ) :  -0.1576 
B(  7-C , 12-O ) :  -0.1795 B(  7-C , 13-O ) :   0.7012 B(  7-C , 14-O ) :  -0.0951 
B(  7-C , 20-H ) :  -0.1145 B(  8-H ,  9-C ) :  -0.0900 B(  8-H , 13-O ) :  -0.0904 
B(  9-C , 10-H ) :   0.8362 B(  9-C , 11-O ) :   0.6317 B(  9-C , 12-O ) :   0.8173 
B(  9-C , 13-O ) :  -0.0777 B(  9-C , 19-H ) :  -0.0676 B( 10-H , 11-O ) :  -0.1264 
B( 10-H , 12-O ) :  -0.1100 B( 11-O , 12-O ) :  -0.1509 B( 12-O , 19-H ) :   0.5993 
B( 13-O , 20-H ) :   0.6052 B( 14-O , 21-H ) :   0.5954 B( 15-O , 22-H ) :   0.5691 
B( 16-O , 17-H ) :  -0.0547 B( 16-O , 18-H ) :  -0.0903 B( 16-O , 23-H ) :   0.5942 
B( 17-H , 18-H ) :  -0.0868 


                     *******************************
                     * LOEWDIN POPULATION ANALYSIS *
                     *******************************

----------------------
LOEWDIN ATOMIC CHARGES
----------------------
   0 C :   -0.309635
   1 C :   -0.314905
   2 H :    0.138802
   3 C :   -0.306239
   4 H :    0.156254
   5 C :   -0.315887
   6 H :    0.138080
   7 C :   -0.305863
   8 H :    0.148616
   9 C :   -0.412512
  10 H :    0.122110
  11 O :    0.179825
  12 O :    0.014232
  13 O :   -0.002687
  14 O :   -0.003806
  15 O :   -0.008391
  16 O :   -0.041264
  17 H :    0.133514
  18 H :    0.121001
  19 H :    0.179498
  20 H :    0.174433
  21 H :    0.172547
  22 H :    0.170086
  23 H :    0.172194

-------------------------------
LOEWDIN REDUCED ORBITAL CHARGES
-------------------------------
  0 C s       :     2.801300  s :     2.801300
      pz      :     0.835603  p :     2.920635
      px      :     1.031931
      py      :     1.053101
      dz2     :     0.119683  d :     0.520361
      dxz     :     0.143121
      dyz     :     0.124931
      dx2y2   :     0.065663
      dxy     :     0.066963
      f0      :     0.017411  f :     0.067340
      f+1     :     0.017191
      f-1     :     0.012400
      f+2     :     0.005658
      f-2     :     0.005648
      f+3     :     0.004312
      f-3     :     0.004720

  1 C s       :     2.756546  s :     2.756546
      pz      :     0.975261  p :     2.848197
      px      :     0.951739
      py      :     0.921198
      dz2     :     0.153979  d :     0.628811
      dxz     :     0.074941
      dyz     :     0.097017
      dx2y2   :     0.151277
      dxy     :     0.151597
      f0      :     0.007266  f :     0.081351
      f+1     :     0.007910
      f-1     :     0.009560
      f+2     :     0.010947
      f-2     :     0.014968
      f+3     :     0.017102
      f-3     :     0.013598

  2 H s       :     0.805724  s :     0.805724
      pz      :     0.033770  p :     0.055475
      px      :     0.011449
      py      :     0.010256

  3 C s       :     2.751887  s :     2.751887
      pz      :     1.001100  p :     2.847469
      px      :     0.944718
      py      :     0.901652
      dz2     :     0.141740  d :     0.624703
      dxz     :     0.078141
      dyz     :     0.086750
      dx2y2   :     0.173056
      dxy     :     0.145016
      f0      :     0.006762  f :     0.082180
      f+1     :     0.007065
      f-1     :     0.009592
      f+2     :     0.013604
      f-2     :     0.012948
      f+3     :     0.015168
      f-3     :     0.017041

  4 H s       :     0.786462  s :     0.786462
      pz      :     0.035942  p :     0.057284
      px      :     0.011761
      py      :     0.009582

  5 C s       :     2.749911  s :     2.749911
      pz      :     0.966789  p :     2.843157
      px      :     1.008314
      py      :     0.868055
      dz2     :     0.159496  d :     0.640003
      dxz     :     0.073392
      dyz     :     0.121000
      dx2y2   :     0.131123
      dxy     :     0.154993
      f0      :     0.007165  f :     0.082816
      f+1     :     0.005142
      f-1     :     0.014541
      f+2     :     0.014392
      f-2     :     0.013647
      f+3     :     0.014859
      f-3     :     0.013069

  6 H s       :     0.806691  s :     0.806691
      pz      :     0.033014  p :     0.055229
      px      :     0.012493
      py      :     0.009723

  7 C s       :     2.754037  s :     2.754037
      pz      :     1.010477  p :     2.843953
      px      :     0.823685
      py      :     1.009792
      dz2     :     0.135948  d :     0.625529
      dxz     :     0.116158
      dyz     :     0.073884
      dx2y2   :     0.136916
      dxy     :     0.162623
      f0      :     0.008459  f :     0.082344
      f+1     :     0.008860
      f-1     :     0.006427
      f+2     :     0.015746
      f-2     :     0.010382
      f+3     :     0.013500
      f-3     :     0.018970

  8 H s       :     0.794777  s :     0.794777
      pz      :     0.035996  p :     0.056607
      px      :     0.009072
      py      :     0.011538

  9 C s       :     2.774157  s :     2.774157
      pz      :     1.004842  p :     2.732920
      px      :     0.800903
      py      :     0.927175
      dz2     :     0.168746  d :     0.785658
      dxz     :     0.127786
      dyz     :     0.112491
      dx2y2   :     0.194235
      dxy     :     0.182399
      f0      :     0.010575  f :     0.119777
      f+1     :     0.010653
      f-1     :     0.011240
      f+2     :     0.021406
      f-2     :     0.018144
      f+3     :     0.018503
      f-3     :     0.029257

 10 H s       :     0.821993  s :     0.821993
      pz      :     0.037540  p :     0.055898
      px      :     0.008157
      py      :     0.010201

 11 O s       :     3.284841  s :     3.284841
      pz      :     1.645167  p :     4.433003
      px      :     1.258654
      py      :     1.529181
      dz2     :     0.013328  d :     0.096422
      dxz     :     0.020089
      dyz     :     0.009489
      dx2y2   :     0.027915
      dxy     :     0.025601
      f0      :     0.000445  f :     0.005909
      f+1     :     0.000837
      f-1     :     0.000476
      f+2     :     0.000946
      f-2     :     0.000805
      f+3     :     0.001069
      f-3     :     0.001332

 12 O s       :     3.347620  s :     3.347620
      pz      :     1.600857  p :     4.565866
      px      :     1.663031
      py      :     1.301978
      dz2     :     0.007449  d :     0.067689
      dxz     :     0.007548
      dyz     :     0.025326
      dx2y2   :     0.015363
      dxy     :     0.012002
      f0      :     0.000331  f :     0.004592
      f+1     :     0.000290
      f-1     :     0.000917
      f+2     :     0.000983
      f-2     :     0.000710
      f+3     :     0.000672
      f-3     :     0.000690

 13 O s       :     3.357996  s :     3.357996
      pz      :     1.705394  p :     4.574720
      px      :     1.284067
      py      :     1.585260
      dz2     :     0.006574  d :     0.065677
      dxz     :     0.016554
      dyz     :     0.005566
      dx2y2   :     0.013238
      dxy     :     0.023746
      f0      :     0.000442  f :     0.004293
      f+1     :     0.000586
      f-1     :     0.000065
      f+2     :     0.000517
      f-2     :     0.000932
      f+3     :     0.001060
      f-3     :     0.000690

 14 O s       :     3.360634  s :     3.360634
      pz      :     1.669552  p :     4.573426
      px      :     1.627975
      py      :     1.275898
      dz2     :     0.009170  d :     0.065464
      dxz     :     0.005792
      dyz     :     0.018188
      dx2y2   :     0.010008
      dxy     :     0.022306
      f0      :     0.000431  f :     0.004283
      f+1     :     0.000104
      f-1     :     0.000681
      f+2     :     0.000562
      f-2     :     0.001103
      f+3     :     0.000694
      f-3     :     0.000709

 15 O s       :     3.367799  s :     3.367799
      pz      :     1.324487  p :     4.569197
      px      :     1.656197
      py      :     1.588512
      dz2     :     0.026875  d :     0.067089
      dxz     :     0.007445
      dyz     :     0.008387
      dx2y2   :     0.010663
      dxy     :     0.013719
      f0      :     0.001231  f :     0.004306
      f+1     :     0.000571
      f-1     :     0.000411
      f+2     :     0.000252
      f-2     :     0.000610
      f+3     :     0.000591
      f-3     :     0.000640

 16 O s       :     3.371260  s :     3.371260
      pz      :     1.355665  p :     4.599814
      px      :     1.637507
      py      :     1.606641
      dz2     :     0.020119  d :     0.065920
      dxz     :     0.018307
      dyz     :     0.016878
      dx2y2   :     0.001505
      dxy     :     0.009112
      f0      :     0.001258  f :     0.004270
      f+1     :     0.000836
      f-1     :     0.000829
      f+2     :     0.000131
      f-2     :     0.000724
      f+3     :     0.000350
      f-3     :     0.000144

 17 H s       :     0.808664  s :     0.808664
      pz      :     0.012495  p :     0.057823
      px      :     0.021376
      py      :     0.023951

 18 H s       :     0.821292  s :     0.821292
      pz      :     0.013769  p :     0.057707
      px      :     0.012397
      py      :     0.031541

 19 H s       :     0.667062  s :     0.667062
      pz      :     0.056986  p :     0.153440
      px      :     0.040058
      py      :     0.056396

 20 H s       :     0.670076  s :     0.670076
      pz      :     0.051167  p :     0.155491
      px      :     0.039740
      py      :     0.064584

 21 H s       :     0.671332  s :     0.671332
      pz      :     0.046705  p :     0.156121
      px      :     0.060235
      py      :     0.049180

 22 H s       :     0.674359  s :     0.674359
      pz      :     0.076960  p :     0.155555
      px      :     0.041593
      py      :     0.037002

 23 H s       :     0.671214  s :     0.671214
      pz      :     0.033858  p :     0.156592
      px      :     0.059680
      py      :     0.063054


---------------------------------
LOEWDIN BOND ORDERS (THRESH 0.050000)
---------------------------------
B(  0-C ,  1-C ) :   1.2001 B(  0-C ,  2-H ) :   0.0796 B(  0-C ,  3-C ) :   0.1317 
B(  0-C , 11-O ) :   0.1171 B(  0-C , 16-O ) :   1.5546 B(  0-C , 17-H ) :   0.8674 
B(  0-C , 18-H ) :   0.8741 B(  0-C , 23-H ) :   0.0963 B(  1-C ,  2-H ) :   0.8060 
B(  1-C ,  3-C ) :   1.1039 B(  1-C ,  4-H ) :   0.0720 B(  1-C ,  5-C ) :   0.1377 
B(  1-C ,  9-C ) :   0.1696 B(  1-C , 11-O ) :   1.3703 B(  1-C , 15-O ) :   0.1119 
B(  1-C , 16-O ) :   0.1155 B(  1-C , 17-H ) :   0.0837 B(  1-C , 18-H ) :   0.0862 
B(  2-H ,  3-C ) :   0.0722 B(  3-C ,  4-H ) :   0.8043 B(  3-C ,  5-C ) :   1.1143 
B(  3-C ,  6-H ) :   0.0768 B(  3-C ,  7-C ) :   0.1343 B(  3-C , 11-O ) :   0.1051 
B(  3-C , 14-O ) :   0.1188 B(  3-C , 15-O ) :   1.4969 B(  3-C , 22-H ) :   0.0951 
B(  4-H ,  5-C ) :   0.0730 B(  5-C ,  6-H ) :   0.8052 B(  5-C ,  7-C ) :   1.1158 
B(  5-C ,  8-H ) :   0.0751 B(  5-C ,  9-C ) :   0.1409 B(  5-C , 13-O ) :   0.1159 
B(  5-C , 14-O ) :   1.5179 B(  5-C , 15-O ) :   0.1215 B(  5-C , 21-H ) :   0.0969 
B(  6-H ,  7-C ) :   0.0754 B(  7-C ,  8-H ) :   0.8089 B(  7-C ,  9-C ) :   1.1154 
B(  7-C , 10-H ) :   0.0726 B(  7-C , 11-O ) :   0.1055 B(  7-C , 12-O ) :   0.1208 
B(  7-C , 13-O ) :   1.5211 B(  7-C , 14-O ) :   0.1149 B(  7-C , 20-H ) :   0.0963 
B(  8-H ,  9-C ) :   0.0772 B(  9-C , 10-H ) :   0.8417 B(  9-C , 11-O ) :   1.4238 
B(  9-C , 12-O ) :   1.6065 B(  9-C , 13-O ) :   0.1211 B(  9-C , 19-H ) :   0.1021 
B( 11-O , 12-O ) :   0.0892 B( 12-O , 19-H ) :   1.0124 B( 13-O , 20-H ) :   1.0166 
B( 14-O , 21-H ) :   1.0146 B( 15-O , 22-H ) :   1.0182 B( 16-O , 23-H ) :   1.0236 


------------------------------------------
LOEWDIN REDUCED ORBITAL POPULATIONS PER MO
-------------------------------------------
THRESHOLD FOR PRINTING IS 0.1%%
                      0         1         2         3         4         5   
                 -21.70465 -21.69940 -21.69470 -21.67780 -21.67594 -21.67420
                   2.00000   2.00000   2.00000   2.00000   2.00000   2.00000
                  --------  --------  --------  --------  --------  --------
11 O  s               0.0      99.8       0.0       0.0       0.0       0.0
12 O  s              99.8       0.0       0.0       0.0       0.0       0.0
13 O  s               0.0       0.0       0.0      99.8       0.0       0.0
14 O  s               0.0       0.0       0.0       0.0       0.0      99.8
15 O  s               0.0       0.0      99.9       0.0       0.0       0.0
16 O  s               0.0       0.0       0.0       0.0      99.9       0.0

                      6         7         8         9        10        11   
                 -12.16516 -12.11860 -12.11057 -12.10890 -12.10820 -12.10207
                   2.00000   2.00000   2.00000   2.00000   2.00000   2.00000
                  --------  --------  --------  --------  --------  --------
 0 C  s               0.0       0.2       0.0       0.0       0.1      99.3
 1 C  s               0.0      98.8       0.0       0.2       0.2       0.2
 3 C  s               0.0       0.4       6.8      35.8      56.4       0.0
 5 C  s               0.0       0.0      82.0       1.2      16.1       0.0
 7 C  s               0.0       0.0      10.5      62.2      26.7       0.0
 9 C  s              99.4       0.0       0.0       0.0       0.0       0.0

                     12        13        14        15        16        17   
                  -1.73331  -1.69822  -1.69104  -1.68268  -1.67538  -1.67374
                   2.00000   2.00000   2.00000   2.00000   2.00000   2.00000
                  --------  --------  --------  --------  --------  --------
 0 C  s               0.2       0.2       0.6       0.0       5.5       0.1
 0 C  pz              0.0       0.1       0.3       0.0       9.4       0.1
 0 C  px              0.4       0.2       0.3       0.0       0.6       0.0
 0 C  dz2             0.0       0.0       0.0       0.0       3.4       0.1
 0 C  dxz             0.0       0.0       0.0       0.0       0.5       0.0
 0 C  dx2y2           0.1       0.0       0.1       0.0       0.0       0.0
 0 C  f0              0.0       0.0       0.0       0.0       0.5       0.0
 0 C  f+1             0.0       0.0       0.0       0.0       0.1       0.0
 1 C  s               2.1       1.2       2.4       0.0       0.1       0.0
 1 C  pz              0.6       0.2       0.8       0.0       0.2       0.0
 1 C  px              1.5       0.1       1.4       0.0       1.4       0.0
 1 C  py              1.5       0.5       3.2       0.0       0.0       0.0
 1 C  dz2             0.1       0.2       0.1       0.0       0.0       0.0
 1 C  dxz             0.2       0.0       0.3       0.0       0.4       0.0
 1 C  dyz             0.3       0.0       0.5       0.0       0.0       0.0
 1 C  dx2y2           0.0       0.1       0.0       0.0       0.1       0.0
 1 C  dxy             0.8       0.1       0.9       0.0       0.2       0.0
 1 C  f-2             0.1       0.0       0.1       0.0       0.0       0.0
 2 H  s               0.2       0.1       0.2       0.0       0.0       0.0
 3 C  s               0.2       6.0       0.3       0.0       0.0       0.0
 3 C  pz              0.0       1.6       0.1       0.1       0.0       0.1
 3 C  px              0.0       2.0       0.3       0.8       0.2       1.0
 3 C  py              0.3       3.7       2.5       0.1       0.0       0.1
 3 C  dz2             0.0       0.4       0.0       0.0       0.0       0.0
 3 C  dxz             0.0       0.5       0.1       0.0       0.0       0.0
 3 C  dyz             0.0       0.8       0.2       0.0       0.0       0.0
 3 C  dx2y2           0.1       0.1       0.0       0.0       0.0       0.0
 3 C  dxy             0.0       1.5       0.2       0.2       0.0       0.4
 3 C  f0              0.0       0.1       0.0       0.0       0.0       0.0
 3 C  f-2             0.0       0.2       0.0       0.0       0.0       0.0
 3 C  f+3             0.0       0.2       0.0       0.0       0.0       0.0
 4 H  s               0.0       0.6       0.0       0.0       0.0       0.0
 5 C  s               0.1       1.1       0.1       2.4       0.0       3.1
 5 C  pz              0.0       0.1       0.0       0.8       0.0       1.5
 5 C  px              0.0       0.9       0.0       1.7       0.0       0.2
 5 C  py              0.2       0.3       0.2       0.8       0.1       6.2
 5 C  dz2             0.0       0.1       0.0       0.1       0.0       0.0
 5 C  dyz             0.0       0.1       0.0       0.4       0.0       1.4
 5 C  dx2y2           0.0       0.0       0.0       0.2       0.0       1.5
 5 C  dxy             0.0       0.0       0.0       0.0       0.0       0.6
 5 C  f+2             0.0       0.0       0.0       0.0       0.0       0.2
 6 H  s               0.0       0.1       0.0       0.3       0.0       0.3
 7 C  s               1.0       0.1       0.1       5.4       0.0       0.7
 7 C  pz              0.1       0.0       0.0       0.5       0.0       0.1
 7 C  px              0.1       0.1       0.6       5.8       0.2       3.2
 7 C  py              1.4       0.2       0.0       1.2       0.0       0.4
 7 C  dz2             0.2       0.0       0.0       0.7       0.0       0.0
 7 C  dxz             0.0       0.0       0.1       0.4       0.0       0.1
 7 C  dx2y2           0.1       0.0       0.0       1.4       0.0       1.2
 7 C  dxy             0.1       0.0       0.1       0.2       0.0       0.3
 7 C  f+3             0.0       0.0       0.0       0.2       0.0       0.0
 8 H  s               0.2       0.0       0.0       0.5       0.0       0.0
 9 C  s              11.3       0.0       0.0       0.1       0.0       0.0
 9 C  pz              1.8       0.0       0.1       0.0       0.0       0.0
 9 C  px              0.2       1.5      10.8       0.2       0.6       0.1
 9 C  py              4.0       0.5       1.2       1.2       0.0       0.2
 9 C  dz2             1.0       0.0       0.1       0.0       0.0       0.0
 9 C  dxz             0.0       0.1       0.8       0.0       0.0       0.0
 9 C  dyz             0.6       0.1       0.3       0.1       0.0       0.0
 9 C  dx2y2           0.3       0.2       2.1       0.0       0.1       0.0
 9 C  dxy             0.5       0.3       1.4       0.4       0.0       0.1
 9 C  f0              0.2       0.0       0.0       0.0       0.0       0.0
 9 C  f-2             0.1       0.0       0.1       0.0       0.0       0.0
 9 C  f+3             0.5       0.0       0.0       0.0       0.0       0.0
10 H  s               1.0       0.0       0.0       0.0       0.0       0.0
11 O  s              22.0       2.8      26.9       0.0       1.9       0.1
11 O  pz              0.2       0.0       0.2       0.0       0.0       0.0
11 O  px              0.8       0.1       0.2       0.0       0.0       0.0
11 O  py              0.2       0.1       0.4       0.0       0.0       0.0
12 O  s              31.7       4.5      19.8       1.0       0.5       0.4
12 O  pz              0.6       0.1       0.2       0.0       0.0       0.0
12 O  px              0.5       0.0       0.1       0.0       0.0       0.0
12 O  py              0.2       0.0       0.0       0.0       0.0       0.0
13 O  s               0.5       0.0       0.6      41.5       0.4      14.9
13 O  pz              0.0       0.0       0.0       0.2       0.0       0.1
13 O  px              0.0       0.0       0.0       0.2       0.0       0.0
13 O  py              0.0       0.0       0.0       0.4       0.0       0.1
14 O  s               0.0       2.5       0.4      12.8       0.6      41.6
14 O  pz              0.0       0.0       0.0       0.1       0.0       0.4
14 O  px              0.0       0.0       0.0       0.1       0.0       0.4
15 O  s               0.2      47.2       7.1       1.9       0.0       2.0
15 O  pz              0.0       0.2       0.0       0.0       0.0       0.0
15 O  px              0.0       0.4       0.0       0.0       0.0       0.0
15 O  py              0.0       0.4       0.0       0.0       0.0       0.0
16 O  s               0.1       0.3       1.8       0.0      55.9       0.8
16 O  pz              0.0       0.0       0.0       0.0       0.3       0.0
16 O  px              0.0       0.0       0.0       0.0       0.5       0.0
16 O  py              0.0       0.0       0.0       0.0       0.3       0.0
17 H  s               0.0       0.1       0.1       0.0       0.5       0.0
18 H  s               0.0       0.0       0.1       0.0       0.5       0.0
19 H  s               6.2       0.9       3.9       0.2       0.1       0.1
19 H  pz              0.5       0.1       0.4       0.0       0.0       0.0
19 H  py              1.1       0.2       0.7       0.0       0.0       0.0
20 H  s               0.2       0.0       0.2       8.3       0.1       2.9
20 H  pz              0.0       0.0       0.0       0.4       0.0       0.1
20 H  px              0.0       0.0       0.0       0.8       0.0       0.3
20 H  py              0.0       0.0       0.0       1.0       0.0       0.4
21 H  s               0.0       0.7       0.1       2.6       0.1       8.1
21 H  pz              0.0       0.0       0.0       0.1       0.0       0.2
21 H  px              0.0       0.0       0.0       0.2       0.0       0.8
21 H  py              0.0       0.1       0.0       0.4       0.0       1.2
22 H  s               0.0       9.3       1.4       0.3       0.0       0.4
22 H  pz              0.0       2.4       0.4       0.1       0.0       0.1
23 H  s               0.0       0.1       0.4       0.0      11.1       0.2
23 H  pz              0.0       0.0       0.0       0.0       0.6       0.0
23 H  px              0.0       0.0       0.0       0.0       1.0       0.0
23 H  py              0.0       0.0       0.0       0.0       1.4       0.0

                     18        19        20        21        22        23   
                  -1.33962  -1.32912  -1.24016  -1.20794  -1.16676  -1.12685
                   2.00000   2.00000   2.00000   2.00000   2.00000   2.00000
                  --------  --------  --------  --------  --------  --------
 0 C  s               2.1       5.0      13.9       0.3       7.4       0.2
 0 C  pz              0.2       0.4       0.8       0.0       0.3       0.3
 0 C  px              1.1       2.4       0.2       0.0       3.3       0.8
 0 C  py              0.4       0.2       0.1       0.2       0.0       0.0
 0 C  dz2             0.1       0.4       0.2       0.0       0.0       0.0
 0 C  dx2y2           0.1       0.3       0.0       0.1       0.2       0.1
 0 C  dxy             0.2       0.1       0.0       0.1       0.1       0.0
 1 C  s               7.4      11.4       2.0       0.1       4.3       1.6
 1 C  pz              0.2       0.2       0.4       0.0       0.1       0.9
 1 C  px              0.1       1.5       6.2       0.1       2.8       0.2
 1 C  py              2.7       0.3       0.7       5.5       0.1       0.1
 1 C  dz2             0.1       0.0       0.0       0.0       0.2       0.0
 1 C  dxz             0.0       0.0       0.2       0.0       0.0       0.0
 1 C  dyz             0.4       0.0       0.0       0.6       0.0       0.0
 1 C  dx2y2           0.0       0.0       1.1       0.1       0.3       0.1
 1 C  dxy             0.8       0.1       0.2       0.1       0.1       0.1
 2 H  s               1.3       1.9       0.6       0.0       1.4       1.2
 2 H  pz              0.1       0.2       0.0       0.0       0.2       0.1
 3 C  s              12.5       0.9       3.3       8.0       0.1       1.1
 3 C  pz              0.1       0.1       0.2       0.1       0.2       1.4
 3 C  px              2.2       1.4       2.0       1.0       0.9       3.7
 3 C  py              1.7       1.8       0.8       0.0       3.0       1.5
 3 C  dz2             0.1       0.0       0.0       0.1       0.0       0.0
 3 C  dxz             0.1       0.0       0.2       0.0       0.0       0.0
 3 C  dyz             0.3       0.2       0.0       0.1       0.2       0.0
 3 C  dx2y2           0.2       0.6       0.1       0.1       0.6       0.0
 3 C  dxy             0.3       0.2       0.0       0.0       0.1       0.6
 4 H  s               2.1       0.2       0.8       2.3       0.0       1.0
 4 H  pz              0.2       0.0       0.1       0.3       0.0       0.1
 5 C  s              12.3       1.8       3.5       2.1       3.6       3.0
 5 C  pz              0.0       0.1       0.0       0.1       0.0       0.7
 5 C  px              0.8       1.1       1.6       6.6       0.2       0.1
 5 C  py              3.8       1.3       0.1       0.2       1.0       1.0
 5 C  dz2             0.2       0.0       0.0       0.1       0.1       0.2
 5 C  dxz             0.0       0.0       0.0       0.2       0.0       0.0
 5 C  dyz             0.3       0.1       0.0       0.1       0.0       0.0
 5 C  dx2y2           0.3       0.1       0.5       0.1       0.1       0.1
 5 C  dxy             0.0       0.5       0.1       0.4       0.0       0.6
 6 H  s               2.1       0.3       0.8       0.5       1.0       1.4
[...]
14 O  dxy             4.4       0.0       6.6      20.4       0.3       0.0
14 O  f0              0.4       0.0       1.1       2.1       0.0       0.0
14 O  f+1             0.1       0.0       0.2       0.4       0.0       0.0
14 O  f+2             0.1       0.0       0.1       0.5       0.0       0.0
14 O  f-2             1.2       0.0       2.9       7.0       0.1       0.0
14 O  f+3             0.6       0.0       1.4       2.0       0.0       0.0
14 O  f-3             0.7       0.0       1.8       4.2       0.0       0.0
15 O  s               2.1       0.5       0.3       0.3       0.0       0.0
15 O  pz              1.7       0.3       0.1       0.0       0.0       0.0
15 O  dz2            31.4       6.9       3.3       2.0       0.0       0.2
15 O  dxz             0.2       0.0       0.0       0.1       0.0       0.0
15 O  dyz             2.0       0.6       0.3       0.4       0.0       0.0
15 O  dx2y2           0.0       0.2       0.0       0.0       0.0       0.1
15 O  dxy             0.7       0.0       0.3       0.1       0.0       0.0
15 O  f0             11.8       2.9       1.5       1.0       0.1       0.1
15 O  f+1             4.3       1.0       0.6       0.4       0.0       0.0
15 O  f-1             0.4       0.1       0.1       0.0       0.0       0.0
15 O  f+2             0.2       0.0       0.0       0.0       0.0       0.0
15 O  f-2             0.2       0.1       0.0       0.1       0.0       0.0
16 O  s               0.5       0.0       0.0       0.0       0.1       0.0
16 O  pz              0.1       0.0       0.0       0.0       0.0       0.0
16 O  py              0.2       0.0       0.0       0.0       0.0       0.0
16 O  dxz             3.0       0.0       0.1       0.0       0.6       0.0
16 O  dyz             1.9       0.0       0.1       0.0       0.2       0.0
16 O  dx2y2           0.2       0.0       0.0       0.0       0.1       0.1
16 O  dxy             1.5       0.0       0.1       0.0       0.3       0.0
16 O  f0              0.8       0.0       0.1       0.0       0.2       0.0
16 O  f+1             0.2       0.0       0.0       0.0       0.1       0.0
16 O  f-1             0.1       0.0       0.0       0.0       0.1       0.0
16 O  f-2             1.3       0.0       0.1       0.0       0.2       0.0
16 O  f+3             0.7       0.0       0.0       0.0       0.2       0.0
16 O  f-3             0.3       0.0       0.0       0.0       0.1       0.0
19 H  s               0.4       5.2       1.1       0.0       0.0       0.2
19 H  pz              0.0       0.2       0.0       0.0       0.0       0.0
19 H  py              0.0       0.2       0.0       0.0       0.0       0.0
20 H  s               0.4       0.8       4.0       2.1       0.1       0.1
20 H  py              0.0       0.0       0.2       0.1       0.0       0.0
21 H  s               0.9       0.0       2.1       4.3       0.0       0.0
21 H  px              0.0       0.0       0.1       0.1       0.0       0.0
21 H  py              0.0       0.0       0.1       0.2       0.0       0.0
22 H  s               5.1       1.2       0.6       0.3       0.0       0.0
22 H  pz              0.4       0.1       0.1       0.0       0.0       0.0
23 H  s               1.0       0.0       0.1       0.0       0.2       0.0

                    432       433       434       435       436       437   
                  20.81571  20.90011  20.97317  21.04619  21.05944  21.20900
                   0.00000   0.00000   0.00000   0.00000   0.00000   0.00000
                  --------  --------  --------  --------  --------  --------
 0 C  s              78.6      15.1       0.5       0.0       3.3       0.3
 1 C  s               9.1      27.2      24.6       2.0       9.6      25.9
 1 C  px              0.1       0.0       0.0       0.0       0.0       0.0
 3 C  s               6.5      10.8      21.5       8.3      30.3      20.7
 4 H  s               0.0       0.0       0.1       0.0       0.2       0.1
 5 C  s               1.2       7.0       2.6      85.5       1.7       0.0
 6 H  s               0.0       0.0       0.0       0.3       0.0       0.0
 6 H  pz              0.0       0.0       0.0       0.1       0.0       0.0
 7 C  s               0.0      11.8      42.0       2.3      16.9      24.9
 8 H  s               0.0       0.0       0.1       0.0       0.1       0.1
 9 C  s               2.4      25.8       6.9       0.2      35.7      26.5
10 H  s               0.0       0.0       0.0       0.0       0.1       0.1
11 O  s               0.1       0.2       0.1       0.0       0.0       0.0
11 O  px              0.0       0.0       0.0       0.0       0.2       0.2
12 O  s               0.0       0.1       0.0       0.0       0.1       0.0
13 O  s               0.0       0.1       0.1       0.0       0.0       0.0
13 O  px              0.0       0.1       0.1       0.0       0.1       0.1
14 O  s               0.0       0.1       0.0       0.1       0.0       0.0
14 O  py              0.0       0.0       0.0       0.2       0.0       0.0
16 O  s               0.2       0.0       0.0       0.0       0.0       0.0
16 O  pz              0.2       0.0       0.0       0.0       0.0       0.0
17 H  s               0.2       0.0       0.0       0.0       0.0       0.0
18 H  s               0.2       0.0       0.0       0.0       0.0       0.0

                    438       439       440       441       442       443   
                  41.41293  41.45669  41.59853  41.63441  41.65855  41.98182
                   0.00000   0.00000   0.00000   0.00000   0.00000   0.00000
                  --------  --------  --------  --------  --------  --------
 5 C  s               0.0       0.0       0.0       0.1       0.0       0.0
 7 C  s               0.0       0.0       0.1       0.0       0.1       0.0
11 O  s               0.0       0.0       0.2       0.0       0.5      99.0
12 O  s               4.7      75.2       4.3       5.7       9.7       0.1
13 O  s               0.0       0.0      55.1       2.0      42.0       0.5
14 O  s               0.7       9.1       0.0      86.5       3.4       0.0
15 O  s               8.8       5.9      37.9       5.3      41.8       0.0
16 O  s              85.6       9.5       2.2       0.2       2.3       0.0



                      *****************************
                      * MAYER POPULATION ANALYSIS *
                      *****************************

  NA   - Mulliken gross atomic population
  ZA   - Total nuclear charge
  QA   - Mulliken gross atomic charge
  VA   - Mayer's total valence
  BVA  - Mayer's bonded valence
  FA   - Mayer's free valence

  ATOM       NA         ZA         QA         VA         BVA        FA
  0 C      5.9617     6.0000     0.0383     3.9009     3.9009    -0.0000
  1 C      6.0566     6.0000    -0.0566     4.0895     4.0895    -0.0000
  2 H      0.9311     1.0000     0.0689     0.9857     0.9857    -0.0000
  3 C      5.9579     6.0000     0.0421     3.8880     3.8880    -0.0000
  4 H      0.9022     1.0000     0.0978     1.0281     1.0281    -0.0000
  5 C      5.9181     6.0000     0.0819     3.9915     3.9915     0.0000
  6 H      0.9316     1.0000     0.0684     0.9902     0.9902     0.0000
  7 C      5.8932     6.0000     0.1068     3.8675     3.8675     0.0000
  8 H      0.9111     1.0000     0.0889     0.9971     0.9971     0.0000
  9 C      5.9366     6.0000     0.0634     4.2737     4.2737    -0.0000
 10 H      0.9330     1.0000     0.0670     0.9763     0.9763     0.0000
 11 O      8.2706     8.0000    -0.2706     1.9738     1.9738     0.0000
 12 O      8.4113     8.0000    -0.4113     2.0212     2.0212     0.0000
 13 O      8.4236     8.0000    -0.4236     2.0304     2.0304    -0.0000
 14 O      8.4140     8.0000    -0.4140     2.0169     2.0169     0.0000
 15 O      8.4382     8.0000    -0.4382     1.9778     1.9778    -0.0000
 16 O      8.4545     8.0000    -0.4545     1.9828     1.9828    -0.0000
 17 H      0.9039     1.0000     0.0961     0.9887     0.9887     0.0000
 18 H      0.8958     1.0000     0.1042     0.9626     0.9626     0.0000
 19 H      0.6825     1.0000     0.3175     0.9127     0.9127    -0.0000
 20 H      0.6904     1.0000     0.3096     0.9267     0.9267     0.0000
 21 H      0.6930     1.0000     0.3070     0.9294     0.9294     0.0000
 22 H      0.7018     1.0000     0.2982     0.9312     0.9312     0.0000
 23 H      0.6874     1.0000     0.3126     0.9240     0.9240    -0.0000

  Mayer bond orders larger than 0.100000
B(  0-C ,  1-C ) :   0.9826 B(  0-C , 16-O ) :   1.0064 B(  0-C , 17-H ) :   0.9573 
B(  0-C , 18-H ) :   0.9782 B(  1-C ,  2-H ) :   0.9480 B(  1-C ,  3-C ) :   0.9695 
B(  1-C , 11-O ) :   0.9899 B(  1-C , 16-O ) :   0.1103 B(  3-C ,  4-H ) :   0.9271 
B(  3-C ,  5-C ) :   0.9876 B(  3-C , 15-O ) :   0.9805 B(  5-C ,  6-H ) :   0.9577 
B(  5-C ,  7-C ) :   0.9272 B(  5-C , 14-O ) :   1.1043 B(  7-C ,  8-H ) :   0.9676 
B(  7-C ,  9-C ) :   0.9316 B(  7-C , 13-O ) :   1.1494 B(  9-C , 10-H ) :   0.9832 
B(  9-C , 11-O ) :   1.0228 B(  9-C , 12-O ) :   1.2031 B( 12-O , 19-H ) :   0.8920 
B( 13-O , 20-H ) :   0.8904 B( 14-O , 21-H ) :   0.8882 B( 15-O , 22-H ) :   0.8921 
B( 16-O , 23-H ) :   0.8904 

-------
TIMINGS
-------

Total SCF time: 0 days 0 hours 4 min 46 sec 

Total time                  ....     286.313 sec
Sum of individual times     ....     280.900 sec  ( 98.1%)

SCF preparation             ....       0.304 sec  (  0.1%)
Fock matrix formation       ....     278.474 sec  ( 97.3%)
  Startup                   ....       0.076 sec  (  0.0% of F)
  Split-RI-J                ....      11.840 sec  (  4.3% of F)
  Chain of spheres X        ....     244.176 sec  ( 87.7% of F)
  XC integration            ....      26.545 sec  (  9.5% of F)
    XC Preparation          ....       0.000 sec  (  0.0% of XC)
    Basis function eval.    ....       5.516 sec  ( 20.8% of XC)
    Density eval.           ....       6.307 sec  ( 23.8% of XC)
    XC-Functional eval.     ....       5.553 sec  ( 20.9% of XC)
    XC-Potential eval.      ....       8.374 sec  ( 31.5% of XC)
Diagonalization             ....       0.000 sec  (  0.0%)
Density matrix formation    ....       0.231 sec  (  0.1%)
Total Energy calculation    ....       0.086 sec  (  0.0%)
Population analysis         ....       0.334 sec  (  0.1%)
Orbital Transformation      ....       0.161 sec  (  0.1%)
Orbital Orthonormalization  ....       0.000 sec  (  0.0%)
DIIS solution               ....       0.679 sec  (  0.2%)
  MO trafo                  ....       0.000 sec  (  0.0 % of DIIS)
  Orb grad                  ....       0.000 sec  (  0.0 % of DIIS)
  Energy W gradient         ....       0.000 sec  (  0.0 % of DIIS)
  DIIS error                ....       0.036 sec  (  5.3 % of DIIS)
  DIIS work                 ....       0.546 sec  ( 80.3 % of DIIS)
  Form Q                    ....       0.000 sec  (  0.0 % of DIIS)
  Form QpQm                 ....       0.000 sec  (  0.0 % of DIIS)
  Exp/Cayley                ....       0.000 sec  (  0.0 % of DIIS)
  Orb update                ....       0.000 sec  (  0.0 % of DIIS)
  Wake-sleep                ....       0.016 sec  (  2.3 % of DIIS)
SOSCF solution              ....       0.295 sec  (  0.1%)
  MO trafo                  ....       0.130 sec  ( 44.1 % of SOSCF)
  Orb grad                  ....       0.002 sec  (  0.8 % of SOSCF)
  Rot update                ....       0.030 sec  ( 10.1 % of SOSCF)
  Step                      ....       0.133 sec  ( 45.0 % of SOSCF)
Grid generation             ....       0.336 sec  (  0.1%)
Finished LeanSCF after 286.4 sec

Maximum memory used throughout the entire LEANSCF-calculation: 70.2 MB
------------------   -----------------
gCP correction             0.018857142
------------------   -----------------

-------------------------   --------------------
FINAL SINGLE POINT ENERGY      -687.244775335574
-------------------------   --------------------


------------------------------------------------------------------------------
                              ORCA PROPERTY CALCULATIONS
------------------------------------------------------------------------------

GBWName                                 ... sp_gas.gbw
Number of atoms                         ...     24
Number of basis functions               ...    444
Max core memory                         ...   1024 MB

Electric properties:
Dipole moment                           ... YES
Quadrupole moment                       ...  NO
Static polarizability (Dipole/Dipole)   ...  NO
Static polarizability (Dipole/Quad.)    ...  NO
Static polarizability (Quad./Quad.)     ...  NO
Static polarizability (Velocity)        ...  NO

Atomic electric properties:
Dipole moment                           ...  NO
Quadrupole moment                       ...  NO
Static polarizability                   ...  NO

Choice of electric origin               ... Center of mass
Position of electric origin             ...    -0.022601     0.011970    -0.037579

General magnetic properties:
Magnetizability                         ...  NO

EPR properties:
g-Tensor (aka g-matrix)                 ...  NO
Zero-Field splitting spin-orbit         ...  NO
Zero-field splitting spin-spin          ...  NO
Hyperfine couplings                     ...  NO (   0 nuclei)
Quadrupole couplings                    ...  NO (   0 nuclei)
Contact density                         ...  NO (   0 nuclei)

NMR properties:
Chemical shifts                         ...  NO (   0 nuclei)
Spin-rotation constants                 ...  NO (   0 nuclei)
Spin-spin couplings                     ...  NO (   0 nuclei,    0 pairs)

Choice of magnetic origin               ... GIAO
Position of magnetic origin             ...     0.000000     0.000000     0.000000

Properties with geometric perturbations:
SCF Hessian                             ...  NO
IR spectrum                             ...  NO
VCD spectrum                            ...  NO
X-ray spectroscopy properties:
SCF XES/XAS/RIXS spectra                ...  NO


-------------
DIPOLE MOMENT
-------------

Method             : SCF
Type of density    : Electron Density
Multiplicity       :   1
Irrep              :   0
Energy             :  -687.2636324776743777 Eh
Relativity type    : 
Basis              : AO
                                X                 Y                 Z
Electronic contribution:      2.375489060      -0.002278324      -1.858899629
Nuclear contribution   :     -2.272486854      -0.947006724       3.265727682
                        -----------------------------------------
Total Dipole Moment    :      0.103002206      -0.949285048       1.406828053
                        -----------------------------------------
Magnitude (a.u.)       :      1.700269605
Magnitude (Debye)      :      4.321741880



--------------------
Rotational spectrum 
--------------------
 
Rotational constants in cm-1:             0.039352             0.026475             0.017500 
Rotational constants in MHz :          1179.750960           793.695830           524.624011 

Dipole components along the rotational axes: 
x,y,z [a.u.] :     0.030494    -0.900238     1.442068 
x,y,z [Debye]:     0.077510    -2.288222     3.665444 

 

Dipole moment calculation done in   0.2 sec 

Maximum memory used throughout the entire PROP-calculation: 45.1 MB

--------------------------------
SUGGESTED CITATIONS FOR THIS RUN
--------------------------------

Below you find a list of papers that are relevant to this ORCA run
We neither can nor want to force you to cite these papers, but we appreciate if you do
You receive ORCA, which is the product of decades of hard work by many enthusiastic individuals, for free
The only thing we kindly ask in return is that you cite our papers,
We deeply appreciate it, if you show your appreciation for ORCA by not just citing the generic ORCA reference.

Please note that relegating all ORCA citations to the supporting information does *not* help us.
SI sections are not indexed - citations you put there will not count into any citation statistics
But we need these citations in order to attract the funding resources that allow us to do what we are doing

Therefore, if you are a happy ORCA user, please consider citing a few of the papers listed below in the main body of your paper

In addition to the list printed below, the program has created the file sp_gas.bibtex that contains the list in bibtex format
You can import this file easily into all common literature databanks and citation aid programs


List of essential papers. We consider these as the minimum necessary citations

  1. Neese,F.
     Software update: the ORCA program system, version 5.0
     WIRES Comput. Molec. Sci., 2022 12(1)e1606
     doi.org/10.1002/wcms.1606

List of papers to cite with high priority. The work reported in these papers was absolutely
necessary for this run to complete.
Our perspective: the developers of density functionals and basis sets usually get cited in chemistry papers
Good! But without the algorithms to do something with them, the functionals or basis sets would not do anything.
Hence, in our opinion, the algorithm design and method developments papers are equally worthy of getting cited

  1. Neese,F.
     An improvement of the resolution of the identity approximation for the formation of the Coulomb matrix
     J. Comp. Chem., 2003 24(14)1740-1747
     doi.org/10.1002/jcc.10318
  2. Neese,F.; Wennmohs,F.; Hansen,A.; Becker,U.
     Efficient, approximate and parallel Hartree-Fock and hybrid DFT calculations. A 'chain-of-spheres' algorithm for the Hartree-Fock exchange
     Chem. Phys., 2009 356(1-3)98-109
     doi.org/10.1016/j.chemphys.2008.10.036
  3. Helmich-Paris,B.; de Souza,B.; Neese,F.; Izsák,R.
     An improved chain of spheres for exchange algorithm
     J. Chem. Phys., 2021 155 104109
     doi.org/doi: 10.1063/5.0058766.
  4. Neese,F.
     The SHARK Integral Generation and Digestion System
     J. Comp. Chem., 2022  1-16
     doi.org/10.1002/jcc.26942

List of suggested additional citations. These are papers that are important in the 'surrounding' of 
of this run, or papers that preceded the highly important papers. If you like your results we are grateful for a citation.

  1. Izsak,R.; Neese,F.
     An overlap fitted chain of spheres exchange method
     J. Chem. Phys., 2011 135 144105
     doi.org/10.1063/1.3646921
  2. Izsak,R.; Hansen,A.; Neese,F.
     The resolution of identity and chain of spheres approximations for the LPNO-CCSD singles Fock term
     Molec. Phys., 2012 110 2413-2417
     doi.org/10.1080/00268976.2012.687466
  3. Neese,F.
     The ORCA program system
     WIRES Comput. Molec. Sci., 2012 2(1)73-78
     doi.org/10.1002/wcms.81
  4. Izsak,R.; Neese,F.; Klopper,W.
     Robust fitting techniques in the chain of spheres approximation to the Fock exchange: The role of the complementary space
     J. Chem. Phys., 2013 139 
     doi.org/10.1063/1.4819264
  5. Neese,F.
     Software update: the ORCA program system, version 4.0
     WIRES Comput. Molec. Sci., 2018 8(1)1-6
     doi.org/10.1002/wcms.1327
  6. Neese,F.; Wennmohs,F.; Becker,U.; Riplinger,C.
     The ORCA quantum chemistry program package
     J. Chem. Phys., 2020 152 Art. No. L224108
     doi.org/10.1063/5.0004608

List of optional additional citations

  1. Neese,F.
     Approximate second-order SCF convergence for spin unrestricted wavefunctions
     Chem. Phys. Lett., 2000 325(1-3)93-98
     doi.org/10.1016/s0009-2614(00)00662-x

Timings for individual modules:

Sum of individual times          ...      291.333 sec (=   4.856 min)
Startup calculation              ...        4.078 sec (=   0.068 min)   1.4 %
SCF iterations                   ...      286.958 sec (=   4.783 min)  98.5 %
Property calculations            ...        0.297 sec (=   0.005 min)   0.1 %
                             ****ORCA TERMINATED NORMALLY****
TOTAL RUN TIME: 0 days 0 hours 4 minutes 52 seconds 175 msec
