
                                 *****************
                                 * O   R   C   A *
                                 *****************

                                            #,                                       
                                            ###                                      
                                            ####                                     
                                            #####                                    
                                            ######                                   
                                           ########,                                 
                                     ,,################,,,,,                         
                               ,,#################################,,                 
                          ,,##########################################,,             
                       ,#########################################, ''#####,          
                    ,#############################################,,   '####,        
                  ,##################################################,,,,####,       
                ,###########''''           ''''###############################       
              ,#####''   ,,,,##########,,,,          '''####'''          '####       
            ,##' ,,,,###########################,,,                        '##       
           ' ,,###''''                  '''############,,,                           
         ,,##''                                '''############,,,,        ,,,,,,###''
      ,#''                                            '''#######################'''  
     '                                                          ''''####''''         
             ,#######,   #######,   ,#######,      ##                                
            ,#'     '#,  ##    ##  ,#'     '#,    #''#        ,####,   ,####,        
            ##       ##  ##   ,#'  ##            #'  '#       #'       #'  '#        
            ##       ##  #######   ##           ,######,      #####,   #    #        
            '#,     ,#'  ##    ##  '#,     ,#' ,#      #,     #,   #   #,  ,#        
             '#######'   ##     ##  '#######'  #'      '#     '####' # '####'        



                #########################################################
                #                        -***-                          #
                #          Department of theory and spectroscopy        #
                #                                                       #
                #                      Frank Neese                      #
                #                                                       #
                #     Directorship, Architecture, Infrastructure        #
                #                    SHARK, DRIVERS                     #
                #        Core code/Algorithms in most modules           #
                #                                                       #
                #        Max Planck Institute fuer Kohlenforschung      #
                #                Kaiser Wilhelm Platz 1                 #
                #                 D-45470 Muelheim/Ruhr                 #
                #                      Germany                          #
                #                                                       #
                #                  All rights reserved                  #
                #                        -***-                          #
                #########################################################


                         Program Version 6.0.0  -   RELEASE  -


 With contributions from (in alphabetic order):
   Daniel Aravena         : Magnetic Suceptibility
   Michael Atanasov       : Ab Initio Ligand Field Theory (pilot matlab implementation)
   Alexander A. Auer      : GIAO ZORA, VPT2 properties, NMR spectrum
   Ute Becker             : All parallelization in ORCA, NUMFREQ, NUMCALC
   Giovanni Bistoni       : ED, misc. LED, open-shell LED, HFLD
   Martin Brehm           : Molecular dynamics
   Dmytro Bykov           : pre 5.0 version of the SCF Hessian
   Marcos Casanova-Páez   : Triplet and SCS-CIS(D). UHF-(DLPNO)-IP/EA/STEOM-CCSD. UHF-CVS-IP/STEOM-CCSD
   Vijay G. Chilkuri      : MRCI spin determinant printing, contributions to CSF-ICE
   Pauline Colinet        : FMM embedding
   Dipayan Datta          : RHF DLPNO-CCSD density
   Achintya Kumar Dutta   : EOM-CC, STEOM-CC
   Nicolas Foglia         : Exact transition moments, OPA infrastructure, MCD improvements
   Dmitry Ganyushin       : Spin-Orbit,Spin-Spin,Magnetic field MRCI
   Miquel Garcia          : C-PCM and meta-GGA Hessian, CCSD/C-PCM, Gaussian charge scheme
   Tiago L. C. Gouveia    : GS-ROHF, GS-ROCIS
   Yang Guo               : DLPNO-NEVPT2, F12-NEVPT2, CIM, IAO-localization
   Andreas Hansen         : Spin unrestricted coupled pair/coupled cluster methods
   Ingolf Harden          : AUTO-CI MPn and infrastructure 
   Benjamin Helmich-Paris : MC-RPA, TRAH-(SCF,CASSCF), AVAS, COSX integrals, SCF dyn. polar.
   Lee Huntington         : MR-EOM, pCC
   Robert Izsak           : Overlap fitted RIJCOSX, COSX-SCS-MP3, EOM
   Riya Kayal             : Wick's Theorem for AUTO-CI, AUTO-CI UHF-CCSDT
   Emily Kempfer          : AUTO-CI, RHF CISDT and CCSDT
   Christian Kollmar      : KDIIS, OOCD, Brueckner-CCSD(T), CCSD density, CASPT2, CASPT2-K, improved NEVPT2
   Axel Koslowski         : Symmetry handling
   Simone Kossmann        : Meta GGA functionals, TD-DFT gradient, OOMP2, (MP2 Hessian; deprecated post 5.0)
   Lucas Lang             : DCDCAS
   Marvin Lechner         : AUTO-CI (C++ implementation), FIC-MRCC
   Spencer Leger          : CASSCF response
   Dagmar Lenk            : GEPOL surface, SMD, ORCA-2-JSON
   Dimitrios Liakos       : Extrapolation schemes; Compound Job, initial MDCI parallelization
   Dimitrios Manganas     : Further ROCIS development; embedding schemes. LFT, Crystal Embedding
   Dimitrios Pantazis     : SARC Basis sets
   Anastasios Papadopoulos: AUTO-CI, single reference methods and gradients
   Taras Petrenko         : pre 6.0 DFT Hessian and TD-DFT gradient, (ASA, deprecated), ECA, 1-Electron XAS/XES, NRVS
   Peter Pinski           : DLPNO-MP2, DLPNO-MP2 Gradient
   Christoph Reimann      : Effective Core Potentials
   Marius Retegan         : Local ZFS, SOC
   Christoph Riplinger    : Optimizer, TS searches, QM/MM, DLPNO-CCSD(T), (RO)-DLPNO pert. Triples
   Michael Roemelt        : Original ROCIS implementation
   Masaaki Saitow         : Open-shell DLPNO-CCSD energy and density
   Barbara Sandhoefer     : DKH picture change effects
   Kantharuban Sivalingam : CASSCF convergence/infrastructure, NEVPT2 and variants, FIC-MRCI
   Bernardo de Souza      : ESD, SOC TD-DFT
   Georgi Stoychev        : AutoAux, RI-MP2 NMR, DLPNO-MP2 response, X2C
   Van Anh Tran           : RI-MP2 g-tensors
   Willem Van den Heuvel  : Paramagnetic NMR
   Zikuan Wang            : NOTCH, Electric field optimization 
   Frank Wennmohs         : Technical directorship and infrastructure
   Hang Xu                : AUTO-CI-Response properties 


 We gratefully acknowledge several colleagues who have allowed us to
 interface, adapt or use parts of their codes:
   Stefan Grimme, W. Hujo, H. Kruse, P. Pracht,  : VdW corrections, initial TS optimization,
                  C. Bannwarth, S. Ehlert,         DFT functionals, gCP, sTDA/sTD-DF
                  L. Wittmann, M. Mueller
   Ed Valeev, F. Pavosevic, A. Kumar             : LibInt (2-el integral package), F12 methods
   Garnet Chan, S. Sharma, J. Yang, R. Olivares  : DMRG
   Ulf Ekstrom                                   : XCFun DFT Library
   Mihaly Kallay                                 : mrcc  (arbitrary order and MRCC methods)
   Frank Weinhold                                : gennbo (NPA and NBO analysis)
   Simon Mueller                                 : openCOSMO-RS
   Christopher J. Cramer and Donald G. Truhlar   : smd solvation model
   Lars Goerigk                                  : TD-DFT with DH, B97 family of functionals
   V. Asgeirsson, H. Jonsson                     : NEB implementation
   FAccTs GmbH                                   : IRC, NEB, NEB-TS, DLPNO-Multilevel, CI-OPT
                                                   MM, QMMM, 2- and 3-layer-ONIOM, Crystal-QMMM,
                                                   LR-CPCM, SF, NACMEs, symmetry and pop. for TD-DFT,
                                                   nearIR, NL-DFT gradient (VV10), updates on ESD,
                                                   ML-optimized integration grids, MBIS, APM,
                                                   GOAT, DOCKER, SOLVATOR, interface openCOSMO-RS
   S Lehtola, MJT Oliveira, MAL Marques          : LibXC Library
   Liviu Ungur et al                             : ANISO software


 Your calculation uses the libint2 library for the computation of 2-el integrals
 For citations please refer to: http://libint.valeyev.net

 Your ORCA version has been built with support for libXC version: 6.2.2
 For citations please refer to: https://libxc.gitlab.io

 This ORCA versions uses:
   CBLAS   interface :  Fast vector & matrix operations
   LAPACKE interface :  Fast linear algebra routines
   SCALAPACK package :  Parallel linear algebra routines
   Shared memory     :  Shared parallel matrices
   BLAS/LAPACK       :  OpenBLAS 0.3.27  USE64BITINT DYNAMIC_ARCH NO_AFFINITY SkylakeX SINGLE_THREADED
        Core in use  :  SkylakeX
   Copyright (c) 2011-2014, The OpenBLAS Project


Your calculation utilizes the geometrical counterpoise correction gCP
Please cite in your paper:
H.Kruse, S. Grimme J.Chem.Phys., 136, (2012), 154101 
   

Your calculation utilizes the atom-pairwise dispersion correction
based on EEQ partial charges (D4)


================================================================================

----- Orbital basis set information -----
Your calculation utilizes the basis: def2-mTZVPP
   Stefan Grimme, Andreas Hansen, Sebastian Ehlert, and Jan-Michael Mewes 
   J. Chem. Phys. 154, 064103 (2021). DOI: 10.1063/5.0040021

----- AuxJ basis set information -----
Your calculation utilizes the auxiliary basis: def2/J
   F. Weigend, Phys. Chem. Chem. Phys. 8, 1057 (2006).

================================================================================
                                        WARNINGS
                       Please study these warnings very carefully!
================================================================================

Using LibXC functional ID 497 : Re-regularized SCAN exchange by Furness et al
[ 1]  J. W. Furness, A. D. Kaplan, J. Ning, J. P. Perdew, and J. Sun.,  J. Phys. Chem. Lett. 11, 8208-8215 (2020)
[ 2]  J. W. Furness, A. D. Kaplan, J. Ning, J. P. Perdew, and J. Sun.,  J. Phys. Chem. Lett. 11, 9248-9248 (2020)
Using LibXC functional ID 498 : Re-regularized SCAN correlation by Furness et al
[ 1]  J. W. Furness, A. D. Kaplan, J. Ning, J. P. Perdew, and J. Sun.,  J. Phys. Chem. Lett. 11, 8208-8215 (2020)
[ 2]  J. W. Furness, A. D. Kaplan, J. Ning, J. P. Perdew, and J. Sun.,  J. Phys. Chem. Lett. 11, 9248-9248 (2020)
Using LibXC functional ID 497 : Re-regularized SCAN exchange by Furness et al
[ 1]  J. W. Furness, A. D. Kaplan, J. Ning, J. P. Perdew, and J. Sun.,  J. Phys. Chem. Lett. 11, 8208-8215 (2020)
[ 2]  J. W. Furness, A. D. Kaplan, J. Ning, J. P. Perdew, and J. Sun.,  J. Phys. Chem. Lett. 11, 9248-9248 (2020)
Using LibXC functional ID 498 : Re-regularized SCAN correlation by Furness et al
[ 1]  J. W. Furness, A. D. Kaplan, J. Ning, J. P. Perdew, and J. Sun.,  J. Phys. Chem. Lett. 11, 8208-8215 (2020)
[ 2]  J. W. Furness, A. D. Kaplan, J. Ning, J. P. Perdew, and J. Sun.,  J. Phys. Chem. Lett. 11, 9248-9248 (2020)

================================================================================
                                       INPUT FILE
================================================================================
NAME = sp_gas.inp
|  1> ! r2scan-3c def2/J RI DEFGRID2 scfconv6 printgap
|  2> %output
|  3>     printlevel normal
|  4> end
|  5> * xyz 0 1
|  6> C -3.5848262522 0.2843593024 -0.3294600629
|  7> O -2.1945081214 0.3728106369 -0.6608857339
|  8> C -1.3063091627 -0.205808272 0.1384431127
|  9> O -1.604099159 -0.8179047294 1.1430738327
| 10> C 0.1045943542 0.0330150795 -0.3411768444
| 11> C 0.9276234249 -1.254307518 -0.2490947958
| 12> C 2.3760452067 -0.9943806465 -0.6496662372
| 13> C 2.990810283 0.0882226807 0.2315714999
| 14> C 2.1771352666 1.3745919045 0.1330797297
| 15> C 0.7290605263 1.1245662319 0.5418635943
| 16> H -3.698301788 0.0313696204 0.7252169611
| 17> H -4.0430606593 -0.4872152876 -0.9472062781
| 18> H -4.0200191474 1.2558693812 -0.5486158823
| 19> H 0.0582850386 0.3850552569 -1.3749771508
| 20> H 0.8807826937 -1.6231068219 0.7777390501
| 21> H 0.4890296491 -2.015933353 -0.8971442166
| 22> H 2.948189874 -1.9188745401 -0.5606762882
| 23> H 2.4100208962 -0.6756630523 -1.6934724429
| 24> H 3.0035362121 -0.2537098767 1.268506185
| 25> H 4.0210182955 0.2759676172 -0.0746842032
| 26> H 2.6076698285 2.1403179535 0.7799266101
| 27> H 2.2041007142 1.7445049409 -0.893673725
| 28> H 0.6875750607 0.7967843213 1.5831528496
| 29> H 0.147649264 2.0443862242 0.4513332914
| 30> *
| 31> 
| 32>                          ****END OF INPUT****
================================================================================

                       ****************************
                       * Single Point Calculation *
                       ****************************

---------------------------------
CARTESIAN COORDINATES (ANGSTROEM)
---------------------------------
  C     -3.584826    0.284359   -0.329460
  O     -2.194508    0.372811   -0.660886
  C     -1.306309   -0.205808    0.138443
  O     -1.604099   -0.817905    1.143074
  C      0.104594    0.033015   -0.341177
  C      0.927623   -1.254308   -0.249095
  C      2.376045   -0.994381   -0.649666
  C      2.990810    0.088223    0.231571
  C      2.177135    1.374592    0.133080
  C      0.729061    1.124566    0.541864
  H     -3.698302    0.031370    0.725217
  H     -4.043061   -0.487215   -0.947206
  H     -4.020019    1.255869   -0.548616
  H      0.058285    0.385055   -1.374977
  H      0.880783   -1.623107    0.777739
  H      0.489030   -2.015933   -0.897144
  H      2.948190   -1.918875   -0.560676
  H      2.410021   -0.675663   -1.693472
  H      3.003536   -0.253710    1.268506
  H      4.021018    0.275968   -0.074684
  H      2.607670    2.140318    0.779927
  H      2.204101    1.744505   -0.893674
  H      0.687575    0.796784    1.583153
  H      0.147649    2.044386    0.451333

----------------------------
CARTESIAN COORDINATES (A.U.)
----------------------------
  NO LB      ZA    FRAG     MASS         X           Y           Z
   0 C     6.0000    0    12.011   -6.774340    0.537361   -0.622589
   1 O     8.0000    0    15.999   -4.147019    0.704510   -1.248893
   2 C     6.0000    0    12.011   -2.468567   -0.388921    0.261620
   3 O     8.0000    0    15.999   -3.031308   -1.545616    2.160096
   4 C     6.0000    0    12.011    0.197655    0.062389   -0.644731
   5 C     6.0000    0    12.011    1.752954   -2.370298   -0.470721
   6 C     6.0000    0    12.011    4.490075   -1.879107   -1.227691
   7 C     6.0000    0    12.011    5.651812    0.166717    0.437607
   8 C     6.0000    0    12.011    4.114189    2.597602    0.251484
   9 C     6.0000    0    12.011    1.377725    2.125122    1.023974
  10 H     1.0000    0     1.008   -6.988778    0.059280    1.370461
  11 H     1.0000    0     1.008   -7.640277   -0.920703   -1.789960
  12 H     1.0000    0     1.008   -7.596735    2.373249   -1.036734
  13 H     1.0000    0     1.008    0.110143    0.727649   -2.598330
  14 H     1.0000    0     1.008    1.664438   -3.067227    1.469714
  15 H     1.0000    0     1.008    0.924132   -3.809562   -1.695357
  16 H     1.0000    0     1.008    5.571271   -3.626147   -1.059525
  17 H     1.0000    0     1.008    4.554279   -1.276818   -3.200199
  18 H     1.0000    0     1.008    5.675861   -0.479442    2.397129
  19 H     1.0000    0     1.008    7.598623    0.521503   -0.141133
  20 H     1.0000    0     1.008    4.927782    4.044615    1.473848
  21 H     1.0000    0     1.008    4.165147    3.296637   -1.688799
  22 H     1.0000    0     1.008    1.299329    1.505704    2.991725
  23 H     1.0000    0     1.008    0.279017    3.863330    0.852896

--------------------------------
INTERNAL COORDINATES (ANGSTROEM)
--------------------------------
 C      0   0   0     0.000000000000     0.00000000     0.00000000
 O      1   0   0     1.432009468825     0.00000000     0.00000000
 C      2   1   0     1.327638443621   118.89894562     0.00000000
 O      3   2   1     1.213517135695   123.64819091     0.31884241
 C      3   2   1     1.509211923645   111.41542193   182.03419990
 C      5   3   2     1.530704225161   110.51518532   223.30555511
 C      6   5   3     1.525104952515   110.57978988   183.57308241
 C      7   6   5     1.525301941385   110.60968559    57.62703710
 C      8   7   6     1.525291264333   110.25951134   302.19308127
 C      9   8   7     1.525299163578   110.54230113    57.99015132
 H      1   2   3     1.090515520924   109.82763444    19.21440853
 H      1   2   3     1.089456977663   108.71586057   258.94140762
 H      1   2   3     1.086855078849   106.67107014   139.76197500
 H      5   3   2     1.093078182349   108.17491992   344.42092138
 H      6   5   3     1.092059855384   108.51273548   304.54651939
 H      6   5   3     1.091973655593   109.56745538    61.97578238
 H      7   6   5     1.090851818831   109.40565246   179.02620855
 H      7   6   5     1.091909633343   109.29181264   297.08991561
 H      8   7   6     1.091931025406   109.33471396    62.46740457
 H      8   7   6     1.091040451075   109.90941057   180.88313499
 H      9   8   7     1.090920381050   110.06855202   178.85519974
 H      9   8   7     1.091689262841   109.47057713   297.49540256
 H     10   9   8     1.092449238169   109.91871296    61.95861020
 H     10   9   8     1.091926558843   110.19420146   181.06080109

---------------------------
INTERNAL COORDINATES (A.U.)
---------------------------
 C      0   0   0     0.000000000000     0.00000000     0.00000000
 O      1   0   0     2.706105717261     0.00000000     0.00000000
 C      2   1   0     2.508873063308   118.89894562     0.00000000
 O      3   2   1     2.293215045284   123.64819091     0.31884241
 C      3   2   1     2.851997213737   111.41542193   182.03419990
 C      5   3   2     2.892611777590   110.51518532   223.30555511
 C      6   5   3     2.882030685740   110.57978988   183.57308241
 C      7   6   5     2.882402940755   110.60968559    57.62703710
 C      8   7   6     2.882382764052   110.25951134   302.19308127
 C      9   8   7     2.882397691461   110.54230113    57.99015132
 H      1   2   3     2.060775679338   109.82763444    19.21440853
 H      1   2   3     2.058775322472   108.71586057   258.94140762
 H      1   2   3     2.053858446286   106.67107014   139.76197500
 H      5   3   2     2.065618407604   108.17491992   344.42092138
 H      6   5   3     2.063694048526   108.51273548   304.54651939
 H      6   5   3     2.063531154528   109.56745538    61.97578238
 H      7   6   5     2.061411190280   109.40565246   179.02620855
 H      7   6   5     2.063410170009   109.29181264   297.08991561
 H      8   7   6     2.063450595150   109.33471396    62.46740457
 H      8   7   6     2.061767653562   109.90941057   180.88313499
 H      9   8   7     2.061540754098   110.06855202   178.85519974
 H      9   8   7     2.062993730111   109.47057713   297.49540256
 H     10   9   8     2.064429875350   109.91871296    61.95861020
 H     10   9   8     2.063442154569   110.19420146   181.06080109

---------------------
BASIS SET INFORMATION
---------------------
There are 3 groups of distinct atoms

 Group   1 Type C   : 11s6p1d contracted to 5s3p1d pattern {62111/411/1}
 Group   2 Type O   : 11s6p2d contracted to 5s3p2d pattern {62111/411/11}
 Group   3 Type H   : 4s1p contracted to 2s1p pattern {31/1}

Atom   0C    basis set group =>   1
Atom   1O    basis set group =>   2
Atom   2C    basis set group =>   1
Atom   3O    basis set group =>   2
Atom   4C    basis set group =>   1
Atom   5C    basis set group =>   1
Atom   6C    basis set group =>   1
Atom   7C    basis set group =>   1
Atom   8C    basis set group =>   1
Atom   9C    basis set group =>   1
Atom  10H    basis set group =>   3
Atom  11H    basis set group =>   3
Atom  12H    basis set group =>   3
Atom  13H    basis set group =>   3
Atom  14H    basis set group =>   3
Atom  15H    basis set group =>   3
Atom  16H    basis set group =>   3
Atom  17H    basis set group =>   3
Atom  18H    basis set group =>   3
Atom  19H    basis set group =>   3
Atom  20H    basis set group =>   3
Atom  21H    basis set group =>   3
Atom  22H    basis set group =>   3
Atom  23H    basis set group =>   3
---------------------------------
AUXILIARY/J BASIS SET INFORMATION
---------------------------------
There are 3 groups of distinct atoms

 Group   1 Type C   : 12s5p4d2f1g contracted to 6s4p3d1f1g pattern {711111/2111/211/2/1}
 Group   2 Type O   : 12s5p4d2f1g contracted to 6s4p3d1f1g pattern {711111/2111/211/2/1}
 Group   3 Type H   : 5s2p1d contracted to 3s1p1d pattern {311/2/1}

Atom   0C    basis set group =>   1
Atom   1O    basis set group =>   2
Atom   2C    basis set group =>   1
Atom   3O    basis set group =>   2
Atom   4C    basis set group =>   1
Atom   5C    basis set group =>   1
Atom   6C    basis set group =>   1
Atom   7C    basis set group =>   1
Atom   8C    basis set group =>   1
Atom   9C    basis set group =>   1
Atom  10H    basis set group =>   3
Atom  11H    basis set group =>   3
Atom  12H    basis set group =>   3
Atom  13H    basis set group =>   3
Atom  14H    basis set group =>   3
Atom  15H    basis set group =>   3
Atom  16H    basis set group =>   3
Atom  17H    basis set group =>   3
Atom  18H    basis set group =>   3
Atom  19H    basis set group =>   3
Atom  20H    basis set group =>   3
Atom  21H    basis set group =>   3
Atom  22H    basis set group =>   3
Atom  23H    basis set group =>   3

Checking for AutoStart:
The File: sp_gas.gbw exists
Trying to determine its content:
     ... Fine, the file contains calculation information
     ... Fine, the calculation information was read
     ... Fine, the file contains a basis set
     ... Fine, the basis set was read
     ... Fine, the file contains a geometry
     ... Fine, the geometry was read
     ... Fine, the file contains a set of orbitals
     ... Fine, the orbitals can be read
     => possible old guess file was deleted
     => GBW file was renamed to GES file
     => GES file is set as startup file
     => Guess is set to MORead
     ... now leaving AutoStart

------------------------------------------------------------------------------
                             ORCA STARTUP CALCULATIONS
                           -- RI-GTO INTEGRALS CHOSEN --
------------------------------------------------------------------------------
------------------------------------------------------------------------------
                   ___                                                        
                  /   \      - P O W E R E D   B Y -                         
                 /     \                                                     
                 |  |  |   _    _      __       _____    __    __             
                 |  |  |  | |  | |    /  \     |  _  \  |  |  /  |          
                  \  \/   | |  | |   /    \    | | | |  |  | /  /          
                 / \  \   | |__| |  /  /\  \   | |_| |  |  |/  /          
                |  |  |   |  __  | /  /__\  \  |    /   |      \           
                |  |  |   | |  | | |   __   |  |    \   |  |\   \          
                \     /   | |  | | |  |  |  |  | |\  \  |  | \   \       
                 \___/    |_|  |_| |__|  |__|  |_| \__\ |__|  \__/        
                                                                              
                      - O R C A' S   B I G   F R I E N D -                    
                                      &                                       
                       - I N T E G R A L  F E E D E R -                       
                                                                              
 v1 FN, 2020, v2 2021, v3 2022-2024                                           
------------------------------------------------------------------------------


----------------------
SHARK INTEGRAL PACKAGE
----------------------

Number of atoms                             ...     24
Number of basis functions                   ...    270
Number of shells                            ...    134
Maximum angular momentum                    ...      2
Integral batch strategy                     ... SHARK/LIBINT Hybrid
RI-J (if used) integral strategy            ... SPLIT-RIJ (Revised 2003 algorithm where possible)
Printlevel                                  ...      1
Contraction scheme used                     ... SEGMENTED contraction
Prescreening option                         ... SCHWARTZ
   Thresh                                   ... 1.000e-10
   Tcut                                     ... 1.000e-11
   Tpresel                                  ... 1.000e-11 
Coulomb Range Separation                    ... NOT USED
Exchange Range Separation                   ... NOT USED
Multipole approximations                    ... NOT USED
Finite Nucleus Model                        ... NOT USED
CABS basis                                  ... NOT available
Auxiliary Coulomb fitting basis             ... AVAILABLE
   # of basis functions in Aux-J            ...    644
   # of shells in Aux-J                     ...    220
   Maximum angular momentum in Aux-J        ...      4
Auxiliary J/K fitting basis                 ... NOT available
Auxiliary Correlation fitting basis         ... NOT available
Auxiliary 'external' fitting basis          ... NOT available

Checking pre-screening integrals            ... done (  0.0 sec) Dimension = 134
Check shell pair data                       ... done (  0.0 sec)
Shell pair information
Shell pair cut-off parameter TPreSel        ...   1.0e-11
Total number of shell pairs                 ...      9045
Shell pairs after pre-screening             ...      7734
Total number of primitive shell pairs       ...     32140
Primitive shell pairs kept                  ...     19097
          la=0 lb=0:   2577 shell pairs
          la=1 lb=0:   2949 shell pairs
          la=1 lb=1:    866 shell pairs
          la=2 lb=0:    809 shell pairs
          la=2 lb=1:    465 shell pairs
          la=2 lb=2:     68 shell pairs

Calculating one electron integrals          ... done (  0.0 sec)
Calculating RI/J V-Matrix + Cholesky decomp.... done (  0.1 sec)
Calculating Nuclear repulsion               ... done (  0.0 sec) ENN=    564.986526936104 Eh

Diagonalization of the overlap matrix:
Smallest eigenvalue                        ... 7.187e-05
Time for diagonalization                   ...    0.007 sec
Threshold for overlap eigenvalues          ... 1.000e-07
Number of eigenvalues below threshold      ... 0
Time for construction of square roots      ...    0.020 sec
Total time needed                          ...    0.038 sec

-------------------
DFT GRID GENERATION
-------------------

General Integration Accuracy     IntAcc      ... 4.388
Radial Grid Type                 RadialGrid  ... OptM3 with GC (2021)
Angular Grid (max. ang.)         AngularGrid ... 4 (Lebedev-302)
Angular grid pruning method      GridPruning ... 4 (adaptive)
Weight generation scheme         WeightScheme... mBecke (2022)
Basis function cutoff            BFCut       ... 1.0000e-10
Integration weight cutoff        WCut        ... 1.0000e-14
Partially contracted basis set               ... off
Rotationally invariant grid construction     ... off
Angular grids for H and He will be reduced by one unit
Diffuse basis detected: some atoms will have their outermost
                        angular grid increased by 1.

Total number of grid points                  ...   105136
Total number of batches                      ...     1656
Average number of points per batch           ...       63
Average number of grid points per atom       ...     4381
Initializing property integral containers    ... done (  0.0 sec)

SHARK setup successfully completed in   1.5 seconds

Maximum memory used throughout the entire STARTUP-calculation: 48.9 MB
-------------------------------------------------------------------------------
                                 ORCA GUESS
                   Start orbitals & Density for SCF / CASSCF
-------------------------------------------------------------------------------

------------
SCF SETTINGS
------------
Hamiltonian:
 Density Functional     Method          .... DFT(GTOs)
  Functional kind                       .... Exchange
  Functional name                       .... Re-regularized SCAN exchange by Furness et al
  Functional family                     .... MGGA
  Functional refs                              
    [ 0] J. W. Furness, A. D. Kaplan, J. Ning, J. P. Perdew, and J. Sun.,  J. Phys. Chem. Lett. 11, 8208-8215 (2020), doi: 10.1021/acs.jpclett.0c02405
    [ 1] J. W. Furness, A. D. Kaplan, J. Ning, J. P. Perdew, and J. Sun.,  J. Phys. Chem. Lett. 11, 9248-9248 (2020), doi: 10.1021/acs.jpclett.0c03077
  Functional external parameters        .... 6
    Parameter  0 _c1        =  6.670000e-01 : c1 parameter        
    Parameter  1 _c2        =  8.000000e-01 : c2 parameter        
    Parameter  2 _d         =  1.240000e+00 : d parameter         
    Parameter  3 _k1        =  6.500000e-02 : k1 parameter        
    Parameter  4 _eta       =  1.000000e-03 : eta parameter       
    Parameter  5 _dp2       =  3.610000e-01 : dp2 parameter       
  Functional kind                       .... Correlation
  Functional name                       .... Re-regularized SCAN correlation by Furness et al
  Functional family                     .... MGGA
  Functional refs                              
    [ 0] J. W. Furness, A. D. Kaplan, J. Ning, J. P. Perdew, and J. Sun.,  J. Phys. Chem. Lett. 11, 8208-8215 (2020), doi: 10.1021/acs.jpclett.0c02405
    [ 1] J. W. Furness, A. D. Kaplan, J. Ning, J. P. Perdew, and J. Sun.,  J. Phys. Chem. Lett. 11, 9248-9248 (2020), doi: 10.1021/acs.jpclett.0c03077
  Functional external parameters        .... 1
    Parameter  0 _eta       =  1.000000e-03 : Regularization parameter
 Gradients option       PostSCFGGA      .... off
 RI-approximation to the Coulomb term is turned on
   Number of AuxJ basis functions       .... 644


General Settings:
 Integral files         IntName         .... sp_gas
 Hartree-Fock type      HFTyp           .... RHF
 Total Charge           Charge          ....    0
 Multiplicity           Mult            ....    1
 Number of Electrons    NEL             ....   78
 Basis Dimension        Dim             ....  270
 Nuclear Repulsion      ENuc            ....    564.9865269361 Eh

Convergence Acceleration:
 AO-DIIS                CNVDIIS         .... on
   Start iteration      DIISMaxIt       ....    12
   Startup error        DIISStart       ....  0.200000
   # of expansion vecs  DIISMaxEq       ....     5
   Bias factor          DIISBfac        ....   1.050
   Max. coefficient     DIISMaxC        ....  10.000
 MO-DIIS                CNVKDIIS        .... off
 Trust-Rad. Augm. Hess. CNVTRAH         .... auto
   Auto Start mean grad. ratio tolernc. ....  1.125000
   Auto Start start iteration           ....     1
   Auto Start num. interpolation iter.  ....    10
   Max. Number of Micro iterations      ....    24
   Max. Number of Macro iterations      .... Maxiter - #DIIS iter
   Number of Davidson start vectors     ....     2
   Converg. threshold    (grad. norm)   ....   3.330e-04
   Grad. Scal. Fac. for Micro threshold ....   0.100
   Minimum threshold for Micro iter.    ....   1.000e-02
   NR start threshold (gradient norm)   ....   1.000e-04
   Initial trust radius                 ....   0.400
   Minimum AH scaling param. (alpha)    ....   1.000
   Maximum AH scaling param. (alpha)    .... 1000.000
   Quad. conv. algorithm                .... NR
   White noise on init. David. guess    .... on
   Maximum white noise                  ....   0.010
   Pseudo random numbers                .... off
   Inactive MOs                         .... canonical
   Orbital update algorithm             .... Taylor
   Preconditioner                       .... Diag
   Full preconditioner red. dimension   ....   250
   COSX micro iterations for RIJONX calc.... off
 SOSCF                  CNVSOSCF        .... on
   Start iteration      SOSCFMaxIt      ....   150
   Startup grad/error   SOSCFStart      ....  0.003300
   Hessian update       SOSCFHessUp     .... L-BFGS
 Level Shifting         CNVShift        .... on
   Level shift para.    LevelShift      ....    0.2500
   Turn off err/grad.   ShiftErr        ....    0.0010
 Zerner damping         CNVZerner       .... off
 Static damping         CNVDamp         .... on
   Fraction old density DampFac         ....    0.7000
   Max. Damping (<1)    DampMax         ....    0.9800
   Min. Damping (>=0)   DampMin         ....    0.0000
   Turn off err/grad.   DampErr         ....    0.1000

SCF Procedure:
 Maximum # iterations   MaxIter         ....   125
 SCF integral mode      SCFMode         .... Direct
   Integral package                     .... SHARK and LIBINT hybrid scheme
 Reset frequency        DirectResetFreq ....    20
 Integral Threshold     Thresh          ....  1.000e-10 Eh
 Primitive CutOff       TCut            ....  1.000e-11 Eh

Convergence Tolerance:
 Convergence Check Mode ConvCheckMode   .... Total+1el-Energy
 Convergence forced     ConvForced      .... 0
 Energy Change          TolE            ....  1.000e-06 Eh
 1-El. energy change                    ....  1.000e-03 Eh
 Orbital Gradient       TolG            ....  3.330e-04
 Orbital Rotation angle TolX            ....  3.330e-04
 DIIS Error             TolErr          ....  1.000e-06

---------------------
INITIAL GUESS: MOREAD
---------------------
Guess MOs are being read from file: sp_gas.ges
Input Geometry matches current geometry (good)
Atom 0: N(Shells)= 9 and 6 - projection required
Input basis set needs projection
NBasis(read)= 168
NBasis(calc)= 270
Basis set overlap was calculated
Using GuessMode=FMatrix for the initial guess
C*T matrix was formed
Effective Fockian was calculated
Effective Fockian was diagonalized
Initial density was built
                      ------------------
                      INITIAL GUESS DONE (   0.0 sec)
                      ------------------
             **** ENERGY FILE WAS UPDATED (sp_gas.en.tmp) ****
Finished Guess after   0.3 sec
Maximum memory used throughout the entire GUESS-calculation: 20.5 MB

-------------------------------------------------------------------------------------------
                                      ORCA LEAN-SCF
                              memory conserving SCF solver
-------------------------------------------------------------------------------------------

----------------------------------------D-I-I-S--------------------------------------------
Iteration    Energy (Eh)           Delta-E    RMSDP     MaxDP     DIISErr   Damp  Time(sec)
-------------------------------------------------------------------------------------------
               ***  Starting incremental Fock matrix formation  ***
    1    -463.4097362219565639     0.00e+00  7.31e-03  3.53e-01  6.26e-01  0.700   3.7
    2    -463.4786187001109283    -6.89e-02  5.45e-03  2.43e-01  4.40e-01  0.700   3.3
    3    -463.5272636684881036    -4.86e-02  3.87e-03  1.68e-01  3.08e-01  0.700   3.2
    4    -463.5613989923808731    -3.41e-02  2.73e-03  1.17e-01  2.16e-01  0.700   3.2
                               ***Turning on AO-DIIS***
    5    -463.5853342200862244    -2.39e-02  1.93e-03  8.15e-02  1.51e-01  0.700   3.1
    6    -463.6021083106829792    -1.68e-02  1.36e-03  5.69e-02  1.06e-01  0.700   3.0
    7    -463.6138643085300828    -1.18e-02  9.55e-04  3.98e-02  7.40e-02  0.700   3.0
    8    -463.6220996696872589    -8.24e-03  2.23e-03  9.27e-02  5.19e-02  0.000   2.9
                              *** Initializing SOSCF ***
---------------------------------------S-O-S-C-F--------------------------------------
Iteration    Energy (Eh)           Delta-E    RMSDP     MaxDP     MaxGrad    Time(sec)
--------------------------------------------------------------------------------------
    9    -463.6413368681521661    -1.92e-02  7.65e-06  3.93e-04  7.57e-05     3.1
                  *** Gradient check signals convergence ***

               *****************************************************
               *                     SUCCESS                       *
               *           SCF CONVERGED AFTER   9 CYCLES          *
               *****************************************************

             **** ENERGY FILE WAS UPDATED (sp_gas.en.tmp) ****

----------------
TOTAL SCF ENERGY
----------------

Total Energy       :       -463.64133686815217 Eh          -12616.32218 eV

Components:
Nuclear Repulsion  :        564.98652693610438 Eh           15374.06500 eV
Electronic Energy  :      -1028.62786380425655 Eh          -27990.38718 eV
One Electron Energy:      -1749.73122372666626 Eh          -47612.60718 eV
Two Electron Energy:        721.10335992240971 Eh           19622.22000 eV

Virial components:
Potential Energy   :       -925.35587796012669 Eh          -25180.21358 eV
Kinetic Energy     :        461.71454109197447 Eh           12563.89140 eV
Virial Ratio       :          2.00417313210804

DFT components:
N(Alpha)           :       39.000042305623 electrons
N(Beta)            :       39.000042305623 electrons
N(Total)           :       78.000084611246 electrons
E(X)               :      -63.248371139993 Eh       
E(C)               :       -2.504220990066 Eh       
E(XC)              :      -65.752592130059 Eh       

---------------
SCF CONVERGENCE
---------------

  Last Energy change         ...    1.9237e-02  Tolerance :   1.0000e-06
  Last MAX-Density change    ...    3.9347e-04  Tolerance :   1.0000e-05
  Last RMS-Density change    ...    7.6528e-06  Tolerance :   1.0000e-06
  Last DIIS Error            ...    7.5739e-05  Tolerance :   1.0000e-06
  Last Orbital Gradient      ...    7.5739e-05  Tolerance :   3.3300e-04
  Last Orbital Rotation      ...    7.5739e-05  Tolerance :   3.3300e-04


----------------
ORBITAL ENERGIES
----------------

  NO   OCC          E(Eh)            E(eV) 
   0   2.0000     -18.998128      -516.9653 
   1   2.0000     -18.926997      -515.0298 
   2   2.0000     -10.148555      -276.1562 
   3   2.0000     -10.084090      -274.4020 
   4   2.0000     -10.043929      -273.3092 
   5   2.0000     -10.032024      -272.9853 
   6   2.0000     -10.027100      -272.8513 
   7   2.0000     -10.026607      -272.8379 
   8   2.0000     -10.025326      -272.8030 
   9   2.0000     -10.024295      -272.7749 
  10   2.0000      -1.070883       -29.1402 
  11   2.0000      -0.974841       -26.5268 
  12   2.0000      -0.808878       -22.0107 
  13   2.0000      -0.736651       -20.0453 
  14   2.0000      -0.712659       -19.3924 
  15   2.0000      -0.691260       -18.8101 
  16   2.0000      -0.594535       -16.1781 
  17   2.0000      -0.579776       -15.7765 
  18   2.0000      -0.537003       -14.6126 
  19   2.0000      -0.517409       -14.0794 
  20   2.0000      -0.476410       -12.9638 
  21   2.0000      -0.450441       -12.2571 
  22   2.0000      -0.444666       -12.1000 
  23   2.0000      -0.434479       -11.8228 
  24   2.0000      -0.411620       -11.2007 
  25   2.0000      -0.409017       -11.1299 
  26   2.0000      -0.397841       -10.8258 
  27   2.0000      -0.378076       -10.2880 
  28   2.0000      -0.358736        -9.7617 
  29   2.0000      -0.351215        -9.5570 
  30   2.0000      -0.333887        -9.0855 
  31   2.0000      -0.320196        -8.7130 
  32   2.0000      -0.318753        -8.6737 
  33   2.0000      -0.315483        -8.5847 
  34   2.0000      -0.294306        -8.0085 
  35   2.0000      -0.279250        -7.5988 
  36   2.0000      -0.272927        -7.4267 
  37   2.0000      -0.269160        -7.3242 
  38   2.0000      -0.233704        -6.3594 
  39   0.0000      -0.012546        -0.3414 
  40   0.0000       0.064943         1.7672 
  41   0.0000       0.091175         2.4810 
  42   0.0000       0.099276         2.7014 
  43   0.0000       0.108576         2.9545 
  44   0.0000       0.118111         3.2140 
  45   0.0000       0.124569         3.3897 
  46   0.0000       0.134588         3.6623 
  47   0.0000       0.134917         3.6713 
  48   0.0000       0.143756         3.9118 
  49   0.0000       0.154474         4.2035 
*Only the first 10 virtual orbitals were printed.

                    ********************************
                    * MULLIKEN POPULATION ANALYSIS *
                    ********************************

-----------------------
MULLIKEN ATOMIC CHARGES
-----------------------
   0 C :   -0.304982
   1 O :   -0.193857
   2 C :    0.380609
   3 O :   -0.445806
   4 C :   -0.097231
   5 C :   -0.351819
   6 C :   -0.267310
   7 C :   -0.294878
   8 C :   -0.273779
   9 C :   -0.341157
  10 H :    0.185321
  11 H :    0.149581
  12 H :    0.148077
  13 H :    0.182400
  14 H :    0.178854
  15 H :    0.145042
  16 H :    0.148015
  17 H :    0.144163
  18 H :    0.146103
  19 H :    0.148597
  20 H :    0.148010
  21 H :    0.146176
  22 H :    0.174300
  23 H :    0.145570
Sum of atomic charges:   -0.0000000

--------------------------------
MULLIKEN REDUCED ORBITAL CHARGES
--------------------------------
  0 C s       :     3.321546  s :     3.321546
      pz      :     1.119252  p :     2.940760
      px      :     0.718412
      py      :     1.103096
      dz2     :     0.008161  d :     0.042675
      dxz     :     0.008576
      dyz     :     0.003638
      dx2y2   :     0.011152
      dxy     :     0.011149

  1 O s       :     3.701140  s :     3.701140
      pz      :     1.642882  p :     4.467560
      px      :     1.139957
      py      :     1.684720
      dz2     :     0.007870  d :     0.025157
      dxz     :    -0.000819
      dyz     :     0.007360
      dx2y2   :     0.003946
      dxy     :     0.006801

  2 C s       :     3.148543  s :     3.148543
      pz      :     0.765893  p :     2.345942
      px      :     0.837011
      py      :     0.743038
      dz2     :     0.028889  d :     0.124906
      dxz     :     0.038573
      dyz     :     0.019113
      dx2y2   :     0.017654
      dxy     :     0.020678

  3 O s       :     3.841760  s :     3.841760
      pz      :     1.360649  p :     4.582553
      px      :     1.789698
      py      :     1.432207
      dz2     :     0.008940  d :     0.021492
      dxz     :     0.001353
      dyz     :     0.007500
      dx2y2   :     0.001898
      dxy     :     0.001802

  4 C s       :     3.071205  s :     3.071205
      pz      :     1.053168  p :     2.981336
      px      :     0.960328
      py      :     0.967840
      dz2     :     0.009918  d :     0.044690
      dxz     :     0.005884
      dyz     :     0.008520
      dx2y2   :     0.011629
      dxy     :     0.008739

  5 C s       :     3.262216  s :     3.262216
      pz      :     1.116436  p :     3.052952
      px      :     0.952793
      py      :     0.983722
      dz2     :     0.007493  d :     0.036651
      dxz     :     0.005089
      dyz     :     0.006917
      dx2y2   :     0.007672
      dxy     :     0.009480

  6 C s       :     3.204990  s :     3.204990
      pz      :     1.000344  p :     3.025179
      px      :     0.955359
      py      :     1.069475
      dz2     :     0.009932  d :     0.037142
      dxz     :     0.005042
      dyz     :     0.005381
      dx2y2   :     0.007586
      dxy     :     0.009199

  7 C s       :     3.242057  s :     3.242057
      pz      :     1.018987  p :     3.015785
      px      :     1.071513
      py      :     0.925285
      dz2     :     0.009123  d :     0.037036
      dxz     :     0.003368
      dyz     :     0.007693
      dx2y2   :     0.009013
      dxy     :     0.007838

  8 C s       :     3.216233  s :     3.216233
      pz      :     1.090375  p :     3.020415
      px      :     0.930435
      py      :     0.999605
      dz2     :     0.007439  d :     0.037131
      dxz     :     0.004960
      dyz     :     0.007310
      dx2y2   :     0.008457
      dxy     :     0.008965

  9 C s       :     3.246204  s :     3.246204
      pz      :     1.008392  p :     3.058026
      px      :     0.979919
      py      :     1.069716
      dz2     :     0.009527  d :     0.036927
      dxz     :     0.005191
      dyz     :     0.005467
      dx2y2   :     0.007170
      dxy     :     0.009572

 10 H s       :     0.796133  s :     0.796133
      pz      :     0.011834  p :     0.018545
      px      :     0.002542
      py      :     0.004170

 11 H s       :     0.832714  s :     0.832714
      pz      :     0.006037  p :     0.017705
      px      :     0.003973
      py      :     0.007695

 12 H s       :     0.834175  s :     0.834175
      pz      :     0.003971  p :     0.017748
      px      :     0.003829
      py      :     0.009949

 13 H s       :     0.800193  s :     0.800193
      pz      :     0.010332  p :     0.017407
      px      :     0.003008
      py      :     0.004068

 14 H s       :     0.803328  s :     0.803328
      pz      :     0.010263  p :     0.017818
      px      :     0.003389
      py      :     0.004166

 15 H s       :     0.837080  s :     0.837080
      pz      :     0.006007  p :     0.017878
      px      :     0.004636
      py      :     0.007234

 16 H s       :     0.834088  s :     0.834088
      pz      :     0.003525  p :     0.017897
      px      :     0.005560
      py      :     0.008812

 17 H s       :     0.838070  s :     0.838070
      pz      :     0.010257  p :     0.017767
      px      :     0.003466
      py      :     0.004044

 18 H s       :     0.836115  s :     0.836115
      pz      :     0.010211  p :     0.017782
      px      :     0.003373
      py      :     0.004198

 19 H s       :     0.833521  s :     0.833521
      pz      :     0.004026  p :     0.017882
      px      :     0.010132
      py      :     0.003724

 20 H s       :     0.834090  s :     0.834090
      pz      :     0.006000  p :     0.017900
      px      :     0.004687
      py      :     0.007213

 21 H s       :     0.836064  s :     0.836064
      pz      :     0.010044  p :     0.017760
      px      :     0.003452
      py      :     0.004265

 22 H s       :     0.808029  s :     0.808029
      pz      :     0.010286  p :     0.017671
      px      :     0.003346
      py      :     0.004039

 23 H s       :     0.836602  s :     0.836602
      pz      :     0.003496  p :     0.017828
      px      :     0.005568
      py      :     0.008764


------------------------
MULLIKEN OVERLAP CHARGES
------------------------
B(  0-C ,  1-O ) :   0.3516 B(  0-C ,  2-C ) :  -0.2195 B(  0-C , 10-H ) :   0.8521 
B(  0-C , 11-H ) :   0.7934 B(  0-C , 12-H ) :   0.7933 B(  1-O ,  2-C ) :   0.3943 
B(  1-O ,  3-O ) :  -0.2192 B(  1-O ,  4-C ) :  -0.0755 B(  1-O , 10-H ) :  -0.0555 
B(  1-O , 11-H ) :  -0.0744 B(  1-O , 12-H ) :  -0.0848 B(  2-C ,  3-O ) :   0.9584 
B(  2-C ,  4-C ) :   0.3153 B(  2-C ,  5-C ) :  -0.0595 B(  2-C , 10-H ) :  -0.0543 
B(  2-C , 13-H ) :  -0.0875 B(  3-O ,  4-C ) :  -0.2225 B(  4-C ,  5-C ) :   0.3167 
B(  4-C ,  6-C ) :  -0.1767 B(  4-C ,  7-C ) :   0.1149 B(  4-C ,  8-C ) :  -0.1895 
B(  4-C ,  9-C ) :   0.3819 B(  4-C , 13-H ) :   0.8574 B(  4-C , 14-H ) :  -0.1150 
B(  4-C , 22-H ) :  -0.1154 B(  5-C ,  6-C ) :   0.2646 B(  5-C ,  7-C ) :  -0.2741 
B(  5-C ,  8-C ) :   0.1562 B(  5-C ,  9-C ) :  -0.3187 B(  5-C , 13-H ) :  -0.0663 
B(  5-C , 14-H ) :   0.8888 B(  5-C , 15-H ) :   0.6978 B(  5-C , 17-H ) :  -0.0823 
B(  6-C ,  7-C ) :   0.4980 B(  6-C ,  8-C ) :  -0.3919 B(  6-C ,  9-C ) :   0.1531 
B(  6-C , 14-H ) :  -0.0936 B(  6-C , 16-H ) :   0.7214 B(  6-C , 17-H ) :   0.8654 
B(  6-C , 18-H ) :  -0.1138 B(  7-C ,  8-C ) :   0.5273 B(  7-C ,  9-C ) :  -0.3010 
B(  7-C , 17-H ) :  -0.1060 B(  7-C , 18-H ) :   0.8835 B(  7-C , 19-H ) :   0.7404 
B(  7-C , 21-H ) :  -0.1081 B(  8-C ,  9-C ) :   0.2562 B(  8-C , 18-H ) :  -0.1062 
B(  8-C , 20-H ) :   0.7163 B(  8-C , 21-H ) :   0.8819 B(  8-C , 22-H ) :  -0.0786 
B(  9-C , 21-H ) :  -0.0968 B(  9-C , 22-H ) :   0.8976 B(  9-C , 23-H ) :   0.6758 



                     *******************************
                     * LOEWDIN POPULATION ANALYSIS *
                     *******************************

----------------------
LOEWDIN ATOMIC CHARGES
----------------------
   0 C :   -0.046557
   1 O :   -0.600070
   2 C :    0.363173
   3 O :   -0.440523
   4 C :   -0.155268
   5 C :   -0.272857
   6 C :   -0.300290
   7 C :   -0.303297
   8 C :   -0.299361
   9 C :   -0.267617
  10 H :    0.190750
  11 H :    0.172404
  12 H :    0.174260
  13 H :    0.181885
  14 H :    0.173206
  15 H :    0.162172
  16 H :    0.156941
  17 H :    0.155052
  18 H :    0.156326
  19 H :    0.155273
  20 H :    0.157084
  21 H :    0.155678
  22 H :    0.169144
  23 H :    0.162493

-------------------------------
LOEWDIN REDUCED ORBITAL CHARGES
-------------------------------
  0 C s       :     2.906488  s :     2.906488
      pz      :     1.110602  p :     3.037187
      px      :     0.817920
      py      :     1.108665
      dz2     :     0.020820  d :     0.102881
      dxz     :     0.020158
      dyz     :     0.008766
      dx2y2   :     0.025948
      dxy     :     0.027188

  1 O s       :     3.467505  s :     3.467505
      pz      :     1.649491  p :     4.664142
      px      :     1.336195
      py      :     1.678456
      dz2     :     0.078270  d :     0.468423
      dxz     :     0.120239
      dyz     :     0.041113
      dx2y2   :     0.112832
      dxy     :     0.115968

  2 C s       :     2.733225  s :     2.733225
      pz      :     0.897407  p :     2.631597
      px      :     0.952555
      py      :     0.781634
      dz2     :     0.059716  d :     0.272005
      dxz     :     0.085549
      dyz     :     0.048041
      dx2y2   :     0.035612
      dxy     :     0.043087

  3 O s       :     3.546610  s :     3.546610
      pz      :     1.474987  p :     4.668844
      px      :     1.735609
      py      :     1.458248
      dz2     :     0.054609  d :     0.225069
      dxz     :     0.056509
      dyz     :     0.056277
      dx2y2   :     0.027245
      dxy     :     0.030429

  4 C s       :     2.888316  s :     2.888316
      pz      :     1.099195  p :     3.176543
      px      :     1.002585
      py      :     1.074762
      dz2     :     0.021703  d :     0.090410
      dxz     :     0.011203
      dyz     :     0.017260
      dx2y2   :     0.021833
      dxy     :     0.018411

  5 C s       :     2.923727  s :     2.923727
      pz      :     1.145630  p :     3.269328
      px      :     1.052562
      py      :     1.071136
      dz2     :     0.017129  d :     0.079803
      dxz     :     0.010000
      dyz     :     0.015399
      dx2y2   :     0.016745
      dxy     :     0.020530

  6 C s       :     2.929657  s :     2.929657
      pz      :     1.113197  p :     3.289914
      px      :     1.070329
      py      :     1.106388
      dz2     :     0.022388  d :     0.080719
      dxz     :     0.010035
      dyz     :     0.012099
      dx2y2   :     0.016142
      dxy     :     0.020054

  7 C s       :     2.931515  s :     2.931515
      pz      :     1.120924  p :     3.291317
      px      :     1.103533
      py      :     1.066859
      dz2     :     0.020712  d :     0.080465
      dxz     :     0.006917
      dyz     :     0.016580
      dx2y2   :     0.019231
      dxy     :     0.017024

  8 C s       :     2.930434  s :     2.930434
      pz      :     1.137183  p :     3.288238
      px      :     1.062057
      py      :     1.088998
      dz2     :     0.017404  d :     0.080688
      dxz     :     0.009949
      dyz     :     0.016166
      dx2y2   :     0.017880
      dxy     :     0.019289

  9 C s       :     2.925017  s :     2.925017
      pz      :     1.110846  p :     3.262467
      px      :     1.063157
      py      :     1.088464
      dz2     :     0.021375  d :     0.080133
      dxz     :     0.010257
      dyz     :     0.012220
      dx2y2   :     0.015597
      dxy     :     0.020684

 10 H s       :     0.764472  s :     0.764472
      pz      :     0.029516  p :     0.044778
      px      :     0.005951
      py      :     0.009311

 11 H s       :     0.786953  s :     0.786953
      pz      :     0.014553  p :     0.040643
      px      :     0.008064
      py      :     0.018026

 12 H s       :     0.785386  s :     0.785386
      pz      :     0.009072  p :     0.040354
      px      :     0.007280
      py      :     0.024003

 13 H s       :     0.774051  s :     0.774051
      pz      :     0.026103  p :     0.044064
      px      :     0.007431
      py      :     0.010530

 14 H s       :     0.782573  s :     0.782573
      pz      :     0.026282  p :     0.044221
      px      :     0.007918
      py      :     0.010020

 15 H s       :     0.794428  s :     0.794428
      pz      :     0.014607  p :     0.043400
      px      :     0.011367
      py      :     0.017426

 16 H s       :     0.799599  s :     0.799599
      pz      :     0.008148  p :     0.043460
      px      :     0.013455
      py      :     0.021857

 17 H s       :     0.801699  s :     0.801699
      pz      :     0.025434  p :     0.043249
      px      :     0.008168
      py      :     0.009647

 18 H s       :     0.800379  s :     0.800379
      pz      :     0.025341  p :     0.043295
      px      :     0.007914
      py      :     0.010041

 19 H s       :     0.801285  s :     0.801285
      pz      :     0.009504  p :     0.043442
      px      :     0.025008
      py      :     0.008931

 20 H s       :     0.799412  s :     0.799412
      pz      :     0.014643  p :     0.043504
      px      :     0.011275
      py      :     0.017586

 21 H s       :     0.801061  s :     0.801061
      pz      :     0.024904  p :     0.043262
      px      :     0.008099
      py      :     0.010258

 22 H s       :     0.786969  s :     0.786969
      pz      :     0.026344  p :     0.043888
      px      :     0.007938
      py      :     0.009605

 23 H s       :     0.793869  s :     0.793869
      pz      :     0.008080  p :     0.043638
      px      :     0.013798
      py      :     0.021760


---------------------------------
LOEWDIN BOND ORDERS (THRESH 0.050000)
---------------------------------
B(  0-C ,  1-O ) :   1.3487 B(  0-C ,  2-C ) :   0.0870 B(  0-C ,  3-O ) :   0.0732 
B(  0-C , 10-H ) :   0.8436 B(  0-C , 11-H ) :   0.8663 B(  0-C , 12-H ) :   0.8674 
B(  1-O ,  2-C ) :   1.4551 B(  1-O ,  3-O ) :   0.4602 B(  1-O ,  4-C ) :   0.1879 
B(  1-O , 10-H ) :   0.0945 B(  1-O , 11-H ) :   0.1000 B(  1-O , 12-H ) :   0.0999 
B(  2-C ,  3-O ) :   2.1595 B(  2-C ,  4-C ) :   0.8789 B(  2-C ,  5-C ) :   0.0746 
B(  2-C ,  9-C ) :   0.0818 B(  3-O ,  4-C ) :   0.1742 B(  4-C ,  5-C ) :   1.0459 
B(  4-C ,  6-C ) :   0.0661 B(  4-C ,  8-C ) :   0.0649 B(  4-C ,  9-C ) :   1.0365 
B(  4-C , 13-H ) :   0.8296 B(  5-C ,  6-C ) :   1.1004 B(  5-C ,  7-C ) :   0.0621 
B(  5-C ,  9-C ) :   0.0584 B(  5-C , 14-H ) :   0.8725 B(  5-C , 15-H ) :   0.8830 
B(  6-C ,  7-C ) :   1.1044 B(  6-C ,  8-C ) :   0.0626 B(  6-C , 16-H ) :   0.8893 
B(  6-C , 17-H ) :   0.8872 B(  7-C ,  8-C ) :   1.1045 B(  7-C ,  9-C ) :   0.0622 
B(  7-C , 18-H ) :   0.8893 B(  7-C , 19-H ) :   0.8924 B(  8-C ,  9-C ) :   1.0996 
B(  8-C , 20-H ) :   0.8888 B(  8-C , 21-H ) :   0.8876 B(  9-C , 22-H ) :   0.8762 
B(  9-C , 23-H ) :   0.8825 

------------------------------------------
LOEWDIN REDUCED ORBITAL POPULATIONS PER MO
-------------------------------------------
THRESHOLD FOR PRINTING IS 0.1%%
                      0         1         2         3         4         5   
                 -18.99813 -18.92700 -10.14855 -10.08409 -10.04393 -10.03202
                   2.00000   2.00000   2.00000   2.00000   2.00000   2.00000
                  --------  --------  --------  --------  --------  --------
 0 C  s               0.0       0.0       0.0      99.4       0.0       0.0
 1 O  s              99.9       0.0       0.0       0.0       0.0       0.0
 1 O  px              0.0       0.0       0.1       0.1       0.0       0.0
 1 O  dxz             0.0       0.0       0.1       0.0       0.0       0.0
 1 O  dx2y2           0.0       0.0       0.0       0.2       0.0       0.0
 2 C  s               0.0       0.0      98.9       0.0       0.0       0.0
 3 O  s               0.0      99.9       0.0       0.0       0.0       0.0
 3 O  pz              0.0       0.0       0.1       0.0       0.0       0.0
 3 O  dyz             0.0       0.0       0.2       0.0       0.0       0.0
 4 C  s               0.0       0.0       0.0       0.0      99.6       0.0
 9 C  s               0.0       0.0       0.0       0.0       0.0      99.7

                      6         7         8         9        10        11   
                 -10.02710 -10.02661 -10.02533 -10.02429  -1.07088  -0.97484
                   2.00000   2.00000   2.00000   2.00000   2.00000   2.00000
                  --------  --------  --------  --------  --------  --------
 0 C  s               0.0       0.0       0.0       0.0       4.5       1.8
 0 C  pz              0.0       0.0       0.0       0.0       0.1       0.3
 0 C  px              0.0       0.0       0.0       0.0       5.4       1.4
 0 C  dx2y2           0.0       0.0       0.0       0.0       0.3       0.1
 1 O  s               0.0       0.0       0.0       0.0      42.7      16.0
 1 O  pz              0.0       0.0       0.0       0.0       2.0       0.3
 1 O  px              0.0       0.0       0.0       0.0       0.0       0.6
 1 O  py              0.0       0.0       0.0       0.0       0.8       0.2
 1 O  dz2             0.0       0.0       0.0       0.0       0.0       0.3
 1 O  dxz             0.0       0.0       0.0       0.0       0.2       0.3
 1 O  dyz             0.0       0.0       0.0       0.0       0.3       0.5
 1 O  dx2y2           0.0       0.0       0.0       0.0       0.1       0.2
 1 O  dxy             0.0       0.0       0.0       0.0       0.1       0.1
 2 C  s               0.0       0.0       0.0       0.0      16.1       4.2
 2 C  pz              0.0       0.0       0.0       0.0       0.1      16.1
 2 C  px              0.0       0.0       0.0       0.0       4.8       0.4
 2 C  py              0.0       0.0       0.0       0.0       0.2       6.7
 2 C  dz2             0.0       0.0       0.0       0.0       0.1       0.4
 2 C  dxz             0.0       0.0       0.0       0.0       0.2       0.7
 2 C  dyz             0.0       0.0       0.0       0.0       0.7       0.4
 2 C  dx2y2           0.0       0.0       0.0       0.0       0.0       0.1
 2 C  dxy             0.0       0.0       0.0       0.0       0.1       0.3
 3 O  s               0.0       0.0       0.0       0.0      11.6      42.5
 3 O  pz              0.0       0.0       0.0       0.0       2.2       2.5
 3 O  px              0.0       0.0       0.0       0.0       0.0       0.4
 3 O  py              0.0       0.0       0.0       0.0       0.8       0.9
 3 O  dz2             0.0       0.0       0.0       0.0       0.4       0.0
 3 O  dxz             0.0       0.0       0.0       0.0       0.0       0.2
 3 O  dyz             0.0       0.0       0.0       0.0       1.0       0.1
 4 C  s               0.0       0.0       0.0       0.0       1.0       0.3
 4 C  pz              0.0       0.0       0.0       0.0       0.1       0.4
 4 C  px              0.0       0.0       0.0       0.0       1.9       0.1
 4 C  py              0.0       0.1       0.0       0.0       0.0       0.1
 5 C  s               0.0      99.4       0.3       0.0       0.1       0.1
 5 C  px              0.0       0.0       0.1       0.0       0.2       0.1
 6 C  s               0.0       0.3      99.0       0.4       0.0       0.0
 7 C  s               0.1       0.0       0.4      99.2       0.0       0.0
 8 C  s              99.6       0.0       0.0       0.1       0.0       0.0
 9 C  px              0.1       0.0       0.0       0.0       0.1       0.0
10 H  s               0.0       0.0       0.0       0.0       0.4       0.1
11 H  s               0.0       0.0       0.0       0.0       0.3       0.1
12 H  s               0.0       0.0       0.0       0.0       0.3       0.2

                     12        13        14        15        16        17   
                  -0.80888  -0.73665  -0.71266  -0.69126  -0.59454  -0.57978
                   2.00000   2.00000   2.00000   2.00000   2.00000   2.00000
                  --------  --------  --------  --------  --------  --------
 0 C  s               0.3       6.8       0.0      21.8       4.9       0.0
 0 C  pz              0.0       0.1       0.0       0.1       0.1       0.0
 0 C  px              0.0       0.2       0.0       0.4       2.8       0.0
 1 O  s               0.1       0.0       0.0       0.8       1.8       0.0
 1 O  pz              0.0       0.1       0.0       0.4       0.1       0.1
 1 O  px              0.8       9.8       0.0      17.5       0.2       0.0
 1 O  py              0.0       0.2       0.0       0.6       0.0       0.1
 1 O  dz2             0.0       0.0       0.0       0.4       0.5       0.0
 1 O  dxz             0.0       0.4       0.0       0.5       0.0       0.0
 1 O  dx2y2           0.1       0.0       0.0       1.3       1.5       0.0
 1 O  dxy             0.0       0.1       0.0       0.1       0.1       0.0
 2 C  s               0.9       3.3       0.0       1.4       2.3       0.0
 2 C  pz              0.8       3.0       0.1       1.7       0.7       0.3
 2 C  px              3.7       4.2       0.0       1.7       5.3       0.0
 2 C  py              0.3       1.1       0.3       0.7       0.1       1.0
 2 C  dxz             0.0       0.0       0.0       0.1       0.1       0.0
 3 O  s               0.7       1.5       0.0       0.1       0.7       0.0
 3 O  pz              0.1       0.3       0.0       0.1       0.3       0.0
 3 O  px              0.1       0.2       0.0       0.0       0.5       0.0
 3 O  py              0.0       0.1       0.0       0.0       0.1       0.1
 3 O  dz2             0.0       0.1       0.0       0.2       0.0       0.0
 3 O  dxz             0.2       0.3       0.0       0.0       0.2       0.0
 3 O  dyz             0.0       0.2       0.0       0.1       0.1       0.0
 3 O  dx2y2           0.0       0.0       0.0       0.2       0.0       0.0
 3 O  dxy             0.0       0.1       0.0       0.0       0.1       0.0
 4 C  s              14.3      10.9       0.1       3.7       5.3       0.0
 4 C  pz              0.4       0.0       0.8       0.3       0.3       1.2
 4 C  px              1.5       1.6       0.1       1.6       5.2       0.1
 4 C  py              0.0       0.0       7.0       0.0       0.0       8.6
 4 C  dxy             0.0       0.0       0.1       0.0       0.0       0.1
 5 C  s              11.0       0.3      14.9       2.3       4.4       7.3
 5 C  pz              0.0       0.0       0.2       0.0       0.0       0.1
 5 C  px              0.1       3.9       1.1       1.1       1.9       4.5
 5 C  py              2.1       0.5       0.2       0.3       1.6       0.5
 6 C  s               9.2       6.2      12.8       1.3       1.0       8.5
 6 C  pz              0.7       0.4       0.0       0.1       0.5       0.4
 6 C  px              0.7       1.1       1.5       1.7       3.5       3.8
 6 C  py              0.7       0.9       0.8       0.5       2.5       0.1
 7 C  s               8.8      13.4       0.0       6.5       9.7       0.0
 7 C  pz              0.3       0.2       0.7       0.0       0.2       0.8
 7 C  px              1.7       0.2       0.0       0.1       2.0       0.1
 7 C  py              0.0       0.0       6.3       0.0       0.0       7.8
 7 C  dxy             0.0       0.0       0.1       0.0       0.0       0.1
 8 C  s               9.8       5.2      14.0       0.7       0.9       8.6
 8 C  pz              0.0       0.0       0.2       0.0       0.1       0.1
 8 C  px              0.5       1.7       1.3       2.2       4.6       3.4
 8 C  py              1.6       1.0       0.3       0.4       1.9       0.7
 9 C  s              11.9       0.7      13.2       3.0       4.3       7.6
 9 C  pz              0.9       0.2       0.0       0.1       0.5       0.5
 9 C  px              0.3       3.5       1.3       0.6       1.3       4.8
 9 C  py              1.0       0.7       0.9       0.3       1.6       0.0
10 H  s               0.0       1.1       0.0       4.3       1.8       0.0
10 H  pz              0.0       0.1       0.0       0.4       0.1       0.0
11 H  s               0.0       1.2       0.0       5.1       2.1       0.0
11 H  pz              0.0       0.0       0.0       0.1       0.1       0.0
11 H  py              0.0       0.1       0.0       0.2       0.1       0.0
12 H  s               0.0       1.4       0.0       5.5       2.0       0.0
12 H  py              0.0       0.1       0.0       0.4       0.1       0.0
13 H  s               1.7       2.0       0.0       0.4       1.9       0.0
13 H  pz              0.2       0.2       0.0       0.0       0.2       0.0
14 H  s               1.2       0.0       2.3       0.5       1.3       2.5
14 H  pz              0.1       0.0       0.2       0.0       0.1       0.2
15 H  s               1.2       0.1       2.7       0.4       1.4       3.3
15 H  pz              0.0       0.0       0.1       0.0       0.0       0.1
15 H  py              0.1       0.0       0.1       0.0       0.0       0.1
16 H  s               1.0       1.0       2.4       0.3       0.4       3.7
16 H  py              0.1       0.1       0.1       0.0       0.0       0.2
17 H  s               1.0       0.9       2.1       0.2       0.3       3.0
17 H  pz              0.1       0.1       0.2       0.0       0.0       0.2
18 H  s               1.0       2.0       0.0       1.1       2.9       0.0
18 H  pz              0.1       0.2       0.0       0.1       0.2       0.0
19 H  s               0.9       2.1       0.0       1.4       3.9       0.0
19 H  px              0.1       0.2       0.0       0.1       0.3       0.0
20 H  s               1.0       0.8       2.6       0.2       0.3       3.7
20 H  pz              0.0       0.0       0.1       0.0       0.0       0.1
20 H  py              0.0       0.0       0.1       0.0       0.0       0.1
21 H  s               1.1       0.8       2.3       0.1       0.3       3.1
21 H  pz              0.1       0.1       0.2       0.0       0.0       0.2
22 H  s               1.3       0.1       2.1       0.6       1.3       2.8
22 H  pz              0.1       0.0       0.2       0.1       0.1       0.2
23 H  s               1.3       0.2       2.5       0.6       1.5       3.6
23 H  py              0.1       0.0       0.2       0.0       0.1       0.2

                     18        19        20        21        22        23   
                  -0.53700  -0.51741  -0.47641  -0.45044  -0.44467  -0.43448
                   2.00000   2.00000   2.00000   2.00000   2.00000   2.00000
                  --------  --------  --------  --------  --------  --------
 0 C  s               3.5       1.2       0.0       0.0       0.2       0.4
 0 C  pz              2.3       2.7       4.6       7.7       0.2       3.4
 0 C  px              7.6       3.7       0.0       0.4       2.0       7.4
 0 C  py              0.6       0.7       2.3      17.4       2.0       1.5
 0 C  dxz             0.1       0.1       0.0       0.0       0.0       0.0
 0 C  dyz             0.0       0.0       0.0       0.1       0.0       0.0
 0 C  dx2y2           0.2       0.1       0.0       0.0       0.1       0.2
 1 O  s               3.1       1.6       0.7       0.0       0.3       1.0
 1 O  pz              3.3       5.4       5.8      11.1       0.7       6.8
 1 O  px              7.6       5.3       0.4       0.0       4.5       8.9
 1 O  py              2.2       2.2       3.3      19.9       3.7       1.5
 1 O  dz2             0.1       0.0       0.3       0.5       0.0       0.2
 1 O  dxz             0.1       0.0       0.7       0.0       0.3       0.1
 1 O  dx2y2           0.4       0.0       0.2       0.0       0.1       0.1
 1 O  dxy             0.0       0.0       0.3       0.4       0.0       0.1
 2 C  s               2.3       1.1       1.2       0.1       2.1       0.1
 2 C  pz              1.2       0.5       0.1       4.4       1.1       1.1
 2 C  px              0.6       1.7      11.3       0.1       0.5       0.3
 2 C  py              0.3       0.4       0.1       8.4       1.6       0.4
 2 C  dz2             0.0       0.0       0.0       0.0       0.1       0.1
 2 C  dyz             0.0       0.0       0.0       0.0       0.1       0.1
 3 O  s               0.7       1.7       0.4       0.3       8.4       2.7
 3 O  pz              0.9       1.1       0.2       0.4      13.6       4.5
 3 O  px              0.3       0.2       7.5       0.1       3.0       0.1
 3 O  py              0.3       0.6       0.0       5.2       3.3       1.8
 3 O  dz2             0.1       0.0       0.0       0.6       0.1       0.0
 3 O  dxz             0.0       0.0       0.8       0.0       0.1       0.0
 3 O  dyz             0.1       0.1       0.0       0.2       0.1       0.0
 3 O  dx2y2           0.0       0.0       0.0       0.1       0.0       0.0
 3 O  dxy             0.0       0.0       0.3       0.0       0.1       0.1
 4 C  s               0.2       3.6       0.8       0.0       0.2       0.3
 4 C  pz              1.4       5.4       3.7       1.6       8.6       0.7
 4 C  px              1.6       0.1      12.0       0.1       0.2       0.0
 4 C  py              0.1       0.8       0.9       0.3       1.9       0.0
 4 C  dxz             0.0       0.0       0.1       0.0       0.0       0.0
 4 C  dx2y2           0.1       0.0       0.0       0.0       0.1       0.2
 5 C  s               0.3       2.7       0.0       0.1       0.6       0.2
 5 C  pz              2.1       3.0       0.3       0.5       1.9       3.3
 5 C  px              1.1       0.0       0.1       0.3       0.1       3.0
 5 C  py              0.2       3.4       5.1       0.0       3.9       1.7
 6 C  s               3.4       1.1       0.9       0.0       0.3       0.2
 6 C  pz              3.7       3.9       0.4       0.0       0.1       2.2
 6 C  px              0.0       0.2       1.9       0.3       0.0       1.1
 6 C  py              0.8       0.6       4.0       0.1       1.6       0.4
 7 C  s               4.4       1.0       0.2       0.0       0.5       0.4
 7 C  pz              2.8       3.8       0.0       0.2       1.5       0.5
 7 C  px              0.8       0.2       1.1       0.2       4.2      11.6
 7 C  py              0.3       0.2       0.0       0.2       0.0       0.3
 8 C  s               3.7       0.7       0.8       0.1       0.2       0.2
 8 C  pz              1.2       4.0       0.6       0.8       0.3       0.3
 8 C  px              0.1       0.0       1.1       0.4       0.0       0.7
 8 C  py              3.5       0.3       4.7       0.0       1.0       2.3
 9 C  s               0.5       1.7       0.0       0.5       0.2       0.3
 9 C  pz              0.8       6.2       3.0       0.4       0.5       0.1
 9 C  px              0.8       0.0       0.4       0.2       1.0       3.5
 9 C  py              1.7       0.1       2.2       0.9       5.5       3.6
10 H  s               3.9       2.7       2.0       0.9       0.2       0.6
10 H  pz              0.2       0.1       0.1       0.0       0.0       0.0
10 H  py              0.0       0.0       0.0       0.1       0.0       0.0
11 H  s               2.3       0.8       0.0       8.1       0.1       1.2
11 H  pz              0.1       0.1       0.0       0.1       0.0       0.0
11 H  px              0.0       0.0       0.0       0.1       0.0       0.0
12 H  s               1.3       0.3       1.1       2.8       1.5       3.6
12 H  py              0.1       0.0       0.0       0.0       0.0       0.1
13 H  s               0.1       5.0       2.3       0.4       4.1       0.4
13 H  pz              0.0       0.2       0.1       0.0       0.1       0.0
14 H  s               0.7       3.5       0.5       0.2       0.0       0.2
14 H  pz              0.0       0.2       0.0       0.0       0.0       0.0
15 H  s               0.0       1.3       0.5       0.1       3.1       3.1
16 H  s               1.7       0.2       2.9       0.1       0.1       0.1
17 H  s               2.9       2.4       0.3       0.0       0.4       0.3
17 H  pz              0.1       0.1       0.0       0.0       0.0       0.0
18 H  s               3.6       2.1       0.1       0.2       1.3       0.0
18 H  pz              0.2       0.1       0.0       0.0       0.0       0.0
19 H  s               1.8       0.3       0.1       0.1       1.7       5.6
19 H  px              0.1       0.0       0.0       0.0       0.0       0.2
20 H  s               1.8       0.1       2.9       0.0       0.1       0.2
21 H  s               3.1       2.0       0.3       0.4       0.1       0.2
21 H  pz              0.2       0.1       0.0       0.0       0.0       0.0
22 H  s               0.9       3.1       0.4       0.3       0.2       0.0
22 H  pz              0.1       0.1       0.0       0.0       0.0       0.0
23 H  s               0.0       0.8       0.5       0.5       3.1       3.2

                     24        25        26        27        28        29   
                  -0.41162  -0.40902  -0.39784  -0.37808  -0.35874  -0.35122
                   2.00000   2.00000   2.00000   2.00000   2.00000   2.00000
                  --------  --------  --------  --------  --------  --------
 0 C  pz              0.6       0.2       6.7       7.6       5.1       0.0
 0 C  px              0.2       1.5       2.1       0.3       2.0       0.0
 0 C  py              2.0       0.1       7.9       8.2       3.2       0.0
 0 C  dyz             0.0       0.0       0.0       0.1       0.0       0.0
 0 C  dxy             0.0       0.0       0.0       0.1       0.1       0.0
 1 O  s               0.0       0.2       0.0       0.0       0.0       0.0
 1 O  pz              0.2       0.4       0.4       0.0       0.4       0.0
 1 O  px              0.1       2.3       0.4       0.0       1.0       0.0
 1 O  py              0.3       0.1       0.2       0.6       0.7       0.0
 1 O  dz2             0.0       0.0       0.0       0.1       0.0       0.0
 1 O  dxz             0.1       0.0       0.5       1.1       0.1       0.0
 1 O  dx2y2           0.0       0.0       0.0       0.2       0.1       0.0
 1 O  dxy             0.3       0.0       0.7       1.8       0.1       0.0
 2 C  s               0.0       0.1       0.9       0.0       0.3       0.0
 2 C  pz              0.1       0.5       2.2       4.8       0.0       0.0
 2 C  px              0.0       0.1       2.0       0.0       6.3       0.0
 2 C  py              0.3       0.2       1.8       9.1       0.0       0.1
 2 C  dz2             0.0       0.0       0.0       0.1       0.0       0.0
 2 C  dx2y2           0.0       0.0       0.1       0.0       0.0       0.0
 3 O  s               0.1       0.6       3.9       0.1       0.1       0.0
 3 O  pz              0.5       1.8      17.8       1.4       1.1       0.0
 3 O  px              0.0       0.0       0.5       0.1       2.2       0.0
 3 O  py              0.0       0.6       2.8      13.7       0.2       0.0
 3 O  dz2             0.0       0.0       0.3       0.3       0.0       0.0
 3 O  dxz             0.0       0.0       0.0       0.1       0.1       0.0
 3 O  dyz             0.0       0.0       0.1       0.1       0.0       0.0
 3 O  dx2y2           0.0       0.0       0.2       0.3       0.0       0.0
 3 O  dxy             0.0       0.0       0.0       0.2       0.0       0.0
 4 C  s               0.2       0.8       1.0       0.0       1.0       0.0
 4 C  pz              3.0       2.0       3.1       0.1       0.2       0.3
 4 C  px              0.0       0.3       0.4       0.1       9.9       0.1
 4 C  py              2.2       1.7       0.2       4.7       0.0       2.9
 4 C  dxz             0.0       0.0       0.0       0.0       0.1       0.0
 4 C  dxy             0.0       0.0       0.0       0.0       0.0       0.3
 5 C  s               0.3       0.3       0.2       0.2       0.0       0.5
 5 C  pz             11.2       1.6       2.8       2.3       2.4       1.5
 5 C  px              0.1       2.9       0.1       4.1       0.2       2.5
 5 C  py              1.6       0.0       0.5       0.5       3.4      13.2
 5 C  dyz             0.0       0.0       0.0       0.0       0.0       0.2
 5 C  dxy             0.0       0.0       0.1       0.0       0.2       0.0
 6 C  s               0.2       0.2       0.2       0.0       0.1       0.5
 6 C  pz              5.0      10.9       0.3       0.5       0.2       1.2
 6 C  px              0.7       0.3       1.5       6.3       2.1       4.5
 6 C  py              0.1      10.4       1.6       0.5       4.2       9.6
 6 C  dx2y2           0.0       0.0       0.0       0.0       0.0       0.1
 7 C  s               0.0       0.2       0.4       0.0       0.6       0.0
 7 C  pz              5.4      11.4       0.1       1.7       0.2       0.3
 7 C  px              0.7       1.2       0.1       0.0      13.1       0.0
 7 C  py              0.6       4.9       0.3       3.6       0.1       2.4
 7 C  dxy             0.0       0.0       0.0       0.0       0.0       0.3
 8 C  s               0.0       0.3       0.3       0.0       0.1       0.5
 8 C  pz             21.7       1.7       0.9       0.3       0.4       1.2
 8 C  px              0.2       0.8       3.0       4.6       0.9       2.8
 8 C  py              0.2       2.8       1.5       0.1       4.6      11.8
 8 C  dyz             0.0       0.0       0.0       0.0       0.0       0.1
 8 C  dxy             0.0       0.1       0.0       0.0       0.1       0.0
 9 C  s               0.0       0.5       0.3       0.2       0.0       0.5
 9 C  pz              8.6       4.8       1.8       0.1       0.0       1.1
 9 C  px              3.3       0.8       0.1       2.9       0.1       4.8
 9 C  py              0.6       0.3       4.8       1.2       6.2      10.1
 9 C  dx2y2           0.0       0.0       0.0       0.0       0.1       0.1
 9 C  dxy             0.0       0.0       0.1       0.0       0.1       0.0
10 H  s               0.0       0.0       4.2       1.8       3.3       0.0
10 H  pz              0.0       0.0       0.1       0.0       0.1       0.0
10 H  py              0.0       0.0       0.0       0.1       0.0       0.0
11 H  s               1.2       0.2       0.0       8.0       0.1       0.0
12 H  s               0.4       0.4       6.5       1.9       4.0       0.0
12 H  pz              0.0       0.0       0.0       0.1       0.0       0.0
12 H  py              0.0       0.0       0.1       0.0       0.1       0.0
[...]
21 H  s               0.1       1.9       1.2       0.1       0.2       0.0
21 H  pz              0.1       2.8       2.3       0.5       0.4       0.0
21 H  px              0.1       0.1       0.0       0.1       0.0       0.0
21 H  py              0.4       1.8       0.8       0.0       0.2       0.0
22 H  s               2.0       0.0       3.0       0.3       0.0       0.0
22 H  pz              5.3       0.0       7.3       0.9       0.0       0.0
22 H  px              0.3       0.0       0.1       0.0       0.1       0.0
22 H  py              0.0       0.0       0.2       0.0       0.0       0.0
23 H  s               4.0       1.0       1.9       0.1       1.4       0.0
23 H  pz              0.1       0.1       0.0       0.0       0.0       0.0
23 H  px              2.7       0.8       1.7       0.0       1.4       0.0
23 H  py              6.3       2.0       2.8       0.4       2.0       0.0

                    258       259       260       261       262       263   
                   4.30516   4.44607  21.92829  21.96150  21.98375  22.05366
                   0.00000   0.00000   0.00000   0.00000   0.00000   0.00000
                  --------  --------  --------  --------  --------  --------
 0 C  s               0.5       0.1       0.3      11.2      84.8       0.3
 0 C  pz              0.2       0.0       0.0       0.0       0.0       0.0
 0 C  px              1.5       0.3       0.0       0.0       0.0       0.0
 0 C  dz2             0.8       0.1       0.0       0.0       0.0       0.0
 0 C  dxz             0.2       0.1       0.0       0.0       0.0       0.0
 0 C  dx2y2           1.5       0.2       0.0       0.0       0.0       0.0
 1 O  s               7.3       1.1       0.0       0.0       0.1       0.0
 1 O  pz              4.4       0.2       0.0       0.0       0.0       0.0
 1 O  px             22.7       0.4       0.0       0.0       0.1       0.0
 1 O  py              2.8       0.1       0.0       0.0       0.0       0.0
 1 O  dz2             0.5       0.3       0.0       0.0       0.0       0.0
 1 O  dxz            17.4       0.1       0.0       0.0       0.0       0.0
 1 O  dyz             4.5       0.1       0.0       0.0       0.0       0.0
 1 O  dx2y2           0.0       1.5       0.0       0.0       0.0       0.0
 1 O  dxy             7.1       0.0       0.0       0.0       0.0       0.0
 2 C  s               2.2       5.6       1.3       0.0       0.0       0.5
 2 C  pz              2.7       5.1       0.0       0.0       0.0       0.0
 2 C  px              3.5       0.5       0.0       0.0       0.0       0.0
 2 C  py              1.4       1.8       0.0       0.0       0.0       0.0
 2 C  dz2             0.0       1.8       0.0       0.0       0.0       0.0
 2 C  dxz             7.7       0.6       0.0       0.0       0.0       0.0
 2 C  dyz             1.6       3.5       0.0       0.0       0.0       0.0
 2 C  dx2y2           0.1       0.2       0.0       0.0       0.0       0.0
 2 C  dxy             3.6       0.2       0.0       0.0       0.0       0.0
 3 O  s               0.4      19.9       0.0       0.0       0.0       0.0
 3 O  pz              0.1      14.5       0.0       0.0       0.0       0.0
 3 O  px              0.5       1.7       0.0       0.0       0.0       0.0
 3 O  py              0.0       5.6       0.0       0.0       0.0       0.0
 3 O  dz2             0.3       9.3       0.0       0.0       0.0       0.0
 3 O  dxz             0.9       4.3       0.0       0.0       0.0       0.0
 3 O  dyz             0.0      16.9       0.0       0.0       0.0       0.0
 3 O  dx2y2           1.0       1.1       0.0       0.0       0.0       0.0
 3 O  dxy             0.2       1.6       0.0       0.0       0.0       0.0
 4 C  s               0.0       0.0       0.7       7.3       0.3       0.0
 4 C  pz              0.1       0.0       0.0       0.0       0.0       0.0
 4 C  px              0.1       0.0       0.0       0.0       0.0       0.0
 4 C  dz2             0.2       0.0       0.0       0.0       0.0       0.0
 5 C  s               0.0       0.0      26.7       1.5       0.7      20.2
 5 C  px              0.1       0.2       0.0       0.0       0.0       0.0
 6 C  s               0.0       0.0       0.4      40.0       4.1      28.7
 7 C  s               0.0       0.0      42.1       0.5       1.7       0.1
 8 C  s               0.0       0.0       0.5      37.5       7.5      28.9
 9 C  s               0.1       0.0      27.5       1.8       0.3      20.8
10 H  s               0.1       0.0       0.0       0.0       0.0       0.0
10 H  pz              0.2       0.0       0.0       0.0       0.0       0.0

                    264       265       266       267       268       269   
                  22.11992  22.19781  22.22789  22.35717  43.72631  43.76355
                   0.00000   0.00000   0.00000   0.00000   0.00000   0.00000
                  --------  --------  --------  --------  --------  --------
 0 C  s               1.8       0.0       1.1       0.1       0.0       0.0
 1 O  s               0.0       0.0       0.0       0.2      99.9       0.0
 2 C  s               3.1       1.6       0.9      91.6       0.0       0.0
 3 O  s               0.0       0.0       0.0       0.2       0.0      99.9
 3 O  pz              0.0       0.0       0.0       0.1       0.0       0.0
 4 C  s              11.5       0.3      79.4       0.2       0.0       0.0
 5 C  s              18.5      30.5       1.4       0.2       0.0       0.0
 6 C  s               1.2      21.2       3.4       0.7       0.0       0.0
 7 C  s              45.6       0.0       9.1       0.6       0.0       0.0
 8 C  s               0.4      20.4       4.3       0.1       0.0       0.0
 9 C  s              17.5      25.9       0.1       5.7       0.0       0.0



                      *****************************
                      * MAYER POPULATION ANALYSIS *
                      *****************************

  NA   - Mulliken gross atomic population
  ZA   - Total nuclear charge
  QA   - Mulliken gross atomic charge
  VA   - Mayer's total valence
  BVA  - Mayer's bonded valence
  FA   - Mayer's free valence

  ATOM       NA         ZA         QA         VA         BVA        FA
  0 C      6.3050     6.0000    -0.3050     3.7512     3.7512     0.0000
  1 O      8.1939     8.0000    -0.1939     1.9630     1.9630     0.0000
  2 C      5.6194     6.0000     0.3806     3.8212     3.8212     0.0000
  3 O      8.4458     8.0000    -0.4458     1.9381     1.9381    -0.0000
  4 C      6.0972     6.0000    -0.0972     3.6579     3.6579     0.0000
  5 C      6.3518     6.0000    -0.3518     3.7073     3.7073    -0.0000
  6 C      6.2673     6.0000    -0.2673     3.6278     3.6278     0.0000
  7 C      6.2949     6.0000    -0.2949     3.6830     3.6830    -0.0000
  8 C      6.2738     6.0000    -0.2738     3.6433     3.6433    -0.0000
  9 C      6.3412     6.0000    -0.3412     3.7143     3.7143    -0.0000
 10 H      0.8147     1.0000     0.1853     0.9581     0.9581     0.0000
 11 H      0.8504     1.0000     0.1496     0.9569     0.9569     0.0000
 12 H      0.8519     1.0000     0.1481     0.9573     0.9573    -0.0000
 13 H      0.8176     1.0000     0.1824     0.9543     0.9543    -0.0000
 14 H      0.8211     1.0000     0.1789     0.9588     0.9588    -0.0000
 15 H      0.8550     1.0000     0.1450     0.9635     0.9635    -0.0000
 16 H      0.8520     1.0000     0.1480     0.9599     0.9599     0.0000
 17 H      0.8558     1.0000     0.1442     0.9654     0.9654     0.0000
 18 H      0.8539     1.0000     0.1461     0.9655     0.9655    -0.0000
 19 H      0.8514     1.0000     0.1486     0.9597     0.9597    -0.0000
 20 H      0.8520     1.0000     0.1480     0.9596     0.9596    -0.0000
 21 H      0.8538     1.0000     0.1462     0.9651     0.9651    -0.0000
 22 H      0.8257     1.0000     0.1743     0.9601     0.9601    -0.0000
 23 H      0.8544     1.0000     0.1456     0.9627     0.9627     0.0000

  Mayer bond orders larger than 0.100000
B(  0-C ,  1-O ) :   0.8398 B(  0-C , 10-H ) :   0.9691 B(  0-C , 11-H ) :   0.9609 
B(  0-C , 12-H ) :   0.9685 B(  1-O ,  2-C ) :   1.0547 B(  2-C ,  3-O ) :   1.8316 
B(  2-C ,  4-C ) :   0.9552 B(  4-C ,  5-C ) :   0.9033 B(  4-C ,  9-C ) :   0.9218 
B(  4-C , 13-H ) :   0.9580 B(  5-C ,  6-C ) :   0.8917 B(  5-C , 14-H ) :   0.9953 
B(  5-C , 15-H ) :   0.9423 B(  6-C ,  7-C ) :   0.9168 B(  6-C , 16-H ) :   0.9448 
B(  6-C , 17-H ) :   0.9907 B(  7-C ,  8-C ) :   0.9209 B(  7-C , 18-H ) :   0.9936 
B(  7-C , 19-H ) :   0.9515 B(  8-C ,  9-C ) :   0.8937 B(  8-C , 20-H ) :   0.9436 
B(  8-C , 21-H ) :   0.9945 B(  9-C , 22-H ) :   0.9955 B(  9-C , 23-H ) :   0.9312 


-------
TIMINGS
-------

Total SCF time: 0 days 0 hours 0 min 28 sec 

Total time                  ....      28.979 sec
Sum of individual times     ....      28.544 sec  ( 98.5%)

SCF preparation             ....       0.192 sec  (  0.7%)
Fock matrix formation       ....      27.303 sec  ( 94.2%)
  Startup                   ....       0.044 sec  (  0.2% of F)
  Split-RI-J                ....       6.041 sec  ( 22.1% of F)
  XC integration            ....      20.715 sec  ( 75.9% of F)
    Basis function eval.    ....       3.417 sec  ( 16.5% of XC)
    Density eval.           ....       7.739 sec  ( 37.4% of XC)
    XC-Functional eval.     ....       2.071 sec  ( 10.0% of XC)
    XC-Potential eval.      ....       6.741 sec  ( 32.5% of XC)
Diagonalization             ....       0.000 sec  (  0.0%)
Density matrix formation    ....       0.251 sec  (  0.9%)
Total Energy calculation    ....       0.035 sec  (  0.1%)
Population analysis         ....       0.154 sec  (  0.5%)
Orbital Transformation      ....       0.068 sec  (  0.2%)
Orbital Orthonormalization  ....       0.000 sec  (  0.0%)
DIIS solution               ....       0.503 sec  (  1.7%)
  MO trafo                  ....       0.000 sec  (  0.0 % of DIIS)
  Orb grad                  ....       0.000 sec  (  0.0 % of DIIS)
  Energy W gradient         ....       0.000 sec  (  0.0 % of DIIS)
  DIIS error                ....       0.023 sec  (  4.6 % of DIIS)
  DIIS work                 ....       0.423 sec  ( 84.1 % of DIIS)
  Form Q                    ....       0.000 sec  (  0.0 % of DIIS)
  Form QpQm                 ....       0.000 sec  (  0.0 % of DIIS)
  Exp/Cayley                ....       0.000 sec  (  0.0 % of DIIS)
  Orb update                ....       0.000 sec  (  0.0 % of DIIS)
  Wake-sleep                ....       0.021 sec  (  4.2 % of DIIS)
SOSCF solution              ....       0.038 sec  (  0.1%)
  MO trafo                  ....       0.038 sec  ( 99.7 % of SOSCF)
  Orb grad                  ....       0.000 sec  (  0.0 % of SOSCF)
  Rot update                ....       0.000 sec  (  0.0 % of SOSCF)
  Step                      ....       0.000 sec  (  0.0 % of SOSCF)
Finished LeanSCF after  29.1 sec

Maximum memory used throughout the entire LEANSCF-calculation: 30.8 MB


-------------------------------------------------------------------------------
                          DFT DISPERSION CORRECTION                            
                                                                               
                                DFTD4 V3.4.0                                   
-------------------------------------------------------------------------------
The R2SCAN3C composite method is recognized
Using three-body term ABC
Active option DFTDOPT                   ...         5   

-------------------------   ----------------
Dispersion correction           -0.007523893
-------------------------   ----------------

------------------   -----------------
gCP correction             0.013141970
------------------   -----------------

-------------------------   --------------------
FINAL SINGLE POINT ENERGY      -463.635718791432
-------------------------   --------------------


------------------------------------------------------------------------------
                              ORCA PROPERTY CALCULATIONS
------------------------------------------------------------------------------

GBWName                                 ... sp_gas.gbw
Number of atoms                         ...     24
Number of basis functions               ...    270
Max core memory                         ...   1024 MB

Electric properties:
Dipole moment                           ... YES
Quadrupole moment                       ...  NO
Static polarizability (Dipole/Dipole)   ...  NO
Static polarizability (Dipole/Quad.)    ...  NO
Static polarizability (Quad./Quad.)     ...  NO
Static polarizability (Velocity)        ...  NO

Atomic electric properties:
Dipole moment                           ...  NO
Quadrupole moment                       ...  NO
Static polarizability                   ...  NO

Choice of electric origin               ... Center of mass
Position of electric origin             ...     0.000030     0.000005    -0.000004

General magnetic properties:
Magnetizability                         ...  NO

EPR properties:
g-Tensor (aka g-matrix)                 ...  NO
Zero-Field splitting spin-orbit         ...  NO
Zero-field splitting spin-spin          ...  NO
Hyperfine couplings                     ...  NO (   0 nuclei)
Quadrupole couplings                    ...  NO (   0 nuclei)
Contact density                         ...  NO (   0 nuclei)

NMR properties:
Chemical shifts                         ...  NO (   0 nuclei)
Spin-rotation constants                 ...  NO (   0 nuclei)
Spin-spin couplings                     ...  NO (   0 nuclei,    0 pairs)

Choice of magnetic origin               ... GIAO
Position of magnetic origin             ...     0.000000     0.000000     0.000000

Properties with geometric perturbations:
SCF Hessian                             ...  NO
IR spectrum                             ...  NO
VCD spectrum                            ...  NO
X-ray spectroscopy properties:
SCF XES/XAS/RIXS spectra                ...  NO


-------------
DIPOLE MOMENT
-------------

Method             : SCF
Type of density    : Electron Density
Multiplicity       :   1
Irrep              :   0
Energy             :  -463.6413368681521661 Eh
Relativity type    : 
Basis              : AO
                                X                 Y                 Z
Electronic contribution:     -7.143610866      -1.150855543       0.735902964
Nuclear contribution   :      7.164261560       1.588052754      -1.310577283
                        -----------------------------------------
Total Dipole Moment    :      0.020650693       0.437197211      -0.574674319
                        -----------------------------------------
Magnitude (a.u.)       :      0.722370006
Magnitude (Debye)      :      1.836118636



--------------------
Rotational spectrum 
--------------------
 
Rotational constants in cm-1:             0.102923             0.024200             0.022443 
Rotational constants in MHz :          3085.565274           725.489678           672.830941 

Dipole components along the rotational axes: 
x,y,z [a.u.] :     0.020176     0.384920    -0.610940 
x,y,z [Debye]:     0.051282     0.978388    -1.552887 

 

Dipole moment calculation done in   0.0 sec 

Maximum memory used throughout the entire PROP-calculation: 18.6 MB

--------------------------------
SUGGESTED CITATIONS FOR THIS RUN
--------------------------------

Below you find a list of papers that are relevant to this ORCA run
We neither can nor want to force you to cite these papers, but we appreciate if you do
You receive ORCA, which is the product of decades of hard work by many enthusiastic individuals, for free
The only thing we kindly ask in return is that you cite our papers,
We deeply appreciate it, if you show your appreciation for ORCA by not just citing the generic ORCA reference.

Please note that relegating all ORCA citations to the supporting information does *not* help us.
SI sections are not indexed - citations you put there will not count into any citation statistics
But we need these citations in order to attract the funding resources that allow us to do what we are doing

Therefore, if you are a happy ORCA user, please consider citing a few of the papers listed below in the main body of your paper

In addition to the list printed below, the program has created the file sp_gas.bibtex that contains the list in bibtex format
You can import this file easily into all common literature databanks and citation aid programs


List of essential papers. We consider these as the minimum necessary citations

  1. Neese,F.
     Software update: the ORCA program system, version 5.0
     WIRES Comput. Molec. Sci., 2022 12(1)e1606
     doi.org/10.1002/wcms.1606
  2. Grimme,S.; Hansen,A.; Ehlert,S.; Mewes,J.
     r2SCAN-3c: A 'Swiss army knife' composite electronic-structure method
     J. Chem. Phys., 2021 154 064103
     doi.org/10.1063/5.0040021

List of papers to cite with high priority. The work reported in these papers was absolutely
necessary for this run to complete.
Our perspective: the developers of density functionals and basis sets usually get cited in chemistry papers
Good! But without the algorithms to do something with them, the functionals or basis sets would not do anything.
Hence, in our opinion, the algorithm design and method developments papers are equally worthy of getting cited

  1. Neese,F.
     An improvement of the resolution of the identity approximation for the formation of the Coulomb matrix
     J. Comp. Chem., 2003 24(14)1740-1747
     doi.org/10.1002/jcc.10318
  2. Neese,F.
     The SHARK Integral Generation and Digestion System
     J. Comp. Chem., 2022  1-16
     doi.org/10.1002/jcc.26942
  3. Lehtola,S.; Steigemann,C.; Oliveira,M.; Marques,M.
     Recent developments in Libxc - A comprehensive library of functionals for density functional theory
     Software X, 2018 7 
     doi.org/10.1016/j.softx.2017.11.002
  4. Caldeweyher,E.; Bannwarth,C.; Grimme,S.
     Extension of the D3 dispersion coefficient model
     J. Chem. Phys., 2017 147 034112-XXXX
     doi.org/10.1063/1.4993215
  5. Caldeweyher,E.; Ehlert,S.; Hansen,A.; Neugebauer,H.; Spicher,S.; Bannwarth,C.; Grimme,S.
     A generally applicable atomic-charge dependent London dispersion correction
     J. Chem. Phys., 2019 150 154122-XXXX
     doi.org/10.1063/1.5090222
  6. Caldeweyher,E.; Mewes,J.; Ehlert,S.; Grimme,S.
     Extension and evaluation of the D4 London-dispersion model for periodic systems
     Phys. Chem. Chem. Phys., 2020 22(16)8499-8512
     doi.org/10.1039/D0CP00502A

List of suggested additional citations. These are papers that are important in the 'surrounding' of 
of this run, or papers that preceded the highly important papers. If you like your results we are grateful for a citation.

  1. Neese,F.
     The ORCA program system
     WIRES Comput. Molec. Sci., 2012 2(1)73-78
     doi.org/10.1002/wcms.81
  2. Neese,F.
     Software update: the ORCA program system, version 4.0
     WIRES Comput. Molec. Sci., 2018 8(1)1-6
     doi.org/10.1002/wcms.1327
  3. Neese,F.; Wennmohs,F.; Becker,U.; Riplinger,C.
     The ORCA quantum chemistry program package
     J. Chem. Phys., 2020 152 Art. No. L224108
     doi.org/10.1063/5.0004608

List of optional additional citations

  1. Neese,F.
     Approximate second-order SCF convergence for spin unrestricted wavefunctions
     Chem. Phys. Lett., 2000 325(1-3)93-98
     doi.org/10.1016/s0009-2614(00)00662-x

Timings for individual modules:

Sum of individual times          ...       31.052 sec (=   0.518 min)
Startup calculation              ...        1.559 sec (=   0.026 min)   5.0 %
SCF iterations                   ...       29.381 sec (=   0.490 min)  94.6 %
Property calculations            ...        0.112 sec (=   0.002 min)   0.4 %
                             ****ORCA TERMINATED NORMALLY****
TOTAL RUN TIME: 0 days 0 hours 0 minutes 31 seconds 785 msec
