      -----------------------------------------------------------      
     |                   =====================                   |     
     |                           x T B                           |     
     |                   =====================                   |     
     |                         S. Grimme                         |     
     |          Mulliken Center for Theoretical Chemistry        |     
     |                    University of Bonn                     |     
      -----------------------------------------------------------      

   * xtb version 6.7.1 (edcfbbe) compiled by 'albert@albert-system' on 2024-07-22

   xtb is free software: you can redistribute it and/or modify it under
   the terms of the GNU Lesser General Public License as published by
   the Free Software Foundation, either version 3 of the License, or
   (at your option) any later version.
   
   xtb is distributed in the hope that it will be useful,
   but WITHOUT ANY WARRANTY; without even the implied warranty of
   MERCHANTABILITY or FITNESS FOR A PARTICULAR PURPOSE.  See the
   GNU Lesser General Public License for more details.
   
   Cite this work as:
   * C. Bannwarth, E. Caldeweyher, S. Ehlert, A. Hansen, P. Pracht,
     J. Seibert, S. Spicher, S. Grimme, WIREs Comput. Mol. Sci., 2020, 11,
     e01493. DOI: 10.1002/wcms.1493
   
   for GFN2-xTB:
   * C. Bannwarth, S. Ehlert and S. Grimme., J. Chem. Theory Comput., 2019,
     15, 1652-1671. DOI: 10.1021/acs.jctc.8b01176
   for GFN1-xTB:
   * S. Grimme, C. Bannwarth, P. Shushkov, J. Chem. Theory Comput., 2017,
     13, 1989-2009. DOI: 10.1021/acs.jctc.7b00118
   for GFN0-xTB:
   * P. Pracht, E. Caldeweyher, S. Ehlert, S. Grimme, ChemRxiv, 2019, preprint.
     DOI: 10.26434/chemrxiv.8326202.v1
   for GFN-FF:
   * S. Spicher and S. Grimme, Angew. Chem. Int. Ed., 2020, 59, 15665-15673.
     DOI: 10.1002/anie.202004239
   
   for ALPB and GBSA implicit solvation:
   * S. Ehlert, M. Stahn, S. Spicher, S. Grimme, J. Chem. Theory Comput.,
     2021, 17, 4250-4261. DOI: 10.1021/acs.jctc.1c00471
   
   for ddCOSMO and CPCM-X implicit solvation:
   * M. Stahn, S. Ehlert, S. Grimme, J. Phys. Chem. A,
     2023, XX, XXXX-XXXX. DOI: 10.1021/acs.jpca.3c04382
   
   for DFT-D4:
   * E. Caldeweyher, C. Bannwarth and S. Grimme, J. Chem. Phys., 2017,
     147, 034112. DOI: 10.1063/1.4993215
   * E. Caldeweyher, S. Ehlert, A. Hansen, H. Neugebauer, S. Spicher,
     C. Bannwarth and S. Grimme, J. Chem. Phys., 2019, 150, 154122.
     DOI: 10.1063/1.5090222
   * E. Caldeweyher, J.-M. Mewes, S. Ehlert and S. Grimme, Phys. Chem. Chem. Phys.
     2020, 22, 8499-8512. DOI: 10.1039/D0CP00502A
   
   for sTDA-xTB:
   * S. Grimme and C. Bannwarth, J. Chem. Phys., 2016, 145, 054103.
     DOI: 10.1063/1.4959605
   
   in the mass-spec context:
   * V. Asgeirsson, C. Bauer and S. Grimme, Chem. Sci., 2017, 8, 4879.
     DOI: 10.1039/c7sc00601b
   * J. Koopman and S. Grimme, ACS Omega 2019, 4, 12, 15120-15133.
     DOI: 10.1021/acsomega.9b02011
   
   for metadynamics refer to:
   * S. Grimme, J. Chem. Theory Comput., 2019, 155, 2847-2862
     DOI: 10.1021/acs.jctc.9b00143
   
   for SPH calculations refer to:
   * S. Spicher and S. Grimme, J. Chem. Theory Comput., 2021, 17, 1701-1714
     DOI: 10.1021/acs.jctc.0c01306
   
   for ONIOM refer to:
   * C. Plett, A. Katbashev, S. Ehlert, S. Grimme, M. Bursch,
     Phys. Chem. Chem. Phys., 2023, 25, 17860-17868. DOI: 10.1039/D3CP02178E
   
   for DIPRO refer to:
   * J. Kohn, N. Gildemeister, S. Grimme, D. Fazzi, A. Hansen,
     J. Chem. Phys., 2023, just accepted.
   
   for PTB refer to:
   * S. Grimme, M. Mueller, A. Hansen, J. Chem. Phys., 2023, 158, 124111.
     DOI: 10.1063/5.0137838
   
   with help from (in alphabetical order)
   P. Atkinson, C. Bannwarth, F. Bohle, G. Brandenburg, E. Caldeweyher
   M. Checinski, S. Dohm, S. Ehlert, S. Ehrlich, I. Gerasimov, C. Hölzer
   A. Katbashev, J. Kohn, J. Koopman, C. Lavigne, S. Lehtola, F. März, M. Müller,
   F. Musil, H. Neugebauer, J. Pisarek, C. Plett, P. Pracht, F. Pultar,
   J. Seibert, P. Shushkov, S. Spicher, M. Stahn, M. Steiner, T. Strunk,
   J. Stückrath, T. Rose, and J. Unsleber
   
 * started run on 2025/04/06 at 21:02:08.279     
   ID    Z sym.   atoms
    1    6 C      1-5, 7, 8, 11-13
    2    1 H      6, 9, 14-27
    3    8 O      10

           -------------------------------------------------
          |                Calculation Setup                |
           -------------------------------------------------

          program call               : /srv/scratch/z5358697/.xtb/bin/xtb xtb_rrho.coord --gfn2 --ohess vtight --chrg 0 --enso --norestart -I rrho-xcontrol-inp --parallel 1 --alpb water
          hostname                   : k139
          coordinate file            : xtb_rrho.coord
          omp threads                :                     1


           -------------------------------------------------
          |                 G F N 2 - x T B                 |
           -------------------------------------------------

        Reference                      10.1021/acs.jctc.8b01176
      * Hamiltonian:
        H0-scaling (s, p, d)           1.850000    2.230000    2.230000
        zeta-weighting                 0.500000
      * Dispersion:
        s8                             2.700000
        a1                             0.520000
        a2                             5.000000
        s9                             5.000000
      * Repulsion:
        kExp                           1.500000    1.000000
        rExp                           1.000000
      * Coulomb:
        alpha                          2.000000
        third order                    shell-resolved
        anisotropic                    true
        a3                             3.000000
        a5                             4.000000
        cn-shift                       1.200000
        cn-exp                         4.000000
        max-rad                        5.000000

      * Solvation model:               ALPB
        Solvent                        water
        Parameter file                 internal GFN2-xTB/ALPB
        Dielectric constant                8.0200E+01
        Reference state                gsolv [1 M gas/solution]
        Free energy shift                  1.0808E-03 Eh       6.7819E-01 kcal/mol
        Temperature                        2.9815E+02 K
        Density                            1.0000E+00 kg/L
        Solvent mass                       1.8000E+01 g/mol
        Interaction kernel             P16
        Born radius scaling (c1)           1.4744E+00
        Born radii integrator          GBOBC
        Born offset                        0.0000E+00 a0       0.0000E+00 AA
        H-bond correction              true
        Ion screening                  false
        Surface tension                    1.0000E-05 Eh       1.5569E+01 dyn/cm
        Grid points                               974 per atom

          ...................................................
          :                      SETUP                      :
          :.................................................:
          :  # basis functions                  60          :
          :  # atomic orbitals                  60          :
          :  # shells                           38          :
          :  # electrons                        62          :
          :  max. iterations                   250          :
          :  Hamiltonian                  GFN2-xTB          :
          :  restarted?                      false          :
          :  GBSA solvation                   true          :
          :  PC potential                    false          :
          :  electronic temp.          300.0000000     K    :
          :  accuracy                    1.0000000          :
          :  -> integral cutoff          0.2500000E+02      :
          :  -> integral neglect         0.1000000E-07      :
          :  -> SCF convergence          0.1000000E-05 Eh   :
          :  -> wf. convergence          0.1000000E-03 e    :
          :  Broyden damping             0.4000000          :
          :  net charge                          0          :
          :  unpaired electrons                  0          :
          ...................................................

 iter      E             dE          RMSdq      gap      omega  full diag
   1    -34.0567942 -0.340568E+02  0.349E+00    4.87       0.0  T
   2    -34.0829098 -0.261156E-01  0.204E+00    4.86       1.0  T
   3    -34.0746381  0.827167E-02  0.968E-01    4.82       1.0  T
   4    -34.0863801 -0.117420E-01  0.315E-01    4.79       1.0  T
   5    -34.0874537 -0.107355E-02  0.713E-02    4.81       1.0  T
   6    -34.0874778 -0.240937E-04  0.374E-02    4.81       1.0  T
   7    -34.0874774  0.355883E-06  0.153E-02    4.81       1.3  T
   8    -34.0874805 -0.304534E-05  0.507E-03    4.81       3.8  T
   9    -34.0874808 -0.290021E-06  0.217E-03    4.81       8.9  T
  10    -34.0874808 -0.130860E-07  0.824E-04    4.81      23.4  T
  11    -34.0874808 -0.171748E-08  0.229E-04    4.81      84.1  T

   *** convergence criteria satisfied after 11 iterations ***

         #    Occupation            Energy/Eh            Energy/eV
      -------------------------------------------------------------
         1        2.0000           -0.6797019             -18.4956
       ...           ...                  ...                  ...
        25        2.0000           -0.4392124             -11.9516
        26        2.0000           -0.4275049             -11.6330
        27        2.0000           -0.4223675             -11.4932
        28        2.0000           -0.4144937             -11.2789
        29        2.0000           -0.4015835             -10.9276
        30        2.0000           -0.3845517             -10.4642
        31        2.0000           -0.3775533             -10.2737 (HOMO)
        32                         -0.2007812              -5.4635 (LUMO)
        33                         -0.1947010              -5.2981
        34                          0.0358592               0.9758
        35                          0.0589313               1.6036
        36                          0.0750967               2.0435
       ...                                ...                  ...
        60                          0.6141984              16.7132
      -------------------------------------------------------------
                  HL-Gap            0.1767721 Eh            4.8102 eV
             Fermi-level           -0.2891672 Eh           -7.8686 eV

 SCC (total)                   0 d,  0 h,  0 min,  0.034 sec
 SCC setup                      ...        0 min,  0.001 sec (  4.309%)
 Dispersion                     ...        0 min,  0.000 sec (  0.468%)
 classical contributions        ...        0 min,  0.000 sec (  0.085%)
 integral evaluation            ...        0 min,  0.002 sec (  6.670%)
 iterations                     ...        0 min,  0.024 sec ( 69.408%)
 molecular gradient             ...        0 min,  0.006 sec ( 18.680%)
 printout                       ...        0 min,  0.000 sec (  0.345%)

         :::::::::::::::::::::::::::::::::::::::::::::::::::::
         ::                     SUMMARY                     ::
         :::::::::::::::::::::::::::::::::::::::::::::::::::::
         :: total energy             -33.609431790250 Eh    ::
         :: total w/o Gsasa/hb       -33.604528995226 Eh    ::
         :: gradient norm              0.038531872427 Eh/a0 ::
         :: HOMO-LUMO gap              4.810214915270 eV    ::
         ::.................................................::
         :: SCC energy               -34.087336445733 Eh    ::
         :: -> isotropic ES            0.039767148872 Eh    ::
         :: -> anisotropic ES          0.007017481826 Eh    ::
         :: -> anisotropic XC          0.016480150858 Eh    ::
         :: -> dispersion             -0.021930172687 Eh    ::
         :: -> Gsolv                  -0.009850680200 Eh    ::
         ::    -> Gelec               -0.004947885175 Eh    ::
         ::    -> Gsasa               -0.000491397761 Eh    ::
         ::    -> Ghb                 -0.005492156961 Eh    ::
         ::    -> Gshift               0.001080759698 Eh    ::
         :: repulsion energy           0.477904655483 Eh    ::
         :: add. restraining           0.000000000000 Eh    ::
         :: total charge               0.000000000000 e     ::
         :::::::::::::::::::::::::::::::::::::::::::::::::::::

      ----------------------------------------------------------- 
     |                   =====================                   |
     |                        A N C O P T                        |
     |                   =====================                   |
     |               Approximate Normal Coordinate               |
     |                Rational Function Optimizer                |
      ----------------------------------------------------------- 
      ----------------------------------------------------------- 
     |                   =====================                   |
     |                        A N C O P T                        |
     |                   =====================                   |
     |               Approximate Normal Coordinate               |
     |                Rational Function Optimizer                |
      ----------------------------------------------------------- 

          ...................................................
          :                      SETUP                      :
          :.................................................:
          :   optimization level         verytight          :
          :   max. optcycles                   540          :
          :   ANC micro-cycles                  20          :
          :   degrees of freedom                75          :
          :.................................................:
          :   RF solver                   davidson          :
          :   write xtbopt.log                true          :
          :   linear?                        false          :
          :   energy convergence         0.1000000E-06 Eh   :
          :   grad. convergence          0.2000000E-03 Eh/α :
          :   maxmium RF displ.          1.0000000          :
          :   Hlow (freq-cutoff)         0.1000000E-01      :
          :   Hmax (freq-cutoff)         5.0000000          :
          :   S6 in model hess.         20.0000000          :
          ...................................................

generating ANC from exact Hessian ...
Using Lindh-Hessian (1995)
 Shifting diagonal of input Hessian by   8.662107708789410E-003
 Lowest  eigenvalues of input Hessian
    0.000000    0.000000    0.000000    0.000000    0.000000    0.000000
    0.010000    0.010241    0.011752    0.014104    0.016126    0.016705
    0.017498    0.018684    0.019167    0.021135    0.022029    0.025563
 Highest eigenvalues
    1.275946    1.385430    1.479866    1.512244    1.853352    1.858375
 

........................................................................
.............................. CYCLE    1 ..............................
........................................................................

 iter      E             dE          RMSdq      gap      omega  full diag
   1    -34.0874808 -0.340875E+02  0.980E-05    4.81       0.0  T
   2    -34.0874808 -0.237890E-10  0.625E-05    4.81     308.1  T
   3    -34.0874808 -0.305533E-12  0.478E-05    4.81     402.2  T
     SCC iter.                  ...        0 min,  0.002 sec
     gradient                   ...        0 min,  0.007 sec
 * total energy  :   -33.6094318 Eh     change       -0.2693881E-09 Eh
   gradient norm :     0.0385308 Eh/α   predicted     0.0000000E+00 (-100.00%)
   displ. norm   :     0.1579338 α      lambda       -0.2511331E-02
   maximum displ.:     0.0536803 α      in ANC's #14, #10, #6, ...

........................................................................
.............................. CYCLE    2 ..............................
........................................................................

 iter      E             dE          RMSdq      gap      omega  full diag
   1    -34.1059441 -0.341059E+02  0.111E-01    4.92       0.0  T
   2    -34.1059540 -0.982696E-05  0.644E-02    4.92       1.0  T
   3    -34.1059483  0.568461E-05  0.234E-02    4.92       1.0  T
   4    -34.1059554 -0.709355E-05  0.555E-03    4.92       3.5  T
   5    -34.1059559 -0.505787E-06  0.226E-03    4.92       8.5  T
   6    -34.1059559 -0.187448E-07  0.972E-04    4.92      19.8  T
   7    -34.1059559 -0.245565E-08  0.358E-04    4.92      53.7  T
     SCC iter.                  ...        0 min,  0.004 sec
     gradient                   ...        0 min,  0.007 sec
 * total energy  :   -33.6110959 Eh     change       -0.1664113E-02 Eh
   gradient norm :     0.0161106 Eh/α   predicted    -0.1287045E-02 ( -22.66%)
   displ. norm   :     0.1296590 α      lambda       -0.6445047E-03
   maximum displ.:     0.0650329 α      in ANC's #6, #4, #10, ...

........................................................................
.............................. CYCLE    3 ..............................
........................................................................

 iter      E             dE          RMSdq      gap      omega  full diag
   1    -34.1132669 -0.341133E+02  0.657E-02    4.96       0.0  T
   2    -34.1132726 -0.568176E-05  0.380E-02    4.96       1.0  T
   3    -34.1132720  0.585257E-06  0.119E-02    4.96       1.6  T
   4    -34.1132731 -0.105045E-05  0.392E-03    4.96       4.9  T
   5    -34.1132733 -0.250519E-06  0.162E-03    4.96      11.9  T
   6    -34.1132734 -0.205312E-07  0.648E-04    4.96      29.7  T
   7    -34.1132734 -0.664549E-09  0.291E-04    4.96      66.2  T
     SCC iter.                  ...        0 min,  0.004 sec
     gradient                   ...        0 min,  0.006 sec
 * total energy  :   -33.6114848 Eh     change       -0.3889323E-03 Eh
   gradient norm :     0.0050701 Eh/α   predicted    -0.3277231E-03 ( -15.74%)
   displ. norm   :     0.0975965 α      lambda       -0.1450596E-03
   maximum displ.:     0.0649666 α      in ANC's #4, #6, #12, ...

........................................................................
.............................. CYCLE    4 ..............................
........................................................................

 iter      E             dE          RMSdq      gap      omega  full diag
   1    -34.1132089 -0.341132E+02  0.314E-02    4.96       0.0  T
   2    -34.1132099 -0.104451E-05  0.186E-02    4.96       1.0  T
   3    -34.1132098  0.109930E-06  0.488E-03    4.96       3.9  T
   4    -34.1132100 -0.213764E-06  0.155E-03    4.96      12.4  T
   5    -34.1132101 -0.326556E-07  0.694E-04    4.96      27.7  T
   6    -34.1132101 -0.532977E-08  0.226E-04    4.96      85.1  T
     SCC iter.                  ...        0 min,  0.003 sec
     gradient                   ...        0 min,  0.006 sec
 * total energy  :   -33.6115874 Eh     change       -0.1025656E-03 Eh
   gradient norm :     0.0030027 Eh/α   predicted    -0.7322254E-04 ( -28.61%)
   displ. norm   :     0.1412209 α      lambda       -0.1247346E-03
   maximum displ.:     0.1005180 α      in ANC's #4, #6, #3, ...

........................................................................
.............................. CYCLE    5 ..............................
........................................................................

 iter      E             dE          RMSdq      gap      omega  full diag
   1    -34.1115868 -0.341116E+02  0.373E-02    4.95       0.0  T
   2    -34.1115874 -0.647552E-06  0.223E-02    4.95       1.0  T
   3    -34.1115872  0.243273E-06  0.462E-03    4.95       4.2  T
   4    -34.1115875 -0.324143E-06  0.156E-03    4.95      12.4  T
   5    -34.1115875 -0.359832E-07  0.605E-04    4.95      31.8  T
   6    -34.1115875 -0.275944E-08  0.199E-04    4.95      96.8  T
     SCC iter.                  ...        0 min,  0.004 sec
     gradient                   ...        0 min,  0.006 sec
 * total energy  :   -33.6116634 Eh     change       -0.7601840E-04 Eh
   gradient norm :     0.0042547 Eh/α   predicted    -0.6361368E-04 ( -16.32%)
   displ. norm   :     0.1037186 α      lambda       -0.6389392E-04
   maximum displ.:     0.0785043 α      in ANC's #4, #6, #3, ...

........................................................................
.............................. CYCLE    6 ..............................
........................................................................

 iter      E             dE          RMSdq      gap      omega  full diag
   1    -34.1104930 -0.341105E+02  0.265E-02    4.95       0.0  T
   2    -34.1104931 -0.596537E-07  0.158E-02    4.95       1.2  T
   3    -34.1104930  0.230014E-07  0.167E-03    4.95      11.5  T
   4    -34.1104931 -0.428961E-07  0.527E-04    4.95      36.6  T
   5    -34.1104931 -0.233803E-08  0.291E-04    4.95      66.2  T
     SCC iter.                  ...        0 min,  0.003 sec
     gradient                   ...        0 min,  0.006 sec
 * total energy  :   -33.6117080 Eh     change       -0.4456099E-04 Eh
   gradient norm :     0.0037326 Eh/α   predicted    -0.3229131E-04 ( -27.53%)
   displ. norm   :     0.0974257 α      lambda       -0.5341055E-04
   maximum displ.:     0.0691705 α      in ANC's #4, #6, #3, ...

........................................................................
.............................. CYCLE    7 ..............................
........................................................................

 iter      E             dE          RMSdq      gap      omega  full diag
   1    -34.1103792 -0.341104E+02  0.236E-02    4.95       0.0  T
   2    -34.1103794 -0.177311E-06  0.140E-02    4.95       1.4  T
   3    -34.1103793  0.578515E-07  0.229E-03    4.95       8.4  T
   4    -34.1103794 -0.815092E-07  0.799E-04    4.95      24.1  T
   5    -34.1103794 -0.926470E-08  0.319E-04    4.95      60.4  T
     SCC iter.                  ...        0 min,  0.003 sec
     gradient                   ...        0 min,  0.006 sec
 * total energy  :   -33.6117482 Eh     change       -0.4024193E-04 Eh
   gradient norm :     0.0021669 Eh/α   predicted    -0.2696208E-04 ( -33.00%)
   displ. norm   :     0.1140321 α      lambda       -0.4313027E-04
   maximum displ.:     0.0769324 α      in ANC's #4, #6, #3, ...

........................................................................
.............................. CYCLE    8 ..............................
........................................................................

 iter      E             dE          RMSdq      gap      omega  full diag
   1    -34.1109625 -0.341110E+02  0.270E-02    4.95       0.0  T
   2    -34.1109627 -0.217690E-06  0.161E-02    4.95       1.2  T
   3    -34.1109626  0.119782E-06  0.296E-03    4.95       6.5  T
   4    -34.1109628 -0.150595E-06  0.959E-04    4.95      20.1  T
   5    -34.1109628 -0.141687E-07  0.344E-04    4.95      56.0  T
     SCC iter.                  ...        0 min,  0.003 sec
     gradient                   ...        0 min,  0.006 sec
 * total energy  :   -33.6117759 Eh     change       -0.2768981E-04 Eh
   gradient norm :     0.0015348 Eh/α   predicted    -0.2184743E-04 ( -21.10%)
   displ. norm   :     0.0799253 α      lambda       -0.1235396E-04
   maximum displ.:     0.0470645 α      in ANC's #6, #4, #3, ...

........................................................................
.............................. CYCLE    9 ..............................
........................................................................

 iter      E             dE          RMSdq      gap      omega  full diag
   1    -34.1118075 -0.341118E+02  0.187E-02    4.95       0.0  T
   2    -34.1118076 -0.830211E-07  0.111E-02    4.95       1.7  T
   3    -34.1118075  0.100806E-06  0.250E-03    4.95       7.7  T
   4    -34.1118076 -0.119629E-06  0.638E-04    4.95      30.2  T
   5    -34.1118076 -0.563735E-08  0.254E-04    4.95      75.8  T
     SCC iter.                  ...        0 min,  0.003 sec
     gradient                   ...        0 min,  0.006 sec
 * total energy  :   -33.6117865 Eh     change       -0.1054590E-04 Eh
   gradient norm :     0.0012301 Eh/α   predicted    -0.6195167E-05 ( -41.26%)
   displ. norm   :     0.0326906 α      lambda       -0.5478155E-05
   maximum displ.:     0.0177659 α      in ANC's #2, #6, #1, ...

........................................................................
.............................. CYCLE   10 ..............................
........................................................................

 iter      E             dE          RMSdq      gap      omega  full diag
   1    -34.1119622 -0.341120E+02  0.765E-03    4.96       0.0  T
   2    -34.1119622 -0.275937E-07  0.456E-03    4.95       4.2  T
   3    -34.1119622  0.147361E-07  0.109E-03    4.95      17.7  T
   4    -34.1119622 -0.176320E-07  0.347E-04    4.95      55.4  T
   5    -34.1119622 -0.193524E-08  0.112E-04    4.95     172.0  T
     SCC iter.                  ...        0 min,  0.003 sec
     gradient                   ...        0 min,  0.006 sec
 * total energy  :   -33.6117928 Eh     change       -0.6336002E-05 Eh
   gradient norm :     0.0006015 Eh/α   predicted    -0.2742678E-05 ( -56.71%)
   displ. norm   :     0.0644771 α      lambda       -0.6491623E-05
   maximum displ.:     0.0393778 α      in ANC's #6, #2, #1, ...

........................................................................
.............................. CYCLE   11 ..............................
........................................................................

 iter      E             dE          RMSdq      gap      omega  full diag
   1    -34.1115613 -0.341116E+02  0.134E-02    4.96       0.0  T
   2    -34.1115613 -0.390575E-07  0.808E-03    4.96       2.4  T
   3    -34.1115613  0.769008E-08  0.101E-03    4.96      19.0  T
   4    -34.1115613 -0.159569E-07  0.400E-04    4.96      48.1  T
   5    -34.1115613 -0.154468E-08  0.193E-04    4.96      99.9  T
     SCC iter.                  ...        0 min,  0.003 sec
     gradient                   ...        0 min,  0.006 sec
 * total energy  :   -33.6117992 Eh     change       -0.6386350E-05 Eh
   gradient norm :     0.0007617 Eh/α   predicted    -0.3253980E-05 ( -49.05%)
   displ. norm   :     0.0480853 α      lambda       -0.3668273E-05
   maximum displ.:     0.0291170 α      in ANC's #2, #1, #6, ...

........................................................................
.............................. CYCLE   12 ..............................
........................................................................

 iter      E             dE          RMSdq      gap      omega  full diag
   1    -34.1117189 -0.341117E+02  0.995E-03    4.96       0.0  T
   2    -34.1117189 -0.160448E-07  0.592E-03    4.96       3.3  T
   3    -34.1117189  0.147100E-08  0.607E-04    4.96      31.7  T
   4    -34.1117189 -0.513688E-08  0.287E-04    4.96      67.1  T
     SCC iter.                  ...        0 min,  0.002 sec
     gradient                   ...        0 min,  0.007 sec
 * total energy  :   -33.6118025 Eh     change       -0.3278026E-05 Eh
   gradient norm :     0.0008717 Eh/α   predicted    -0.1840170E-05 ( -43.86%)
   displ. norm   :     0.0371324 α      lambda       -0.2235491E-05
   maximum displ.:     0.0215455 α      in ANC's #2, #1, #6, ...

........................................................................
.............................. CYCLE   13 ..............................
........................................................................

 iter      E             dE          RMSdq      gap      omega  full diag
   1    -34.1116105 -0.341116E+02  0.818E-03    4.96       0.0  T
   2    -34.1116105 -0.833720E-08  0.488E-03    4.96       3.9  T
   3    -34.1116105  0.123660E-07  0.916E-04    4.96      21.0  T
   4    -34.1116105 -0.157801E-07  0.202E-04    4.96      95.5  T
     SCC iter.                  ...        0 min,  0.002 sec
     gradient                   ...        0 min,  0.006 sec
 * total energy  :   -33.6118050 Eh     change       -0.2499607E-05 Eh
   gradient norm :     0.0004438 Eh/α   predicted    -0.1119901E-05 ( -55.20%)
   displ. norm   :     0.0382231 α      lambda       -0.1907907E-05
   maximum displ.:     0.0239101 α      in ANC's #2, #1, #6, ...

........................................................................
.............................. CYCLE   14 ..............................
........................................................................

 iter      E             dE          RMSdq      gap      omega  full diag
   1    -34.1116151 -0.341116E+02  0.940E-03    4.96       0.0  T
   2    -34.1116151 -0.100791E-07  0.556E-03    4.96       3.5  T
   3    -34.1116151  0.146213E-07  0.969E-04    4.96      19.9  T
   4    -34.1116151 -0.185687E-07  0.225E-04    4.96      85.3  T
     SCC iter.                  ...        0 min,  0.002 sec
     gradient                   ...        0 min,  0.006 sec
 * total energy  :   -33.6118071 Eh     change       -0.2093414E-05 Eh
   gradient norm :     0.0003450 Eh/α   predicted    -0.9594344E-06 ( -54.17%)
   displ. norm   :     0.0326644 α      lambda       -0.1118629E-05
   maximum displ.:     0.0216348 α      in ANC's #2, #1, #6, ...

........................................................................
.............................. CYCLE   15 ..............................
........................................................................

 iter      E             dE          RMSdq      gap      omega  full diag
   1    -34.1116941 -0.341117E+02  0.818E-03    4.96       0.0  T
   2    -34.1116941 -0.542132E-08  0.484E-03    4.96       4.0  T
   3    -34.1116941  0.151022E-07  0.940E-04    4.96      20.5  T
   4    -34.1116941 -0.181867E-07  0.163E-04    4.96     118.0  T
     SCC iter.                  ...        0 min,  0.002 sec
     gradient                   ...        0 min,  0.007 sec
 * total energy  :   -33.6118083 Eh     change       -0.1220987E-05 Eh
   gradient norm :     0.0003400 Eh/α   predicted    -0.5628300E-06 ( -53.90%)
   displ. norm   :     0.0233338 α      lambda       -0.6954919E-06
   maximum displ.:     0.0166666 α      in ANC's #2, #1, #7, ...

........................................................................
.............................. CYCLE   16 ..............................
........................................................................

 iter      E             dE          RMSdq      gap      omega  full diag
   1    -34.1117470 -0.341117E+02  0.599E-03    4.96       0.0  T
   2    -34.1117470 -0.457921E-08  0.356E-03    4.96       5.4  T
   3    -34.1117470  0.173492E-07  0.994E-04    4.96      19.4  T
   4    -34.1117470 -0.200651E-07  0.131E-04    4.96     147.2  T
     SCC iter.                  ...        0 min,  0.002 sec
     gradient                   ...        0 min,  0.006 sec
 * total energy  :   -33.6118091 Eh     change       -0.7893739E-06 Eh
   gradient norm :     0.0002387 Eh/α   predicted    -0.3509760E-06 ( -55.54%)
   displ. norm   :     0.0237871 α      lambda       -0.6819961E-06
   maximum displ.:     0.0177757 α      in ANC's #2, #7, #4, ...

........................................................................
.............................. CYCLE   17 ..............................
........................................................................

 iter      E             dE          RMSdq      gap      omega  full diag
   1    -34.1117700 -0.341118E+02  0.617E-03    4.96       0.0  T
   2    -34.1117700 -0.335474E-08  0.368E-03    4.96       5.2  T
   3    -34.1117700  0.133066E-07  0.892E-04    4.96      21.6  T
   4    -34.1117700 -0.159836E-07  0.141E-04    4.96     136.8  T
     SCC iter.                  ...        0 min,  0.002 sec
     gradient                   ...        0 min,  0.007 sec
 * total energy  :   -33.6118098 Eh     change       -0.7734371E-06 Eh
   gradient norm :     0.0002163 Eh/α   predicted    -0.3427299E-06 ( -55.69%)
   displ. norm   :     0.0228073 α      lambda       -0.6194567E-06
   maximum displ.:     0.0170250 α      in ANC's #2, #7, #4, ...

........................................................................
.............................. CYCLE   18 ..............................
........................................................................

 iter      E             dE          RMSdq      gap      omega  full diag
   1    -34.1117825 -0.341118E+02  0.601E-03    4.96       0.0  T
   2    -34.1117825 -0.434437E-08  0.359E-03    4.96       5.4  T
   3    -34.1117825  0.100731E-07  0.802E-04    4.96      24.0  T
   4    -34.1117825 -0.125129E-07  0.149E-04    4.96     129.4  T
     SCC iter.                  ...        0 min,  0.002 sec
     gradient                   ...        0 min,  0.006 sec
 * total energy  :   -33.6118106 Eh     change       -0.7171522E-06 Eh
   gradient norm :     0.0002457 Eh/α   predicted    -0.3134953E-06 ( -56.29%)
   displ. norm   :     0.0245874 α      lambda       -0.5588616E-06
   maximum displ.:     0.0181669 α      in ANC's #2, #7, #5, ...

........................................................................
.............................. CYCLE   19 ..............................
........................................................................

 iter      E             dE          RMSdq      gap      omega  full diag
   1    -34.1117280 -0.341117E+02  0.652E-03    4.96       0.0  T
   2    -34.1117280 -0.301242E-08  0.388E-03    4.96       5.0  T
   3    -34.1117280  0.438130E-08  0.572E-04    4.96      33.6  T
   4    -34.1117280 -0.618913E-08  0.143E-04    4.96     135.0  T
     SCC iter.                  ...        0 min,  0.002 sec
     gradient                   ...        0 min,  0.007 sec
 * total energy  :   -33.6118112 Eh     change       -0.6416584E-06 Eh
   gradient norm :     0.0002213 Eh/α   predicted    -0.2833494E-06 ( -55.84%)
   displ. norm   :     0.0177536 α      lambda       -0.3699442E-06
   maximum displ.:     0.0125873 α      in ANC's #2, #5, #7, ...

........................................................................
.............................. CYCLE   20 ..............................
........................................................................

 iter      E             dE          RMSdq      gap      omega  full diag
   1    -34.1117330 -0.341117E+02  0.464E-03    4.96       0.0  T
   2    -34.1117330 -0.112875E-08  0.275E-03    4.96       7.0  T
   3    -34.1117330  0.189552E-08  0.366E-04    4.96      52.6  T
   4    -34.1117330 -0.260140E-08  0.882E-05    4.96     218.3  T
     SCC iter.                  ...        0 min,  0.002 sec
     gradient                   ...        0 min,  0.006 sec
 * total energy  :   -33.6118116 Eh     change       -0.4245165E-06 Eh
   gradient norm :     0.0002099 Eh/α   predicted    -0.1876744E-06 ( -55.79%)
   displ. norm   :     0.0171299 α      lambda       -0.3181653E-06
   maximum displ.:     0.0121798 α      in ANC's #2, #5, #1, ...
 * RMSD in coord.:     0.1748161 α      energy gain  -0.2379828E-02 Eh

generating ANC from exact Hessian ...
Using Lindh-Hessian (1995)
 Shifting diagonal of input Hessian by   8.606455958335788E-003
 Lowest  eigenvalues of input Hessian
    0.000000    0.000000    0.000000    0.000000    0.000000    0.000000
    0.010000    0.010298    0.011826    0.014353    0.016448    0.016948
    0.018035    0.019104    0.020415    0.021703    0.022606    0.025989
 Highest eigenvalues
    1.282727    1.457157    1.518165    1.538864    1.913127    1.922996
 

........................................................................
.............................. CYCLE   21 ..............................
........................................................................

 iter      E             dE          RMSdq      gap      omega  full diag
   1    -34.1117099 -0.341117E+02  0.493E-03    4.96       0.0  T
   2    -34.1117099 -0.145964E-08  0.292E-03    4.96       6.6  T
   3    -34.1117099  0.484388E-08  0.533E-04    4.96      36.1  T
   4    -34.1117100 -0.572707E-08  0.728E-05    4.96     264.4  T
     SCC iter.                  ...        0 min,  0.002 sec
     gradient                   ...        0 min,  0.006 sec
 * total energy  :   -33.6118120 Eh     change       -0.3791664E-06 Eh
   gradient norm :     0.0001668 Eh/α   predicted     0.0000000E+00 (-100.00%)
   displ. norm   :     0.0044182 α      lambda       -0.2487689E-07
   maximum displ.:     0.0031852 α      in ANC's #2, #12, #1, ...

........................................................................
.............................. CYCLE   22 ..............................
........................................................................

 iter      E             dE          RMSdq      gap      omega  full diag
   1    -34.1117343 -0.341117E+02  0.187E-03    4.96       0.0  T
   2    -34.1117343 -0.341387E-09  0.111E-03    4.96      17.3  T
   3    -34.1117343  0.114106E-09  0.116E-04    4.96     166.3  T
   4    -34.1117343 -0.241158E-09  0.485E-05    4.96     396.6  T
     SCC iter.                  ...        0 min,  0.002 sec
     gradient                   ...        0 min,  0.006 sec
 * total energy  :   -33.6118122 Eh     change       -0.2216466E-06 Eh
   gradient norm :     0.0000793 Eh/α   predicted    -0.9009870E-07 ( -59.35%)
   displ. norm   :     0.0142066 α      lambda       -0.4348543E-06
   maximum displ.:     0.0095926 α      in ANC's #2, #12, #1, ...

........................................................................
.............................. CYCLE   23 ..............................
........................................................................

 iter      E             dE          RMSdq      gap      omega  full diag
   1    -34.1117602 -0.341118E+02  0.565E-03    4.96       0.0  T
   2    -34.1117602 -0.293291E-08  0.337E-03    4.96       5.7  T
   3    -34.1117602  0.120687E-08  0.399E-04    4.96      48.2  T
   4    -34.1117602 -0.261495E-08  0.134E-04    4.96     143.7  T
     SCC iter.                  ...        0 min,  0.002 sec
     gradient                   ...        0 min,  0.007 sec
 * total energy  :   -33.6118126 Eh     change       -0.4239676E-06 Eh
   gradient norm :     0.0001674 Eh/α   predicted    -0.2176356E-06 ( -48.67%)
   displ. norm   :     0.0104767 α      lambda       -0.1741605E-06
   maximum displ.:     0.0071611 α      in ANC's #2, #1, #12, ...

........................................................................
.............................. CYCLE   24 ..............................
........................................................................

 iter      E             dE          RMSdq      gap      omega  full diag
   1    -34.1117363 -0.341117E+02  0.416E-03    4.96       0.0  T
   2    -34.1117363 -0.144492E-08  0.248E-03    4.96       7.8  T
   3    -34.1117363  0.593751E-09  0.285E-04    4.96      67.5  T
   4    -34.1117363 -0.136443E-08  0.960E-05    4.96     200.4  T
     SCC iter.                  ...        0 min,  0.002 sec
     gradient                   ...        0 min,  0.007 sec
 * total energy  :   -33.6118128 Eh     change       -0.1345668E-06 Eh
   gradient norm :     0.0001104 Eh/α   predicted    -0.8747549E-07 ( -34.99%)
   displ. norm   :     0.0063678 α      lambda       -0.9059559E-07
   maximum displ.:     0.0043027 α      in ANC's #2, #1, #5, ...

........................................................................
.............................. CYCLE   25 ..............................
........................................................................

 iter      E             dE          RMSdq      gap      omega  full diag
   1    -34.1117287 -0.341117E+02  0.230E-03    4.96       0.0  T
   2    -34.1117287 -0.379266E-09  0.136E-03    4.96      14.1  T
   3    -34.1117287  0.696524E-09  0.222E-04    4.96      86.7  T
   4    -34.1117287 -0.948177E-09  0.479E-05    4.96     401.9  T
     SCC iter.                  ...        0 min,  0.002 sec
     gradient                   ...        0 min,  0.007 sec
 * total energy  :   -33.6118129 Eh     change       -0.9163806E-07 Eh
   gradient norm :     0.0000748 Eh/α   predicted    -0.5161140E-07 ( -43.68%)
   displ. norm   :     0.0053469 α      lambda       -0.7481688E-07
   maximum displ.:     0.0034939 α      in ANC's #2, #1, #5, ...

   *** GEOMETRY OPTIMIZATION CONVERGED AFTER 25 ITERATIONS ***

------------------------------------------------------------------------
 total energy gain   :        -0.0023811 Eh       -1.4941 kcal/mol
 total RMSD          :         0.1752744 a0        0.0928 Å
 total power (kW/mol):        -0.2500609 (step)  -17.7896 (real)
------------------------------------------------------------------------

 ANCopt (total)                0 d,  0 h,  0 min,  0.351 sec
 optimizer setup                ...        0 min,  0.001 sec (  0.245%)
 model hessian                  ...        0 min,  0.023 sec (  6.552%)
 ANC generation                 ...        0 min,  0.001 sec (  0.273%)
 coordinate transformation      ...        0 min,  0.000 sec (  0.040%)
 single point calculation       ...        0 min,  0.317 sec ( 90.177%)
 optimization log               ...        0 min,  0.008 sec (  2.180%)
 hessian update                 ...        0 min,  0.000 sec (  0.041%)
 rational function              ...        0 min,  0.001 sec (  0.269%)

================
 final structure:
================
$coord
       -6.46983446464609        1.10136035706396        0.14598798772422      C
       -3.64505282825712        0.93306402405074        0.14883887477349      C
       -2.15345794370880        2.81933074481989       -0.55271585202865      C
        0.67135499418056        2.70816201441120       -0.61084334758353      C
        1.61658820970142       -0.02824469874707       -0.50591379798766      C
        1.07065248849754       -0.94581379637636       -2.28037904724136      H
        0.22162243008367       -1.38364432151200        1.63263064964639      C
       -2.58307639556387       -1.59565315089053        0.95509258641052      C
       -3.64319853491573       -2.25615163024416        2.62595675785422      H
       -3.00801640762142       -3.31714073836245       -1.06741071891272      O
        4.45298755036494       -0.14430952614816       -0.25854997993821      C
        5.89008058364480       -0.75813782447776       -2.21359043167513      C
        5.56716654505686        0.47545344278920        2.27058132522483      C
       -7.19929702963147        0.89391484601159        2.06038188904414      H
       -7.24263994744217       -0.42679534586011       -0.99539132659631      H
       -7.09944954724744        2.89938208260406       -0.61781174315673      H
       -2.98088913615213        4.60442169357794       -1.10937598892957      H
        1.36588112545768        3.62370531058909       -2.32580591548603      H
        1.41084282064363        3.78052269597500        0.99614567549073      H
        1.01037589298148       -3.26936018124333        1.92127297173861      H
        0.39178875282765       -0.32040243683575        3.38905992209920      H
       -2.38372503431227       -4.96444010689848       -0.58601719094970      H
        7.92066181347660       -0.81814685858693       -2.08313995428301      H
        5.09547278710289       -1.22486447307427       -4.02873584017329      H
        5.10075228418930       -0.99383785608813        3.63333295719234      H
        7.61134468562143        0.61798152708735        2.14205782969040      H
        4.82396123467417        2.25438439383378        2.98396014324655      H
$end
 
 Bond Distances (Angstroems)
 ---------------------------
C1-C2=1.4975         C1-H14=1.0896        C1-H15=1.0890        C1-H16=1.0861        C2-C1=1.4975         C2-C3=1.3256         
C2-C8=1.5128         C3-C2=1.3256         C3-C4=1.4963         C3-H17=1.0820        C4-C3=1.4963         C4-C5=1.5330         
C4-H18=1.0924        C4-H19=1.0947        C5-C4=1.5330         C5-H6=1.0959         C5-C7=1.5297         C5-C11=1.5079        
H6-C5=1.0959         C7-C5=1.5297         C7-C8=1.5310         C7-H20=1.0924        C7-H21=1.0902        C8-C2=1.5128         
C8-C7=1.5310         C8-H9=1.1039         C8-O10=1.4233        H9-C8=1.1039         O10-C8=1.4233        O10-H22=0.9664       
C11-C5=1.5079        C11-C12=1.3244       C11-C13=1.4988       C12-C11=1.3244       C12-H23=1.0772       C12-H24=1.0772       
C13-C11=1.4988       C13-H25=1.0888       C13-H26=1.0865       C13-H27=1.0878       H14-C1=1.0896        H15-C1=1.0890        
H16-C1=1.0861        H17-C3=1.0820        H18-C4=1.0924        H19-C4=1.0947        H20-C7=1.0924        H21-C7=1.0902        
H22-O10=0.9664       H23-C12=1.0772       H24-C12=1.0772       H25-C13=1.0888       H26-C13=1.0865       H27-C13=1.0878       
 C  H  Rav=1.0889 sigma=0.0067  Rmin=1.0772  Rmax=1.1039    15
 C  C  Rav=1.4757 sigma=0.0765  Rmin=1.3244  Rmax=1.5330    10
 O  H  Rav=0.9664 sigma=0.0000  Rmin=0.9664  Rmax=0.9664     1
 O  C  Rav=1.4233 sigma=0.0000  Rmin=1.4233  Rmax=1.4233     1
 
 selected bond angles (degree)
 --------------------
H14-C1-C2=110.29               H15-C1-C2=109.34               H15-C1-H14=107.93              H16-C1-C2=111.02               
H16-C1-H14=109.00              H16-C1-H15=109.20              C3-C2-C1=123.32                C8-C2-C1=115.07                
C8-C2-C3=121.59                C4-C3-C2=124.82                H17-C3-C2=119.52               H17-C3-C4=115.66               
C5-C4-C3=111.24                H18-C4-C3=109.62               H18-C4-C5=109.83               H19-C4-C3=108.71               
H19-C4-C5=110.17               H19-C4-H18=107.17              H6-C5-C4=107.55                C7-C5-C4=108.19                
C7-C5-H6=107.39                C11-C5-C4=111.49               C11-C5-H6=108.59               C11-C5-C7=113.39               
C8-C7-C5=109.20                H20-C7-C5=110.33               H20-C7-C8=109.65               H21-C7-C5=110.42               
H21-C7-C8=108.51               H21-C7-H20=108.70              C7-C8-C2=111.18                H9-C8-C2=108.49                
H9-C8-C7=109.16                O10-C8-C2=107.18               O10-C8-C7=112.10               O10-C8-H9=108.62               
H22-O10-C8=108.97              
 
 selected dihedral angles (degree)
 ---------------------------------
C3-C2-C1-H14=242.93           C3-C2-C1-H15=124.40           C3-C2-C1-H16=  3.85           C8-C2-C1-H14= 64.44           
C8-C2-C1-H15=305.91           C8-C2-C1-H16=185.36           C4-C3-C2-C1=180.94            C4-C3-C2-C8=359.34            
H17-C3-C2-C1=  1.88           H17-C3-C2-C8=180.28           C5-C4-C3-C2= 16.40            C5-C4-C3-H17=195.49           
H18-C4-C3-C2=138.06           H18-C4-C3-H17=317.16          H19-C4-C3-C2=254.91           H19-C4-C3-H17= 74.00          
H6-C5-C4-C3= 67.68            H6-C5-C4-H18=306.13           H6-C5-C4-H19=188.31           C7-C5-C4-C3=311.96            
C7-C5-C4-H18=190.42           C7-C5-C4-H19= 72.59           C11-C5-C4-C3=186.61           C11-C5-C4-H18= 65.07          
C11-C5-C4-H19=307.24          C8-C7-C5-C4= 66.46            C8-C7-C5-H6=310.65            C8-C7-C5-C11=190.68           
H20-C7-C5-C4=187.04           H20-C7-C5-H6= 71.22           H20-C7-C5-C11=311.26          H21-C7-C5-C4=307.22           
H21-C7-C5-H6=191.41           H21-C7-C5-C11= 71.44          C7-C8-C2-C1=196.34            C7-C8-C2-C3= 17.82            
H9-C8-C2-C1=316.40            H9-C8-C2-C3=137.88            O10-C8-C2-C1= 73.52           O10-C8-C2-C3=255.00           
C2-C8-C7-C5=309.74            C2-C8-C7-H20=188.75           C2-C8-C7-H21= 70.16           H9-C8-C7-C5=190.09            
H9-C8-C7-H20= 69.10           H9-C8-C7-H21=310.50           O10-C8-C7-C5= 69.69           O10-C8-C7-H20=308.70          
O10-C8-C7-H21=190.11          H22-O10-C8-C2=181.41          H22-O10-C8-C7= 59.15          H22-O10-C8-H9=298.44          
           -------------------------------------------------
          |                Final Singlepoint                |
           -------------------------------------------------

          ...................................................
          :                      SETUP                      :
          :.................................................:
          :  # basis functions                  60          :
          :  # atomic orbitals                  60          :
          :  # shells                           38          :
          :  # electrons                        62          :
          :  max. iterations                   250          :
          :  Hamiltonian                  GFN2-xTB          :
          :  restarted?                      false          :
          :  GBSA solvation                   true          :
          :  PC potential                    false          :
          :  electronic temp.          300.0000000     K    :
          :  accuracy                    1.0000000          :
          :  -> integral cutoff          0.2500000E+02      :
          :  -> integral neglect         0.1000000E-07      :
          :  -> SCF convergence          0.1000000E-05 Eh   :
          :  -> wf. convergence          0.1000000E-03 e    :
          :  Broyden damping             0.4000000          :
          :  net charge                          0          :
          :  unpaired electrons                  0          :
          ...................................................

 iter      E             dE          RMSdq      gap      omega  full diag
   1    -34.1117287 -0.341117E+02  0.243E-05    4.96       0.0  T
   2    -34.1117287 -0.144240E-11  0.157E-05    4.96    1225.1  T
   3    -34.1117287  0.639488E-13  0.106E-05    4.96    1815.2  T

   *** convergence criteria satisfied after 3 iterations ***

         #    Occupation            Energy/Eh            Energy/eV
      -------------------------------------------------------------
         1        2.0000           -0.6830302             -18.5862
       ...           ...                  ...                  ...
        25        2.0000           -0.4379433             -11.9170
        26        2.0000           -0.4282575             -11.6535
        27        2.0000           -0.4233238             -11.5192
        28        2.0000           -0.4110051             -11.1840
        29        2.0000           -0.3999996             -10.8845
        30        2.0000           -0.3853923             -10.4871
        31        2.0000           -0.3786514             -10.3036 (HOMO)
        32                         -0.1963660              -5.3434 (LUMO)
        33                         -0.1903286              -5.1791
        34                          0.0608704               1.6564
        35                          0.0658013               1.7905
        36                          0.0822676               2.2386
       ...                                ...                  ...
        60                          0.6509404              17.7130
      -------------------------------------------------------------
                  HL-Gap            0.1822854 Eh            4.9602 eV
             Fermi-level           -0.2875087 Eh           -7.8235 eV

 SCC (total)                   0 d,  0 h,  0 min,  0.012 sec
 SCC setup                      ...        0 min,  0.001 sec ( 10.912%)
 Dispersion                     ...        0 min,  0.000 sec (  0.690%)
 classical contributions        ...        0 min,  0.000 sec (  0.205%)
 integral evaluation            ...        0 min,  0.002 sec ( 17.451%)
 iterations                     ...        0 min,  0.002 sec ( 18.288%)
 molecular gradient             ...        0 min,  0.006 sec ( 51.603%)
 printout                       ...        0 min,  0.000 sec (  0.762%)

         :::::::::::::::::::::::::::::::::::::::::::::::::::::
         ::                     SUMMARY                     ::
         :::::::::::::::::::::::::::::::::::::::::::::::::::::
         :: total energy             -33.611812869527 Eh    ::
         :: total w/o Gsasa/hb       -33.606868685929 Eh    ::
         :: gradient norm              0.000074792703 Eh/a0 ::
         :: HOMO-LUMO gap              4.960239397493 eV    ::
         ::.................................................::
         :: SCC energy               -34.111582818409 Eh    ::
         :: -> isotropic ES            0.038737228356 Eh    ::
         :: -> anisotropic ES          0.006175614815 Eh    ::
         :: -> anisotropic XC          0.015639018166 Eh    ::
         :: -> dispersion             -0.022131815766 Eh    ::
         :: -> Gsolv                  -0.009546345208 Eh    ::
         ::    -> Gelec               -0.004602161609 Eh    ::
         ::    -> Gsasa               -0.000527951608 Eh    ::
         ::    -> Ghb                 -0.005496991689 Eh    ::
         ::    -> Gshift               0.001080759698 Eh    ::
         :: repulsion energy           0.499769948882 Eh    ::
         :: add. restraining           0.000000000000 Eh    ::
         :: total charge              -0.000000000000 e     ::
         :::::::::::::::::::::::::::::::::::::::::::::::::::::

           ------------------------------------------------- 
          |                Numerical Hessian                |
           ------------------------------------------------- 
step length          :   0.00500
SCC accuracy         :   0.30000
Hessian scale factor :   1.00000
frozen atoms in %    :   0.00000    0
RMS gradient         :   0.00007
estimated CPU  time      0.04 min
estimated wall time      0.04 min

writing file <hessian>.

 projected vibrational frequencies (cm⁻¹)
eigval :       -0.00    -0.00    -0.00    -0.00     0.00     0.00
eigval :       46.04    64.50   114.42   139.50   151.50   166.47
eigval :      226.44   239.61   273.53   285.94   315.31   343.37
eigval :      389.76   457.55   491.39   522.34   549.81   596.48
eigval :      673.69   714.24   791.89   817.46   881.41   893.11
eigval :      915.49   929.94   954.87   979.33   992.74  1029.95
eigval :     1034.13  1036.20  1054.21  1079.97  1089.99  1146.24
eigval :     1146.74  1166.67  1189.40  1218.66  1251.96  1274.77
eigval :     1285.78  1300.57  1311.53  1332.32  1347.39  1362.57
eigval :     1394.13  1396.09  1425.83  1461.34  1469.06  1471.26
eigval :     1480.58  1481.57  1484.57  1719.57  1748.06  2805.60
eigval :     2925.49  2934.34  2961.57  2968.45  2991.83  2995.88
eigval :     3009.39  3018.03  3026.09  3044.95  3046.99  3049.07
eigval :     3095.04  3111.48  3505.54
           -------------------------------------------------
          |                Property Printout                |
           -------------------------------------------------

    * Orbital Energies and Occupations

         #    Occupation            Energy/Eh            Energy/eV
      -------------------------------------------------------------
         1        2.0000           -0.6830302             -18.5862
       ...           ...                  ...                  ...
        19        2.0000           -0.4738443             -12.8940
        20        2.0000           -0.4720658             -12.8456
        21        2.0000           -0.4684104             -12.7461
        22        2.0000           -0.4597163             -12.5095
        23        2.0000           -0.4483349             -12.1998
        24        2.0000           -0.4440258             -12.0826
        25        2.0000           -0.4379433             -11.9170
        26        2.0000           -0.4282575             -11.6535
        27        2.0000           -0.4233238             -11.5192
        28        2.0000           -0.4110051             -11.1840
        29        2.0000           -0.3999996             -10.8845
        30        2.0000           -0.3853923             -10.4871
        31        2.0000           -0.3786514             -10.3036 (HOMO)
        32                         -0.1963660              -5.3434 (LUMO)
        33                         -0.1903286              -5.1791
        34                          0.0608703               1.6564
        35                          0.0658013               1.7905
        36                          0.0822676               2.2386
        37                          0.0949002               2.5824
        38                          0.0980923               2.6692
        39                          0.1176053               3.2002
        40                          0.1288862               3.5072
        41                          0.1420294               3.8648
        42                          0.1441926               3.9237
       ...                                ...                  ...
        60                          0.6509404              17.7130
      -------------------------------------------------------------
                  HL-Gap            0.1822854 Eh            4.9602 eV
             Fermi-level           -0.2875087 Eh           -7.8235 eV

     #   Z          covCN         q      C6AA      α(0)
     1   6 C        3.758    -0.119    22.826     6.811
     2   6 C        2.942    -0.008    28.212     8.711
     3   6 C        2.897    -0.054    29.340     8.881
     4   6 C        3.812    -0.060    21.643     6.622
     5   6 C        3.865    -0.024    20.963     6.511
     6   1 H        0.924     0.044     2.401     2.423
     7   6 C        3.809    -0.072    21.873     6.657
     8   6 C        3.734     0.116    18.773     6.184
     9   1 H        0.923     0.011     2.881     2.654
    10   8 O        1.655    -0.516    23.244     6.508
    11   6 C        2.939     0.012    27.758     8.641
    12   6 C        2.846    -0.117    30.970     9.121
    13   6 C        3.759    -0.119    22.837     6.813
    14   1 H        0.925     0.051     2.313     2.378
    15   1 H        0.925     0.057     2.238     2.340
    16   1 H        0.925     0.045     2.389     2.417
    17   1 H        0.925     0.032     2.552     2.498
    18   1 H        0.924     0.043     2.410     2.428
    19   1 H        0.924     0.048     2.343     2.394
    20   1 H        0.924     0.034     2.526     2.485
    21   1 H        0.924     0.044     2.393     2.419
    22   1 H        0.805     0.345     0.599     1.215
    23   1 H        0.926     0.031     2.571     2.508
    24   1 H        0.926     0.027     2.635     2.538
    25   1 H        0.925     0.055     2.263     2.353
    26   1 H        0.925     0.046     2.366     2.405
    27   1 H        0.925     0.050     2.314     2.379

 Mol. C6AA /au·bohr⁶  :       6117.654964
 Mol. C8AA /au·bohr⁸  :     137269.723024
 Mol. α(0) /au        :        119.296156


Wiberg/Mayer (AO) data.
largest (>0.10) Wiberg bond orders for each atom

 ---------------------------------------------------------------------------
     #   Z sym  total        # sym  WBO       # sym  WBO       # sym  WBO
 ---------------------------------------------------------------------------
     1   6 C    3.996 --     2 C    1.026    16 H    0.985    15 H    0.971
                            14 H    0.971
     2   6 C    3.986 --     3 C    1.890     1 C    1.026     8 C    0.984
     3   6 C    3.989 --     2 C    1.890     4 C    1.025    17 H    0.964
     4   6 C    3.998 --     3 C    1.025     5 C    0.979    18 H    0.967
                            19 H    0.953
     5   6 C    3.994 --    11 C    0.999     7 C    0.989     4 C    0.979
                             6 H    0.963
     6   1 H    0.998 --     5 C    0.963
     7   6 C    3.997 --     5 C    0.989     8 C    0.988    20 H    0.974
                            21 H    0.974
     8   6 C    3.951 --     7 C    0.988     2 C    0.984    10 O    0.972
                             9 H    0.957
     9   1 H    0.999 --     8 C    0.957
    10   8 O    1.913 --     8 C    0.972    22 H    0.864
    11   6 C    3.987 --    12 C    1.927    13 C    1.027     5 C    0.999
    12   6 C    3.986 --    11 C    1.927    24 H    0.976    23 H    0.975
    13   6 C    3.996 --    11 C    1.027    26 H    0.984    27 H    0.970
                            25 H    0.967
    14   1 H    0.997 --     1 C    0.971
    15   1 H    0.997 --     1 C    0.971
    16   1 H    0.998 --     1 C    0.985
    17   1 H    0.998 --     3 C    0.964
    18   1 H    0.998 --     4 C    0.967
    19   1 H    0.998 --     4 C    0.953
    20   1 H    0.999 --     7 C    0.974
    21   1 H    0.998 --     7 C    0.974
    22   1 H    0.881 --    10 O    0.864
    23   1 H    0.998 --    12 C    0.975
    24   1 H    0.999 --    12 C    0.976
    25   1 H    0.997 --    13 C    0.967
    26   1 H    0.998 --    13 C    0.984
    27   1 H    0.997 --    13 C    0.970
 ---------------------------------------------------------------------------

Topologies differ in total number of bonds
Writing topology from bond orders to xtbtopo.mol

molecular dipole:
                 x           y           z       tot (Debye)
 q only:        0.199      -0.033       0.740
   full:        0.242      -0.161       0.884       2.365
molecular quadrupole (traceless):
                xx          xy          yy          xz          yz          zz
 q only:       -1.837      -0.401       3.467      -0.204      -1.727      -1.629
  q+dip:       -2.545      -0.018       4.244      -1.668      -2.853      -1.699
   full:       -2.972      -0.231       4.676      -1.183      -2.640      -1.704

           -------------------------------------------------
          |                Geometry Summary                 |
           -------------------------------------------------

      molecular mass/u    :      152.2338159
   center of mass at/Å    :        0.0000926      -0.0000607       0.0029273
  moments of inertia/u·Å² :        0.2352730E+03   0.7500743E+03   0.8266952E+03
rotational constants/cm⁻¹ :        0.7165136E-01   0.2247462E-01   0.2039159E-01

 * 22 selected distances

     #   Z          #   Z                                           value/Å
     2   6 C        3   6 C                                       1.3255902
     4   6 C        5   6 C                                       1.5330072 (max)
     5   6 C        6   1 H                                       1.0958833
     5   6 C        7   6 C                                       1.5297168
     7   6 C        8   6 C                                       1.5309914
     8   6 C        9   1 H                                       1.1039282
     8   6 C       10   8 O                                       1.4233406
    11   6 C       12   6 C                                       1.3244457
     1   6 C       14   1 H                                       1.0896495
     1   6 C       15   1 H                                       1.0890302
     1   6 C       16   1 H                                       1.0861274
     3   6 C       17   1 H                                       1.0820430
     4   6 C       18   1 H                                       1.0924252
     4   6 C       19   1 H                                       1.0946698
     7   6 C       20   1 H                                       1.0923853
     7   6 C       21   1 H                                       1.0902186
    10   8 O       22   1 H                                       0.9663934 (min)
    12   6 C       23   1 H                                       1.0772207
    12   6 C       24   1 H                                       1.0772349
    13   6 C       25   1 H                                       1.0888009
    13   6 C       26   1 H                                       1.0864896
    13   6 C       27   1 H                                       1.0878241

 * 4 distinct bonds (by element types)

   Z      Z             #   av. dist./Å        max./Å        min./Å
   1 H    6 C          15     1.0889287     1.1039282     1.0772207
   6 C    6 C           5     1.4487503     1.5330072     1.3244457
   1 H    8 O           1     0.9663934     0.9663934     0.9663934
   6 C    8 O           1     1.4233406     1.4233406     1.4233406

           -------------------------------------------------
          |               Frequency Printout                |
           -------------------------------------------------
 projected vibrational frequencies (cm⁻¹)
eigval :       -0.00    -0.00    -0.00    -0.00     0.00     0.00
eigval :       46.04    64.50   114.42   139.50   151.50   166.47
eigval :      226.44   239.61   273.53   285.94   315.31   343.37
eigval :      389.76   457.55   491.39   522.34   549.81   596.48
eigval :      673.69   714.24   791.89   817.46   881.41   893.11
eigval :      915.49   929.94   954.87   979.33   992.74  1029.95
eigval :     1034.13  1036.20  1054.21  1079.97  1089.99  1146.24
eigval :     1146.74  1166.67  1189.40  1218.66  1251.96  1274.77
eigval :     1285.78  1300.57  1311.53  1332.32  1347.39  1362.57
eigval :     1394.13  1396.09  1425.83  1461.34  1469.06  1471.26
eigval :     1480.58  1481.57  1484.57  1719.57  1748.06  2805.60
eigval :     2925.49  2934.34  2961.57  2968.45  2991.83  2995.88
eigval :     3009.39  3018.03  3026.09  3044.95  3046.99  3049.07
eigval :     3095.04  3111.48  3505.54
 reduced masses (amu)
   1: 11.24   2: 11.22   3: 10.65   4: 10.55   5: 10.52   6: 10.87   7:  8.99   8:  9.26
   9: 11.39  10:  2.74  11:  1.67  12:  8.25  13: 11.42  14:  8.60  15:  8.27  16:  3.10
  17:  8.94  18:  8.22  19:  9.04  20:  8.40  21:  8.95  22:  8.57  23: 10.24  24: 10.51
  25: 10.20  26:  1.98  27:  8.98  28:  3.63  29:  6.33  30:  3.79  31:  9.14  32:  7.25
  33:  6.45  34:  5.99  35:  6.78  36:  4.49  37:  4.68  38:  5.09  39:  5.70  40:  8.33
  41:  6.10  42:  7.43  43:  4.88  44:  8.68  45:  2.81  46:  3.43  47:  5.65  48:  5.76
  49:  7.15  50:  3.65  51:  2.87  52:  5.16  53:  5.66  54:  6.58  55:  3.40  56:  3.26
  57:  2.59  58:  1.94  59:  1.84  60:  1.57  61:  1.65  62:  1.69  63:  1.71  64: 11.31
  65: 11.60  66:  1.71  67:  1.80  68:  1.81  69:  1.81  70:  1.59  71:  1.66  72:  1.87
  73:  1.90  74:  1.58  75:  1.64  76:  1.71  77:  1.59  78:  1.78  79:  1.52  80:  2.08
  81:  1.87
 IR intensities (km·mol⁻¹)
   1:  0.01   2:  0.08   3:  0.40   4:  0.14   5:  0.04   6:  0.59   7:  0.11   8:  0.05
   9:  0.55  10:  0.45  11:  0.91  12:  1.22  13:  9.04  14:  1.24  15:  1.03  16:184.64
  17: 43.83  18:  2.81  19:  1.51  20:  0.75  21:  1.36  22:  2.36  23:  2.86  24:  6.83
  25:  1.99  26:  0.07  27:  1.43  28:  1.09  29:  8.40  30: 25.49  31:  5.16  32:  0.42
  33: 27.74  34: 11.15  35: 46.68  36:  7.61  37: 12.13  38:  4.61  39:  1.73  40: 48.49
  41: 27.91  42:  3.04  43: 67.24  44: 87.27  45: 59.78  46:  0.30  47: 16.25  48:  5.29
  49: 14.81  50:  6.87  51: 26.54  52:  2.14  53:  2.12  54: 13.66  55:  1.80  56:  8.42
  57: 12.16  58:  0.56  59:  2.46  60:  3.44  61:  3.18  62:  5.95  63:  1.86  64: 33.92
  65:  1.17  66:185.82  67:  4.68  68:112.21  69:110.63  70: 74.79  71: 52.07  72: 60.33
  73: 42.26  74: 46.10  75: 54.33  76:  5.22  77: 68.62  78:164.95  79: 64.18  80:111.91
  81: 54.18
 Raman intensities (Ä⁴*amu⁻¹)
   1:  0.00   2:  0.00   3:  0.00   4:  0.00   5:  0.00   6:  0.00   7:  0.00   8:  0.00
   9:  0.00  10:  0.00  11:  0.00  12:  0.00  13:  0.00  14:  0.00  15:  0.00  16:  0.00
  17:  0.00  18:  0.00  19:  0.00  20:  0.00  21:  0.00  22:  0.00  23:  0.00  24:  0.00
  25:  0.00  26:  0.00  27:  0.00  28:  0.00  29:  0.00  30:  0.00  31:  0.00  32:  0.00
  33:  0.00  34:  0.00  35:  0.00  36:  0.00  37:  0.00  38:  0.00  39:  0.00  40:  0.00
  41:  0.00  42:  0.00  43:  0.00  44:  0.00  45:  0.00  46:  0.00  47:  0.00  48:  0.00
  49:  0.00  50:  0.00  51:  0.00  52:  0.00  53:  0.00  54:  0.00  55:  0.00  56:  0.00
  57:  0.00  58:  0.00  59:  0.00  60:  0.00  61:  0.00  62:  0.00  63:  0.00  64:  0.00
  65:  0.00  66:  0.00  67:  0.00  68:  0.00  69:  0.00  70:  0.00  71:  0.00  72:  0.00
  73:  0.00  74:  0.00  75:  0.00  76:  0.00  77:  0.00  78:  0.00  79:  0.00  80:  0.00
  81:  0.00
 output can be read by thermo (or use thermo option).
 writing <g98.out> molden fake output.
 recommended (thermochemical) frequency scaling factor: 1.0
           -------------------------------------------------
          |             Thermodynamic Functions             |
           -------------------------------------------------

Molecule has no symmetry elements
It seems to be the C1 point group
c1  symmetry found (for desy threshold:  0.10E+00) used in thermo

          ...................................................
          :                      SETUP                      :
          :.................................................:
          :  # frequencies                          75      :
          :  # imaginary freq.                       0      :
          :  linear?                             false      :
          :  only rotor calc.                    false      :
          :  symmetry                               c1      :
          :  rotational number                       1      :
          :  scaling factor                  1.0000000      :
          :  rotor cutoff                    0.0000000 cm⁻¹ :
          :  imag. cutoff                 -100.0000000 cm⁻¹ :
          :.................................................:

    mode    ω/cm⁻¹     T·S(HO)/kcal·mol⁻¹    T·S(FR)/kcal·mol⁻¹   T·S(vib)
   ------------------------------------------------------------------------
       1     46.04    -1.48492 (100.00%)    -1.08079 (  0.00%)    -1.48492
       2     64.50    -1.28636 (100.00%)    -0.98098 (  0.00%)    -1.28636
       3    114.42    -0.95183 (100.00%)    -0.81123 (  0.00%)    -0.95183
       4    139.50    -0.83801 (100.00%)    -0.75253 (  0.00%)    -0.83801
       5    151.50    -0.79109 (100.00%)    -0.72810 (  0.00%)    -0.79109
       6    166.47    -0.73790 (100.00%)    -0.70018 (  0.00%)    -0.73790
       7    226.44    -0.56858 (100.00%)    -0.60906 (  0.00%)    -0.56858
       8    239.61    -0.53839 (100.00%)    -0.59231 (  0.00%)    -0.53839
       9    273.53    -0.46923 (100.00%)    -0.55309 (  0.00%)    -0.46923
      10    285.94    -0.44660 (100.00%)    -0.53995 (  0.00%)    -0.44660
   ------------------------------------------------------------------------

   temp. (K)  partition function   enthalpy   heat capacity  entropy
                                   cal/mol     cal/K/mol   cal/K/mol   J/K/mol
 298.15  VIB  0.474E+04             5938.185     40.550     36.736
         ROT  0.923E+06              888.752      2.981     30.276
         INT  0.437E+10             6826.937     43.530     67.012
         TR   0.182E+28             1481.254      4.968     40.952
         TOT                        8308.1908    48.4986   107.9636   451.7197

       T/K    H(0)-H(T)+PV         H(T)/Eh          T*S/Eh         G(T)/Eh
   ------------------------------------------------------------------------
    298.15    0.132399E-01    0.246978E+00    0.512970E-01    0.195681E+00
   ------------------------------------------------------------------------

         :::::::::::::::::::::::::::::::::::::::::::::::::::::
         ::                  THERMODYNAMIC                  ::
         :::::::::::::::::::::::::::::::::::::::::::::::::::::
         :: total free energy         -33.416132259307 Eh   ::
         ::.................................................::
         :: total energy              -33.611812869524 Eh   ::
         :: zero point energy           0.233737659653 Eh   ::
         :: G(RRHO) w/o ZPVE           -0.038057049436 Eh   ::
         :: G(RRHO) contrib.            0.195680610217 Eh   ::
         :::::::::::::::::::::::::::::::::::::::::::::::::::::

optimized geometry written to: xtbopt.coord


           -------------------------------------------------
          | TOTAL ENERGY              -33.611812869524 Eh   |
          | TOTAL ENTHALPY            -33.364835265046 Eh   |
          | TOTAL FREE ENERGY         -33.416132259307 Eh   |
          | GRADIENT NORM               0.000074769709 Eh/α |
          | HOMO-LUMO GAP               4.960239561615 eV   |
           -------------------------------------------------

------------------------------------------------------------------------
 * finished run on 2025/04/06 at 21:02:10.917     
------------------------------------------------------------------------
 total:
 * wall-time:     0 d,  0 h,  0 min,  2.638 sec
 *  cpu-time:     0 d,  0 h,  0 min,  2.539 sec
 * ratio c/w:     0.962 speedup
 SCF:
 * wall-time:     0 d,  0 h,  0 min,  0.034 sec
 *  cpu-time:     0 d,  0 h,  0 min,  0.019 sec
 * ratio c/w:     0.564 speedup
 ANC optimizer:
 * wall-time:     0 d,  0 h,  0 min,  0.377 sec
 *  cpu-time:     0 d,  0 h,  0 min,  0.359 sec
 * ratio c/w:     0.951 speedup
 analytical hessian:
 * wall-time:     0 d,  0 h,  0 min,  2.158 sec
 *  cpu-time:     0 d,  0 h,  0 min,  2.147 sec
 * ratio c/w:     0.994 speedup

