
                                 *****************
                                 * O   R   C   A *
                                 *****************

                                            #,                                       
                                            ###                                      
                                            ####                                     
                                            #####                                    
                                            ######                                   
                                           ########,                                 
                                     ,,################,,,,,                         
                               ,,#################################,,                 
                          ,,##########################################,,             
                       ,#########################################, ''#####,          
                    ,#############################################,,   '####,        
                  ,##################################################,,,,####,       
                ,###########''''           ''''###############################       
              ,#####''   ,,,,##########,,,,          '''####'''          '####       
            ,##' ,,,,###########################,,,                        '##       
           ' ,,###''''                  '''############,,,                           
         ,,##''                                '''############,,,,        ,,,,,,###''
      ,#''                                            '''#######################'''  
     '                                                          ''''####''''         
             ,#######,   #######,   ,#######,      ##                                
            ,#'     '#,  ##    ##  ,#'     '#,    #''#        ,####,   ,####,        
            ##       ##  ##   ,#'  ##            #'  '#       #'       #'  '#        
            ##       ##  #######   ##           ,######,      #####,   #    #        
            '#,     ,#'  ##    ##  '#,     ,#' ,#      #,     #,   #   #,  ,#        
             '#######'   ##     ##  '#######'  #'      '#     '####' # '####'        



                #########################################################
                #                        -***-                          #
                #          Department of theory and spectroscopy        #
                #                                                       #
                #                      Frank Neese                      #
                #                                                       #
                #     Directorship, Architecture, Infrastructure        #
                #                    SHARK, DRIVERS                     #
                #        Core code/Algorithms in most modules           #
                #                                                       #
                #        Max Planck Institute fuer Kohlenforschung      #
                #                Kaiser Wilhelm Platz 1                 #
                #                 D-45470 Muelheim/Ruhr                 #
                #                      Germany                          #
                #                                                       #
                #                  All rights reserved                  #
                #                        -***-                          #
                #########################################################


                         Program Version 6.0.0  -   RELEASE  -


 With contributions from (in alphabetic order):
   Daniel Aravena         : Magnetic Suceptibility
   Michael Atanasov       : Ab Initio Ligand Field Theory (pilot matlab implementation)
   Alexander A. Auer      : GIAO ZORA, VPT2 properties, NMR spectrum
   Ute Becker             : All parallelization in ORCA, NUMFREQ, NUMCALC
   Giovanni Bistoni       : ED, misc. LED, open-shell LED, HFLD
   Martin Brehm           : Molecular dynamics
   Dmytro Bykov           : pre 5.0 version of the SCF Hessian
   Marcos Casanova-Páez   : Triplet and SCS-CIS(D). UHF-(DLPNO)-IP/EA/STEOM-CCSD. UHF-CVS-IP/STEOM-CCSD
   Vijay G. Chilkuri      : MRCI spin determinant printing, contributions to CSF-ICE
   Pauline Colinet        : FMM embedding
   Dipayan Datta          : RHF DLPNO-CCSD density
   Achintya Kumar Dutta   : EOM-CC, STEOM-CC
   Nicolas Foglia         : Exact transition moments, OPA infrastructure, MCD improvements
   Dmitry Ganyushin       : Spin-Orbit,Spin-Spin,Magnetic field MRCI
   Miquel Garcia          : C-PCM and meta-GGA Hessian, CCSD/C-PCM, Gaussian charge scheme
   Tiago L. C. Gouveia    : GS-ROHF, GS-ROCIS
   Yang Guo               : DLPNO-NEVPT2, F12-NEVPT2, CIM, IAO-localization
   Andreas Hansen         : Spin unrestricted coupled pair/coupled cluster methods
   Ingolf Harden          : AUTO-CI MPn and infrastructure 
   Benjamin Helmich-Paris : MC-RPA, TRAH-(SCF,CASSCF), AVAS, COSX integrals, SCF dyn. polar.
   Lee Huntington         : MR-EOM, pCC
   Robert Izsak           : Overlap fitted RIJCOSX, COSX-SCS-MP3, EOM
   Riya Kayal             : Wick's Theorem for AUTO-CI, AUTO-CI UHF-CCSDT
   Emily Kempfer          : AUTO-CI, RHF CISDT and CCSDT
   Christian Kollmar      : KDIIS, OOCD, Brueckner-CCSD(T), CCSD density, CASPT2, CASPT2-K, improved NEVPT2
   Axel Koslowski         : Symmetry handling
   Simone Kossmann        : Meta GGA functionals, TD-DFT gradient, OOMP2, (MP2 Hessian; deprecated post 5.0)
   Lucas Lang             : DCDCAS
   Marvin Lechner         : AUTO-CI (C++ implementation), FIC-MRCC
   Spencer Leger          : CASSCF response
   Dagmar Lenk            : GEPOL surface, SMD, ORCA-2-JSON
   Dimitrios Liakos       : Extrapolation schemes; Compound Job, initial MDCI parallelization
   Dimitrios Manganas     : Further ROCIS development; embedding schemes. LFT, Crystal Embedding
   Dimitrios Pantazis     : SARC Basis sets
   Anastasios Papadopoulos: AUTO-CI, single reference methods and gradients
   Taras Petrenko         : pre 6.0 DFT Hessian and TD-DFT gradient, (ASA, deprecated), ECA, 1-Electron XAS/XES, NRVS
   Peter Pinski           : DLPNO-MP2, DLPNO-MP2 Gradient
   Christoph Reimann      : Effective Core Potentials
   Marius Retegan         : Local ZFS, SOC
   Christoph Riplinger    : Optimizer, TS searches, QM/MM, DLPNO-CCSD(T), (RO)-DLPNO pert. Triples
   Michael Roemelt        : Original ROCIS implementation
   Masaaki Saitow         : Open-shell DLPNO-CCSD energy and density
   Barbara Sandhoefer     : DKH picture change effects
   Kantharuban Sivalingam : CASSCF convergence/infrastructure, NEVPT2 and variants, FIC-MRCI
   Bernardo de Souza      : ESD, SOC TD-DFT
   Georgi Stoychev        : AutoAux, RI-MP2 NMR, DLPNO-MP2 response, X2C
   Van Anh Tran           : RI-MP2 g-tensors
   Willem Van den Heuvel  : Paramagnetic NMR
   Zikuan Wang            : NOTCH, Electric field optimization 
   Frank Wennmohs         : Technical directorship and infrastructure
   Hang Xu                : AUTO-CI-Response properties 


 We gratefully acknowledge several colleagues who have allowed us to
 interface, adapt or use parts of their codes:
   Stefan Grimme, W. Hujo, H. Kruse, P. Pracht,  : VdW corrections, initial TS optimization,
                  C. Bannwarth, S. Ehlert,         DFT functionals, gCP, sTDA/sTD-DF
                  L. Wittmann, M. Mueller
   Ed Valeev, F. Pavosevic, A. Kumar             : LibInt (2-el integral package), F12 methods
   Garnet Chan, S. Sharma, J. Yang, R. Olivares  : DMRG
   Ulf Ekstrom                                   : XCFun DFT Library
   Mihaly Kallay                                 : mrcc  (arbitrary order and MRCC methods)
   Frank Weinhold                                : gennbo (NPA and NBO analysis)
   Simon Mueller                                 : openCOSMO-RS
   Christopher J. Cramer and Donald G. Truhlar   : smd solvation model
   Lars Goerigk                                  : TD-DFT with DH, B97 family of functionals
   V. Asgeirsson, H. Jonsson                     : NEB implementation
   FAccTs GmbH                                   : IRC, NEB, NEB-TS, DLPNO-Multilevel, CI-OPT
                                                   MM, QMMM, 2- and 3-layer-ONIOM, Crystal-QMMM,
                                                   LR-CPCM, SF, NACMEs, symmetry and pop. for TD-DFT,
                                                   nearIR, NL-DFT gradient (VV10), updates on ESD,
                                                   ML-optimized integration grids, MBIS, APM,
                                                   GOAT, DOCKER, SOLVATOR, interface openCOSMO-RS
   S Lehtola, MJT Oliveira, MAL Marques          : LibXC Library
   Liviu Ungur et al                             : ANISO software


 Your calculation uses the libint2 library for the computation of 2-el integrals
 For citations please refer to: http://libint.valeyev.net

 Your ORCA version has been built with support for libXC version: 6.2.2
 For citations please refer to: https://libxc.gitlab.io

 This ORCA versions uses:
   CBLAS   interface :  Fast vector & matrix operations
   LAPACKE interface :  Fast linear algebra routines
   SCALAPACK package :  Parallel linear algebra routines
   Shared memory     :  Shared parallel matrices
   BLAS/LAPACK       :  OpenBLAS 0.3.27  USE64BITINT DYNAMIC_ARCH NO_AFFINITY SkylakeX SINGLE_THREADED
        Core in use  :  SkylakeX
   Copyright (c) 2011-2014, The OpenBLAS Project


Your calculation utilizes the geometrical counterpoise correction gCP
Please cite in your paper:
H.Kruse, S. Grimme J.Chem.Phys., 136, (2012), 154101 
   

Your calculation utilizes the atom-pairwise dispersion correction
based on EEQ partial charges (D4)


Your calculation utilizes the SMD solvation module
Please cite in your paper:
A.V. Marenich, C.J. Cramer, D.G. Truhlar J. Phys. Chem. B, 113, (2009), 6378 

================================================================================

----- Orbital basis set information -----
Your calculation utilizes the basis: def2-mTZVPP
   Stefan Grimme, Andreas Hansen, Sebastian Ehlert, and Jan-Michael Mewes 
   J. Chem. Phys. 154, 064103 (2021). DOI: 10.1063/5.0040021

----- AuxJ basis set information -----
Your calculation utilizes the auxiliary basis: def2/J
   F. Weigend, Phys. Chem. Chem. Phys. 8, 1057 (2006).

================================================================================
                                        WARNINGS
                       Please study these warnings very carefully!
================================================================================

Using LibXC functional ID 497 : Re-regularized SCAN exchange by Furness et al
[ 1]  J. W. Furness, A. D. Kaplan, J. Ning, J. P. Perdew, and J. Sun.,  J. Phys. Chem. Lett. 11, 8208-8215 (2020)
[ 2]  J. W. Furness, A. D. Kaplan, J. Ning, J. P. Perdew, and J. Sun.,  J. Phys. Chem. Lett. 11, 9248-9248 (2020)
Using LibXC functional ID 498 : Re-regularized SCAN correlation by Furness et al
[ 1]  J. W. Furness, A. D. Kaplan, J. Ning, J. P. Perdew, and J. Sun.,  J. Phys. Chem. Lett. 11, 8208-8215 (2020)
[ 2]  J. W. Furness, A. D. Kaplan, J. Ning, J. P. Perdew, and J. Sun.,  J. Phys. Chem. Lett. 11, 9248-9248 (2020)
Using LibXC functional ID 497 : Re-regularized SCAN exchange by Furness et al
[ 1]  J. W. Furness, A. D. Kaplan, J. Ning, J. P. Perdew, and J. Sun.,  J. Phys. Chem. Lett. 11, 8208-8215 (2020)
[ 2]  J. W. Furness, A. D. Kaplan, J. Ning, J. P. Perdew, and J. Sun.,  J. Phys. Chem. Lett. 11, 9248-9248 (2020)
Using LibXC functional ID 498 : Re-regularized SCAN correlation by Furness et al
[ 1]  J. W. Furness, A. D. Kaplan, J. Ning, J. P. Perdew, and J. Sun.,  J. Phys. Chem. Lett. 11, 8208-8215 (2020)
[ 2]  J. W. Furness, A. D. Kaplan, J. Ning, J. P. Perdew, and J. Sun.,  J. Phys. Chem. Lett. 11, 9248-9248 (2020)

================================================================================
                                       INPUT FILE
================================================================================
NAME = sp_solv.inp
|  1> ! r2scan-3c def2/J RI DEFGRID2 scfconv6 printgap
|  2> %output
|  3>     printlevel normal
|  4> end
|  5> %cpcm
|  6>     smd true
|  7>     smdsolvent "water"
|  8> end
|  9> * xyz 0 1
| 10> C -3.8145291916 -0.6764661445 0.0130228964
| 11> N -2.6782306484 0.2260843243 -0.0036033611
| 12> C -2.8997124338 1.6578844869 -0.0123268666
| 13> C -1.4510260507 -0.3527231843 0.001171186
| 14> O -1.3321644636 -1.5794377759 0.0131166277
| 15> N -0.3896711455 0.5177061301 -0.0096293397
| 16> C 0.9767134705 0.2368638527 -0.005203331
| 17> C 1.4988460118 -1.0534183738 0.0075951463
| 18> C 2.8688156978 -1.2445688059 0.0123869654
| 19> C 3.7358552586 -0.1655412118 0.004355996
| 20> C 3.2202028667 1.1201970322 -0.0088618829
| 21> C 1.8543339346 1.3223740934 -0.0136622092
| 22> H -3.7771443599 -1.340924711 -0.8525154466
| 23> H -4.7359103173 -0.1053799028 -0.0047423618
| 24> H -3.7857954168 -1.3005592189 0.9086050668
| 25> H -2.4792338251 2.1287968771 0.8794359019
| 26> H -3.9699179116 1.8417968882 -0.0147658633
| 27> H -2.4774522098 2.117297808 -0.9091322541
| 28> H -0.6042608643 1.5038827259 -0.0188168276
| 29> H 0.8278017203 -1.896453717 0.0140606493
| 30> H 3.2581832485 -2.2516412481 0.0225092963
| 31> H 4.8030532633 -0.3247524028 0.0083301942
| 32> H 3.8854382923 1.9703614561 -0.0153520772
| 33> H 1.4603707501 2.3281731602 -0.0237972145
| 34> *
| 35> 
| 36>                          ****END OF INPUT****
================================================================================

                       ****************************
                       * Single Point Calculation *
                       ****************************

---------------------------------
CARTESIAN COORDINATES (ANGSTROEM)
---------------------------------
  C     -3.814529   -0.676466    0.013023
  N     -2.678231    0.226084   -0.003603
  C     -2.899712    1.657884   -0.012327
  C     -1.451026   -0.352723    0.001171
  O     -1.332164   -1.579438    0.013117
  N     -0.389671    0.517706   -0.009629
  C      0.976713    0.236864   -0.005203
  C      1.498846   -1.053418    0.007595
  C      2.868816   -1.244569    0.012387
  C      3.735855   -0.165541    0.004356
  C      3.220203    1.120197   -0.008862
  C      1.854334    1.322374   -0.013662
  H     -3.777144   -1.340925   -0.852515
  H     -4.735910   -0.105380   -0.004742
  H     -3.785795   -1.300559    0.908605
  H     -2.479234    2.128797    0.879436
  H     -3.969918    1.841797   -0.014766
  H     -2.477452    2.117298   -0.909132
  H     -0.604261    1.503883   -0.018817
  H      0.827802   -1.896454    0.014061
  H      3.258183   -2.251641    0.022509
  H      4.803053   -0.324752    0.008330
  H      3.885438    1.970361   -0.015352
  H      1.460371    2.328173   -0.023797

----------------------------
CARTESIAN COORDINATES (A.U.)
----------------------------
  NO LB      ZA    FRAG     MASS         X           Y           Z
   0 C     6.0000    0    12.011   -7.208416   -1.278336    0.024610
   1 N     7.0000    0    14.007   -5.061122    0.427237   -0.006809
   2 C     6.0000    0    12.011   -5.479662    3.132948   -0.023294
   3 C     6.0000    0    12.011   -2.742042   -0.666550    0.002213
   4 O     8.0000    0    15.999   -2.517426   -2.984705    0.024787
   5 N     7.0000    0    14.007   -0.736372    0.978323   -0.018197
   6 C     6.0000    0    12.011    1.845721    0.447608   -0.009833
   7 C     6.0000    0    12.011    2.832408   -1.990672    0.014353
   8 C     6.0000    0    12.011    5.421276   -2.351894    0.023408
   9 C     6.0000    0    12.011    7.059743   -0.312828    0.008232
  10 C     6.0000    0    12.011    6.085302    2.116866   -0.016747
  11 C     6.0000    0    12.011    3.504183    2.498925   -0.025818
  12 H     1.0000    0     1.008   -7.137768   -2.533980   -1.611021
  13 H     1.0000    0     1.008   -8.949573   -0.199139   -0.008962
  14 H     1.0000    0     1.008   -7.154117   -2.457701    1.717015
  15 H     1.0000    0     1.008   -4.685073    4.022843    1.661893
  16 H     1.0000    0     1.008   -7.502058    3.480492   -0.027903
  17 H     1.0000    0     1.008   -4.681706    4.001113   -1.718011
  18 H     1.0000    0     1.008   -1.141888    2.841926   -0.035559
  19 H     1.0000    0     1.008    1.564319   -3.583778    0.026571
  20 H     1.0000    0     1.008    6.157074   -4.254985    0.042536
  21 H     1.0000    0     1.008    9.076455   -0.613693    0.015742
  22 H     1.0000    0     1.008    7.342414    3.723444   -0.029011
  23 H     1.0000    0     1.008    2.759701    4.399610   -0.044970

--------------------------------
INTERNAL COORDINATES (ANGSTROEM)
--------------------------------
 C      0   0   0     0.000000000000     0.00000000     0.00000000
 N      1   0   0     1.451222987844     0.00000000     0.00000000
 C      2   1   0     1.448855405634   119.66832161     0.00000000
 C      2   1   3     1.356861103034   116.28485614   179.47397350
 O      4   2   1     1.232517529169   120.78558798     0.30544973
 N      4   2   1     1.372675517926   115.39088974   180.23700401
 C      6   4   2     1.394954799687   129.02627914   179.83771884
 C      7   6   4     1.391982189443   123.64631589     0.21585127
 C      8   7   6     1.383249214632   119.97512454   180.05753364
 C      9   8   7     1.384240819110   120.83793608     0.00000000
 C     10   9   8     1.385350112311   119.36490810     0.00000000
 C     11  10   9     1.380759409486   120.27383190     0.00000000
 H      1   2   3     1.091814744103   110.03528721   121.97649436
 H      1   2   3     1.084157866113   109.73342543     1.20998931
 H      1   2   3     1.091963927640   110.13557125   240.36640370
 H      3   2   1     1.092612271074   111.23415235   118.04162704
 H      3   2   1     1.085895706212   108.54458375   359.42102786
 H      3   2   1     1.092531097693   111.18702535   240.84792353
 H      6   4   2     1.009295514432   117.08199637     0.08188270
 H      8   7   6     1.077520688325   119.45090883     0.03488714
 H      9   8   7     1.079770556627   119.08182821   179.98945191
 H     10   9   8     1.079016023434   120.29583044   179.99099817
 H     11  10   9     1.079518337853   120.10574428   180.00738815
 H     12  11  10     1.080250652325   119.81021003   179.98868943

---------------------------
INTERNAL COORDINATES (A.U.)
---------------------------
 C      0   0   0     0.000000000000     0.00000000     0.00000000
 N      1   0   0     2.742414006277     0.00000000     0.00000000
 C      2   1   0     2.737939924299   119.66832161     0.00000000
 C      2   1   3     2.564095886505   116.28485614   179.47397350
 O      4   2   1     2.329120585387   120.78558798     0.30544973
 N      4   2   1     2.593980799619   115.39088974   180.23700401
 C      6   4   2     2.636082540607   129.02627914   179.83771884
 C      7   6   4     2.630465121344   123.64631589     0.21585127
 C      8   7   6     2.613962190617   119.97512454   180.05753364
 C      9   8   7     2.615836051513   120.83793608     0.00000000
 C     10   9   8     2.617932311864   119.36490810     0.00000000
 C     11  10   9     2.609257140763   120.27383190     0.00000000
 H      1   2   3     2.063230855331   110.03528721   121.97649436
 H      1   2   3     2.048761452890   109.73342543     1.20998931
 H      1   2   3     2.063512771360   110.13557125   240.36640370
 H      3   2   1     2.064737962891   111.23415235   118.04162704
 H      3   2   1     2.052045494742   108.54458375   359.42102786
 H      3   2   1     2.064584567432   111.18702535   240.84792353
 H      6   4   2     1.907292110471   117.08199637     0.08188270
 H      8   7   6     2.036219004568   119.45090883     0.03488714
 H      9   8   7     2.040470639498   119.08182821   179.98945191
 H     10   9   8     2.039044778402   120.29583044   179.99099817
 H     11  10   9     2.039994015088   120.10574428   180.00738815
 H     12  11  10     2.041377888885   119.81021003   179.98868943

---------------------
BASIS SET INFORMATION
---------------------
There are 4 groups of distinct atoms

 Group   1 Type C   : 11s6p1d contracted to 5s3p1d pattern {62111/411/1}
 Group   2 Type N   : 11s6p2d contracted to 5s3p2d pattern {62111/411/11}
 Group   3 Type O   : 11s6p2d contracted to 5s3p2d pattern {62111/411/11}
 Group   4 Type H   : 4s1p contracted to 2s1p pattern {31/1}

Atom   0C    basis set group =>   1
Atom   1N    basis set group =>   2
Atom   2C    basis set group =>   1
Atom   3C    basis set group =>   1
Atom   4O    basis set group =>   3
Atom   5N    basis set group =>   2
Atom   6C    basis set group =>   1
Atom   7C    basis set group =>   1
Atom   8C    basis set group =>   1
Atom   9C    basis set group =>   1
Atom  10C    basis set group =>   1
Atom  11C    basis set group =>   1
Atom  12H    basis set group =>   4
Atom  13H    basis set group =>   4
Atom  14H    basis set group =>   4
Atom  15H    basis set group =>   4
Atom  16H    basis set group =>   4
Atom  17H    basis set group =>   4
Atom  18H    basis set group =>   4
Atom  19H    basis set group =>   4
Atom  20H    basis set group =>   4
Atom  21H    basis set group =>   4
Atom  22H    basis set group =>   4
Atom  23H    basis set group =>   4
---------------------------------
AUXILIARY/J BASIS SET INFORMATION
---------------------------------
There are 4 groups of distinct atoms

 Group   1 Type C   : 12s5p4d2f1g contracted to 6s4p3d1f1g pattern {711111/2111/211/2/1}
 Group   2 Type N   : 12s5p4d2f1g contracted to 6s4p3d1f1g pattern {711111/2111/211/2/1}
 Group   3 Type O   : 12s5p4d2f1g contracted to 6s4p3d1f1g pattern {711111/2111/211/2/1}
 Group   4 Type H   : 5s2p1d contracted to 3s1p1d pattern {311/2/1}

Atom   0C    basis set group =>   1
Atom   1N    basis set group =>   2
Atom   2C    basis set group =>   1
Atom   3C    basis set group =>   1
Atom   4O    basis set group =>   3
Atom   5N    basis set group =>   2
Atom   6C    basis set group =>   1
Atom   7C    basis set group =>   1
Atom   8C    basis set group =>   1
Atom   9C    basis set group =>   1
Atom  10C    basis set group =>   1
Atom  11C    basis set group =>   1
Atom  12H    basis set group =>   4
Atom  13H    basis set group =>   4
Atom  14H    basis set group =>   4
Atom  15H    basis set group =>   4
Atom  16H    basis set group =>   4
Atom  17H    basis set group =>   4
Atom  18H    basis set group =>   4
Atom  19H    basis set group =>   4
Atom  20H    basis set group =>   4
Atom  21H    basis set group =>   4
Atom  22H    basis set group =>   4
Atom  23H    basis set group =>   4

Checking for AutoStart:
The File: sp_solv.gbw exists
Trying to determine its content:
     ... Fine, the file contains calculation information
     ... Fine, the calculation information was read
     ... Fine, the file contains a basis set
     ... Fine, the basis set was read
     ... Fine, the file contains a geometry
     ... Fine, the geometry was read
     ... Fine, the file contains a set of orbitals
     ... Fine, the orbitals can be read
     => possible old guess file was deleted
     => GBW file was renamed to GES file
     => GES file is set as startup file
     => Guess is set to MORead
     ... now leaving AutoStart

------------------------------------------------------------------------------
                             ORCA STARTUP CALCULATIONS
                           -- RI-GTO INTEGRALS CHOSEN --
------------------------------------------------------------------------------
------------------------------------------------------------------------------
                   ___                                                        
                  /   \      - P O W E R E D   B Y -                         
                 /     \                                                     
                 |  |  |   _    _      __       _____    __    __             
                 |  |  |  | |  | |    /  \     |  _  \  |  |  /  |          
                  \  \/   | |  | |   /    \    | | | |  |  | /  /          
                 / \  \   | |__| |  /  /\  \   | |_| |  |  |/  /          
                |  |  |   |  __  | /  /__\  \  |    /   |      \           
                |  |  |   | |  | | |   __   |  |    \   |  |\   \          
                \     /   | |  | | |  |  |  |  | |\  \  |  | \   \       
                 \___/    |_|  |_| |__|  |__|  |_| \__\ |__|  \__/        
                                                                              
                      - O R C A' S   B I G   F R I E N D -                    
                                      &                                       
                       - I N T E G R A L  F E E D E R -                       
                                                                              
 v1 FN, 2020, v2 2021, v3 2022-2024                                           
------------------------------------------------------------------------------


----------------------
SHARK INTEGRAL PACKAGE
----------------------

Number of atoms                             ...     24
Number of basis functions                   ...    303
Number of shells                            ...    147
Maximum angular momentum                    ...      2
Integral batch strategy                     ... SHARK/LIBINT Hybrid
RI-J (if used) integral strategy            ... SPLIT-RIJ (Revised 2003 algorithm where possible)
Printlevel                                  ...      1
Contraction scheme used                     ... SEGMENTED contraction
Prescreening option                         ... SCHWARTZ
   Thresh                                   ... 1.000e-10
   Tcut                                     ... 1.000e-11
   Tpresel                                  ... 1.000e-11 
Coulomb Range Separation                    ... NOT USED
Exchange Range Separation                   ... NOT USED
Multipole approximations                    ... NOT USED
Finite Nucleus Model                        ... NOT USED
CABS basis                                  ... NOT available
Auxiliary Coulomb fitting basis             ... AVAILABLE
   # of basis functions in Aux-J            ...    720
   # of shells in Aux-J                     ...    240
   Maximum angular momentum in Aux-J        ...      4
Auxiliary J/K fitting basis                 ... NOT available
Auxiliary Correlation fitting basis         ... NOT available
Auxiliary 'external' fitting basis          ... NOT available

Checking pre-screening integrals            ... done (  0.0 sec) Dimension = 147
Check shell pair data                       ... done (  0.0 sec)
Shell pair information
Shell pair cut-off parameter TPreSel        ...   1.0e-11
Total number of shell pairs                 ...     10878
Shell pairs after pre-screening             ...      8703
Total number of primitive shell pairs       ...     39360
Primitive shell pairs kept                  ...     21381
          la=0 lb=0:   2744 shell pairs
          la=1 lb=0:   3264 shell pairs
          la=1 lb=1:    989 shell pairs
          la=2 lb=0:   1011 shell pairs
          la=2 lb=1:    594 shell pairs
          la=2 lb=2:    101 shell pairs

Calculating one electron integrals          ... done (  0.0 sec)
Calculating RI/J V-Matrix + Cholesky decomp.... done (  0.1 sec)
Calculating Nuclear repulsion               ... done (  0.0 sec) ENN=    678.601389712810 Eh

Diagonalization of the overlap matrix:
Smallest eigenvalue                        ... 2.972e-05
Time for diagonalization                   ...    0.008 sec
Threshold for overlap eigenvalues          ... 1.000e-07
Number of eigenvalues below threshold      ... 0
Time for construction of square roots      ...    0.016 sec
Total time needed                          ...    0.033 sec

-------------------
DFT GRID GENERATION
-------------------

General Integration Accuracy     IntAcc      ... 4.388
Radial Grid Type                 RadialGrid  ... OptM3 with GC (2021)
Angular Grid (max. ang.)         AngularGrid ... 4 (Lebedev-302)
Angular grid pruning method      GridPruning ... 4 (adaptive)
Weight generation scheme         WeightScheme... mBecke (2022)
Basis function cutoff            BFCut       ... 1.0000e-10
Integration weight cutoff        WCut        ... 1.0000e-14
Partially contracted basis set               ... off
Rotationally invariant grid construction     ... off
Angular grids for H and He will be reduced by one unit
Diffuse basis detected: some atoms will have their outermost
                        angular grid increased by 1.

Total number of grid points                  ...   110760
Total number of batches                      ...     1744
Average number of points per batch           ...       63
Average number of grid points per atom       ...     4615
Initializing property integral containers    ... done (  0.0 sec)

SHARK setup successfully completed in   1.4 seconds

Maximum memory used throughout the entire STARTUP-calculation: 52.3 MB
-------------------------------------------------------------------------------
                                 ORCA GUESS
                   Start orbitals & Density for SCF / CASSCF
-------------------------------------------------------------------------------

------------
SCF SETTINGS
------------
Hamiltonian:
 Density Functional     Method          .... DFT(GTOs)
  Functional kind                       .... Exchange
  Functional name                       .... Re-regularized SCAN exchange by Furness et al
  Functional family                     .... MGGA
  Functional refs                              
    [ 0] J. W. Furness, A. D. Kaplan, J. Ning, J. P. Perdew, and J. Sun.,  J. Phys. Chem. Lett. 11, 8208-8215 (2020), doi: 10.1021/acs.jpclett.0c02405
    [ 1] J. W. Furness, A. D. Kaplan, J. Ning, J. P. Perdew, and J. Sun.,  J. Phys. Chem. Lett. 11, 9248-9248 (2020), doi: 10.1021/acs.jpclett.0c03077
  Functional external parameters        .... 6
    Parameter  0 _c1        =  6.670000e-01 : c1 parameter        
    Parameter  1 _c2        =  8.000000e-01 : c2 parameter        
    Parameter  2 _d         =  1.240000e+00 : d parameter         
    Parameter  3 _k1        =  6.500000e-02 : k1 parameter        
    Parameter  4 _eta       =  1.000000e-03 : eta parameter       
    Parameter  5 _dp2       =  3.610000e-01 : dp2 parameter       
  Functional kind                       .... Correlation
  Functional name                       .... Re-regularized SCAN correlation by Furness et al
  Functional family                     .... MGGA
  Functional refs                              
    [ 0] J. W. Furness, A. D. Kaplan, J. Ning, J. P. Perdew, and J. Sun.,  J. Phys. Chem. Lett. 11, 8208-8215 (2020), doi: 10.1021/acs.jpclett.0c02405
    [ 1] J. W. Furness, A. D. Kaplan, J. Ning, J. P. Perdew, and J. Sun.,  J. Phys. Chem. Lett. 11, 9248-9248 (2020), doi: 10.1021/acs.jpclett.0c03077
  Functional external parameters        .... 1
    Parameter  0 _eta       =  1.000000e-03 : Regularization parameter
 Gradients option       PostSCFGGA      .... off
 RI-approximation to the Coulomb term is turned on
   Number of AuxJ basis functions       .... 720


General Settings:
 Integral files         IntName         .... sp_solv
 Hartree-Fock type      HFTyp           .... RHF
 Total Charge           Charge          ....    0
 Multiplicity           Mult            ....    1
 Number of Electrons    NEL             ....   88
 Basis Dimension        Dim             ....  303
 Nuclear Repulsion      ENuc            ....    678.6013897128 Eh

Convergence Acceleration:
 AO-DIIS                CNVDIIS         .... on
   Start iteration      DIISMaxIt       ....    12
   Startup error        DIISStart       ....  0.200000
   # of expansion vecs  DIISMaxEq       ....     5
   Bias factor          DIISBfac        ....   1.050
   Max. coefficient     DIISMaxC        ....  10.000
 MO-DIIS                CNVKDIIS        .... off
 Trust-Rad. Augm. Hess. CNVTRAH         .... auto
   Auto Start mean grad. ratio tolernc. ....  1.125000
   Auto Start start iteration           ....     1
   Auto Start num. interpolation iter.  ....    10
   Max. Number of Micro iterations      ....    24
   Max. Number of Macro iterations      .... Maxiter - #DIIS iter
   Number of Davidson start vectors     ....     2
   Converg. threshold    (grad. norm)   ....   3.330e-04
   Grad. Scal. Fac. for Micro threshold ....   0.100
   Minimum threshold for Micro iter.    ....   1.000e-02
   NR start threshold (gradient norm)   ....   1.000e-04
   Initial trust radius                 ....   0.400
   Minimum AH scaling param. (alpha)    ....   1.000
   Maximum AH scaling param. (alpha)    .... 1000.000
   Quad. conv. algorithm                .... NR
   White noise on init. David. guess    .... on
   Maximum white noise                  ....   0.010
   Pseudo random numbers                .... off
   Inactive MOs                         .... canonical
   Orbital update algorithm             .... Taylor
   Preconditioner                       .... Diag
   Full preconditioner red. dimension   ....   250
   COSX micro iterations for RIJONX calc.... off
 SOSCF                  CNVSOSCF        .... on
   Start iteration      SOSCFMaxIt      ....   150
   Startup grad/error   SOSCFStart      ....  0.003300
   Hessian update       SOSCFHessUp     .... L-BFGS
 Level Shifting         CNVShift        .... on
   Level shift para.    LevelShift      ....    0.2500
   Turn off err/grad.   ShiftErr        ....    0.0010
 Zerner damping         CNVZerner       .... off
 Static damping         CNVDamp         .... on
   Fraction old density DampFac         ....    0.7000
   Max. Damping (<1)    DampMax         ....    0.9800
   Min. Damping (>=0)   DampMin         ....    0.0000
   Turn off err/grad.   DampErr         ....    0.1000

SCF Procedure:
 Maximum # iterations   MaxIter         ....   125
 SCF integral mode      SCFMode         .... Direct
   Integral package                     .... SHARK and LIBINT hybrid scheme
 Reset frequency        DirectResetFreq ....    20
 Integral Threshold     Thresh          ....  1.000e-10 Eh
 Primitive CutOff       TCut            ....  1.000e-11 Eh

Convergence Tolerance:
 Convergence Check Mode ConvCheckMode   .... Total+1el-Energy
 Convergence forced     ConvForced      .... 0
 Energy Change          TolE            ....  1.000e-06 Eh
 1-El. energy change                    ....  1.000e-03 Eh
 Orbital Gradient       TolG            ....  3.330e-04
 Orbital Rotation angle TolX            ....  3.330e-04
 DIIS Error             TolErr          ....  1.000e-06

---------------------
INITIAL GUESS: MOREAD
---------------------
Guess MOs are being read from file: sp_solv.ges
Input Geometry matches current geometry (good)
Atom 0: N(Shells)= 9 and 6 - projection required
Input basis set needs projection
NBasis(read)= 192
NBasis(calc)= 303
Basis set overlap was calculated
Using GuessMode=FMatrix for the initial guess
C*T matrix was formed
Effective Fockian was calculated
Effective Fockian was diagonalized
Initial density was built
                      ------------------
                      INITIAL GUESS DONE (   0.1 sec)
                      ------------------
             **** ENERGY FILE WAS UPDATED (sp_solv.en.tmp) ****
Finished Guess after   0.3 sec
Maximum memory used throughout the entire GUESS-calculation: 23.9 MB

-------------------------------------------------------------------------------------------
                                      ORCA LEAN-SCF
                              memory conserving SCF solver
-------------------------------------------------------------------------------------------

--------------------
CPCM SOLVATION MODEL
--------------------
CPCM parameters:
  Epsilon                                         ...      78.3550
  Refrac                                          ...       1.3328
  Rsolv                                           ...       1.3000
  Surface type                                    ... GAUSSIAN VDW
  Discretization scheme                           ... Constant charge density
    Threshold for H atoms                         ...       5.0000 (charges/Ang^2)
    Threshold for non-H atoms                     ...       5.0000 (charges/Ang^2)
  Epsilon function type                           ...         CPCM
Solvent:                                          ... WATER
SMD-CDS solvent descriptors:
  Soln                                            ...       1.3328
  Soln25                                          ...       1.3323
  Sola                                            ...       0.0000
  Solb                                            ...       0.0000
  Solg                                            ...       0.0000
  Solc                                            ...       0.0000
  Solh                                            ...       0.0000
Radii:
  Scheme                                          ... Element-dependent radii
  Radius for C  used is    3.4960 Bohr (=   1.8500 Ang.)
  Radius for N  used is    3.5716 Bohr (=   1.8900 Ang.)
  Radius for O  used is    2.8724 Bohr (=   1.5200 Ang.)
  Radius for H  used is    2.2677 Bohr (=   1.2000 Ang.)
Calculating surface                               ...        done! (  0.0s)
Cavity surface points                             ...         1805
Cavity Volume                                     ...    1178.4708
Cavity Surface-area                               ...     710.2347
Calculating surface distance matrix               ...        done! (  0.0s)
Performing Cholesky decomposition & store         ...        done! (  0.1s)
Overall time for CPCM initialization              ...                 0.2s

----------------------------------------D-I-I-S--------------------------------------------
Iteration    Energy (Eh)           Delta-E    RMSDP     MaxDP     DIISErr   Damp  Time(sec)
-------------------------------------------------------------------------------------------
               ***  Starting incremental Fock matrix formation  ***
    1    -534.5582670350266881     0.00e+00  8.91e-03  5.26e-01  6.26e-01  0.700   5.0
    2    -534.6372267402992975    -7.90e-02  6.73e-03  3.94e-01  4.42e-01  0.700   4.4
    3    -534.6931158243247637    -5.59e-02  4.79e-03  2.79e-01  3.10e-01  0.700   4.2
    4    -534.7323905352028532    -3.93e-02  3.38e-03  1.96e-01  2.18e-01  0.700   4.2
                               ***Turning on AO-DIIS***
    5    -534.7599655964510248    -2.76e-02  2.37e-03  1.36e-01  1.52e-01  0.700   4.2
    6    -534.7792965831068841    -1.93e-02  1.67e-03  9.57e-02  1.06e-01  0.700   4.3
    7    -534.7928684207173546    -1.36e-02  1.18e-03  6.72e-02  7.42e-02  0.700   4.1
    8    -534.8023810803082370    -9.51e-03  2.75e-03  1.57e-01  5.22e-02  0.000   4.0
                              *** Initializing SOSCF ***
---------------------------------------S-O-S-C-F--------------------------------------
Iteration    Energy (Eh)           Delta-E    RMSDP     MaxDP     MaxGrad    Time(sec)
--------------------------------------------------------------------------------------
    9    -534.8246218703587829    -2.22e-02  1.91e-05  5.43e-04  2.81e-04     4.2
               *** Restarting incremental Fock matrix formation ***
   10    -534.8246221547191226    -2.84e-07  1.24e-05  3.36e-04  6.91e-05     4.9
                  *** Gradient check signals convergence ***

               *****************************************************
               *                     SUCCESS                       *
               *           SCF CONVERGED AFTER  10 CYCLES          *
               *****************************************************


SMD CDS free energy correction energy :                 5.03456     Kcal/mol
Total Energy after SMD CDS correction =              -534.816599068 Eh
             **** ENERGY FILE WAS UPDATED (sp_solv.en.tmp) ****

----------------
TOTAL SCF ENERGY
----------------

Total Energy       :       -534.81659906785592 Eh          -14553.09953 eV

Components:
Nuclear Repulsion  :        678.60138971280969 Eh           18465.68259 eV
Electronic Energy  :      -1213.39303742682182 Eh          -33018.10316 eV
One Electron Energy:      -2070.90623005241787 Eh          -56352.22341 eV
Two Electron Energy:        857.51319262559605 Eh           23334.12026 eV
CPCM Dielectric    :         -0.03297444070698 Eh              -0.89728 eV
SMD CDS (Gcds)     :          0.00802308686317 Eh               0.21832 eV

Virial components:
Potential Energy   :      -1067.52031820626735 Eh          -29048.70467 eV
Kinetic Energy     :        532.70371913841154 Eh           14495.60514 eV
Virial Ratio       :          2.00396633222847

DFT components:
N(Alpha)           :       43.999924372378 electrons
N(Beta)            :       43.999924372378 electrons
N(Total)           :       87.999848744756 electrons
E(X)               :      -72.803852089304 Eh       
E(C)               :       -2.858647839635 Eh       
E(XC)              :      -75.662499928939 Eh       

CPCM Solvation Model Properties:
Surface-charge          :         -0.05012246566961
Corrected charge        :          0.00000000000000
Outlying charge corr.   :          0.00016988691121 Eh               0.00462 eV
Free-energy (cav+disp)  :          0.00802308686317 Eh               0.21832 eV

---------------
SCF CONVERGENCE
---------------

  Last Energy change         ...    2.8436e-07  Tolerance :   1.0000e-06
  Last MAX-Density change    ...    3.3620e-04  Tolerance :   1.0000e-05
  Last RMS-Density change    ...    1.2370e-05  Tolerance :   1.0000e-06
  Last DIIS Error            ...    2.8107e-04  Tolerance :   1.0000e-06
  Last Orbital Gradient      ...    6.9147e-05  Tolerance :   3.3300e-04
  Last Orbital Rotation      ...    4.1161e-04  Tolerance :   3.3300e-04


----------------
ORBITAL ENERGIES
----------------

  NO   OCC          E(Eh)            E(eV) 
   0   2.0000     -18.916972      -514.7570 
   1   2.0000     -14.197094      -386.3226 
   2   2.0000     -14.189075      -386.1044 
   3   2.0000     -10.155681      -276.3501 
   4   2.0000     -10.084746      -274.4199 
   5   2.0000     -10.056772      -273.6587 
   6   2.0000     -10.050773      -273.4954 
   7   2.0000     -10.034315      -273.0476 
   8   2.0000     -10.033424      -273.0233 
   9   2.0000     -10.032822      -273.0070 
  10   2.0000     -10.028076      -272.8778 
  11   2.0000     -10.026549      -272.8363 
  12   2.0000      -1.021928       -27.8081 
  13   2.0000      -0.916846       -24.9486 
  14   2.0000      -0.896124       -24.3848 
  15   2.0000      -0.818635       -22.2762 
  16   2.0000      -0.721066       -19.6212 
  17   2.0000      -0.717486       -19.5238 
  18   2.0000      -0.686391       -18.6777 
  19   2.0000      -0.657293       -17.8859 
  20   2.0000      -0.594145       -16.1675 
  21   2.0000      -0.579640       -15.7728 
  22   2.0000      -0.531496       -14.4627 
  23   2.0000      -0.512232       -13.9386 
  24   2.0000      -0.487234       -13.2583 
  25   2.0000      -0.459647       -12.5076 
  26   2.0000      -0.447589       -12.1795 
  27   2.0000      -0.428524       -11.6607 
  28   2.0000      -0.417046       -11.3484 
  29   2.0000      -0.400383       -10.8950 
  30   2.0000      -0.393672       -10.7124 
  31   2.0000      -0.388449       -10.5702 
  32   2.0000      -0.382360       -10.4046 
  33   2.0000      -0.371361       -10.1053 
  34   2.0000      -0.370721       -10.0878 
  35   2.0000      -0.347739        -9.4625 
  36   2.0000      -0.342833        -9.3290 
  37   2.0000      -0.327359        -8.9079 
  38   2.0000      -0.311333        -8.4718 
  39   2.0000      -0.289704        -7.8832 
  40   2.0000      -0.240953        -6.5567 
  41   2.0000      -0.240573        -6.5463 
  42   2.0000      -0.221545        -6.0285 
  43   2.0000      -0.195366        -5.3162 
  44   0.0000      -0.034219        -0.9311 
  45   0.0000      -0.030750        -0.8368 
  46   0.0000       0.037310         1.0153 
  47   0.0000       0.063851         1.7375 
  48   0.0000       0.092561         2.5187 
  49   0.0000       0.103445         2.8149 
  50   0.0000       0.106154         2.8886 
  51   0.0000       0.114625         3.1191 
  52   0.0000       0.128406         3.4941 
  53   0.0000       0.131047         3.5660 
  54   0.0000       0.137586         3.7439 
*Only the first 10 virtual orbitals were printed.

                    ********************************
                    * MULLIKEN POPULATION ANALYSIS *
                    ********************************

-----------------------
MULLIKEN ATOMIC CHARGES
-----------------------
   0 C :   -0.418199
   1 N :    0.105275
   2 C :   -0.459799
   3 C :    0.220253
   4 O :   -0.606405
   5 N :   -0.107245
   6 C :    0.171150
   7 C :   -0.256387
   8 C :   -0.201812
   9 C :   -0.213555
  10 C :   -0.159399
  11 C :   -0.359517
  12 H :    0.169976
  13 H :    0.171420
  14 H :    0.169993
  15 H :    0.176797
  16 H :    0.182299
  17 H :    0.176525
  18 H :    0.319807
  19 H :    0.204803
  20 H :    0.177966
  21 H :    0.177588
  22 H :    0.180837
  23 H :    0.177626
Sum of atomic charges:   -0.0000000

--------------------------------
MULLIKEN REDUCED ORBITAL CHARGES
--------------------------------
  0 C s       :     3.344168  s :     3.344168
      pz      :     1.110641  p :     3.036433
      px      :     0.921689
      py      :     1.004103
      dz2     :     0.006053  d :     0.037598
      dxz     :     0.004377
      dyz     :     0.010928
      dx2y2   :     0.004653
      dxy     :     0.011587

  1 N s       :     3.219685  s :     3.219685
      pz      :     1.639274  p :     3.513704
      px      :     0.932025
      py      :     0.942405
      dz2     :     0.010813  d :     0.161335
      dxz     :     0.012583
      dyz     :     0.024140
      dx2y2   :     0.059102
      dxy     :     0.054697

  2 C s       :     3.371381  s :     3.371381
      pz      :     1.098446  p :     3.050593
      px      :     1.139406
      py      :     0.812741
      dz2     :     0.006226  d :     0.037824
      dxz     :     0.002769
      dyz     :     0.012862
      dx2y2   :     0.011246
      dxy     :     0.004721

  3 C s       :     3.090699  s :     3.090699
      pz      :     0.828157  p :     2.557391
      px      :     0.949134
      py      :     0.780100
      dz2     :     0.006151  d :     0.131657
      dxz     :     0.017441
      dyz     :     0.027427
      dx2y2   :     0.027742
      dxy     :     0.052897

  4 O s       :     3.849246  s :     3.849246
      pz      :     1.604115  p :     4.726525
      px      :     1.812794
      py      :     1.309616
      dz2     :     0.006039  d :     0.030634
      dxz     :     0.003241
      dyz     :     0.006483
      dx2y2   :     0.011468
      dxy     :     0.003403

  5 N s       :     3.341517  s :     3.341517
      pz      :     1.645857  p :     3.672297
      px      :     0.897763
      py      :     1.128677
      dz2     :     0.011791  d :     0.093431
      dxz     :     0.019243
      dyz     :     0.005435
      dx2y2   :     0.020361
      dxy     :     0.036601

  6 C s       :     3.206569  s :     3.206569
      pz      :     0.977939  p :     2.560000
      px      :     0.837014
      py      :     0.745047
      dz2     :     0.004475  d :     0.062281
      dxz     :     0.013249
      dyz     :     0.007438
      dx2y2   :     0.020358
      dxy     :     0.016760

  7 C s       :     3.251694  s :     3.251694
      pz      :     1.029709  p :     2.968559
      px      :     0.935413
      py      :     1.003437
      dz2     :     0.003278  d :     0.036135
      dxz     :     0.004928
      dyz     :     0.003852
      dx2y2   :     0.011103
      dxy     :     0.012974

  8 C s       :     3.253242  s :     3.253242
      pz      :     0.983803  p :     2.910050
      px      :     0.915139
      py      :     1.011108
      dz2     :     0.003167  d :     0.038520
      dxz     :     0.007074
      dyz     :     0.002969
      dx2y2   :     0.012878
      dxy     :     0.012431

  9 C s       :     3.225423  s :     3.225423
      pz      :     1.021696  p :     2.950739
      px      :     1.032224
      py      :     0.896819
      dz2     :     0.003181  d :     0.037393
      dxz     :     0.002506
      dyz     :     0.006390
      dx2y2   :     0.013317
      dxy     :     0.012000

 10 C s       :     3.208245  s :     3.208245
      pz      :     0.983652  p :     2.912684
      px      :     0.945843
      py      :     0.983189
      dz2     :     0.003195  d :     0.038471
      dxz     :     0.005804
      dyz     :     0.004319
      dx2y2   :     0.011947
      dxy     :     0.013206

 11 C s       :     3.307441  s :     3.307441
      pz      :     1.035478  p :     3.015936
      px      :     0.964134
      py      :     1.016324
      dz2     :     0.003311  d :     0.036140
      dxz     :     0.006087
      dyz     :     0.002771
      dx2y2   :     0.010490
      dxy     :     0.013480

 12 H s       :     0.811966  s :     0.811966
      pz      :     0.008577  p :     0.018058
      px      :     0.002963
      py      :     0.006518

 13 H s       :     0.810089  s :     0.810089
      pz      :     0.003834  p :     0.018491
      px      :     0.009479
      py      :     0.005178

 14 H s       :     0.811968  s :     0.811968
      pz      :     0.008930  p :     0.018038
      px      :     0.002953
      py      :     0.006156

 15 H s       :     0.805238  s :     0.805238
      pz      :     0.008816  p :     0.017965
      px      :     0.004688
      py      :     0.004461

 16 H s       :     0.799160  s :     0.799160
      pz      :     0.003831  p :     0.018541
      px      :     0.011705
      py      :     0.003005

 17 H s       :     0.805501  s :     0.805501
      pz      :     0.008893  p :     0.017974
      px      :     0.004699
      py      :     0.004383

 18 H s       :     0.647253  s :     0.647253
      pz      :     0.008980  p :     0.032940
      px      :     0.004435
      py      :     0.019526

 19 H s       :     0.773904  s :     0.773904
      pz      :     0.004224  p :     0.021293
      px      :     0.008278
      py      :     0.008790

 20 H s       :     0.802558  s :     0.802558
      pz      :     0.003944  p :     0.019476
      px      :     0.004297
      py      :     0.011235

 21 H s       :     0.802746  s :     0.802746
      pz      :     0.004252  p :     0.019666
      px      :     0.012164
      py      :     0.003250

 22 H s       :     0.799672  s :     0.799672
      pz      :     0.003948  p :     0.019491
      px      :     0.006649
      py      :     0.008893

 23 H s       :     0.802558  s :     0.802558
      pz      :     0.004246  p :     0.019816
      px      :     0.004121
      py      :     0.011449


------------------------
MULLIKEN OVERLAP CHARGES
------------------------
B(  0-C ,  1-N ) :   0.4595 B(  0-C ,  2-C ) :  -0.1059 B(  0-C ,  3-C ) :  -0.1504 
B(  0-C ,  4-O ) :   0.0690 B(  0-C , 12-H ) :   0.8096 B(  0-C , 13-H ) :   0.8003 
B(  0-C , 14-H ) :   0.8094 B(  1-N ,  2-C ) :   0.4891 B(  1-N ,  3-C ) :   0.9835 
B(  1-N ,  4-O ) :  -0.2211 B(  1-N ,  5-N ) :  -0.2318 B(  1-N , 12-H ) :  -0.0744 
B(  1-N , 13-H ) :  -0.0527 B(  1-N , 14-H ) :  -0.0748 B(  1-N , 15-H ) :  -0.0982 
B(  1-N , 17-H ) :  -0.0987 B(  2-C ,  3-C ) :  -0.1299 B(  2-C , 15-H ) :   0.8151 
B(  2-C , 16-H ) :   0.7796 B(  2-C , 17-H ) :   0.8151 B(  3-C ,  4-O ) :   1.0693 
B(  3-C ,  5-N ) :   0.6409 B(  3-C ,  6-C ) :  -0.2710 B(  3-C , 18-H ) :  -0.0573 
B(  4-O ,  5-N ) :  -0.1690 B(  5-N ,  6-C ) :   0.4788 B(  5-N ,  7-C ) :  -0.1214 
B(  5-N , 11-C ) :  -0.0661 B(  5-N , 18-H ) :   0.7985 B(  6-C ,  7-C ) :   0.9198 
B(  6-C ,  9-C ) :  -0.1184 B(  6-C , 11-C ) :   0.6578 B(  6-C , 18-H ) :  -0.1364 
B(  6-C , 23-H ) :  -0.0774 B(  7-C ,  8-C ) :   0.6360 B(  7-C ,  9-C ) :  -0.0907 
B(  7-C , 10-C ) :  -0.0685 B(  7-C , 11-C ) :  -0.2096 B(  7-C , 19-H ) :   0.8355 
B(  7-C , 20-H ) :  -0.0851 B(  8-C ,  9-C ) :   0.7708 B(  8-C , 10-C ) :  -0.0962 
B(  8-C , 11-C ) :  -0.1709 B(  8-C , 19-H ) :  -0.0851 B(  8-C , 20-H ) :   0.8553 
B(  8-C , 21-H ) :  -0.0766 B(  9-C , 10-C ) :   0.8407 B(  9-C , 11-C ) :  -0.0663 
B(  9-C , 20-H ) :  -0.0835 B(  9-C , 21-H ) :   0.8394 B(  9-C , 22-H ) :  -0.0695 
B( 10-C , 11-C ) :   0.6448 B( 10-C , 21-H ) :  -0.0791 B( 10-C , 22-H ) :   0.8216 
B( 11-C , 22-H ) :  -0.0592 B( 11-C , 23-H ) :   0.8233 B( 12-H , 14-H ) :  -0.0618 
B( 15-H , 17-H ) :  -0.0670 


                     *******************************
                     * LOEWDIN POPULATION ANALYSIS *
                     *******************************

----------------------
LOEWDIN ATOMIC CHARGES
----------------------
   0 C :   -0.102204
   1 N :   -0.791929
   2 C :   -0.108448
   3 C :    0.438197
   4 O :   -0.541788
   5 N :   -0.539135
   6 C :    0.154467
   7 C :   -0.156944
   8 C :   -0.167072
   9 C :   -0.201852
  10 C :   -0.166254
  11 C :   -0.146455
  12 H :    0.181335
  13 H :    0.188074
  14 H :    0.180653
  15 H :    0.180414
  16 H :    0.196495
  17 H :    0.180583
  18 H :    0.300205
  19 H :    0.202250
  20 H :    0.178367
  21 H :    0.175770
  22 H :    0.179268
  23 H :    0.186002

-------------------------------
LOEWDIN REDUCED ORBITAL CHARGES
-------------------------------
  0 C s       :     2.879103  s :     2.879103
      pz      :     1.111044  p :     3.132668
      px      :     0.980970
      py      :     1.040654
      dz2     :     0.014475  d :     0.090433
      dxz     :     0.007734
      dyz     :     0.028564
      dx2y2   :     0.011805
      dxy     :     0.027856

  1 N s       :     3.087976  s :     3.087976
      pz      :     1.595754  p :     3.974034
      px      :     1.178837
      py      :     1.199443
      dz2     :     0.068615  d :     0.729920
      dxz     :     0.086776
      dyz     :     0.129601
      dx2y2   :     0.221171
      dxy     :     0.223757

  2 C s       :     2.879589  s :     2.879589
      pz      :     1.106880  p :     3.138442
      px      :     1.115530
      py      :     0.916032
      dz2     :     0.014870  d :     0.090417
      dxz     :     0.006710
      dyz     :     0.030124
      dx2y2   :     0.026909
      dxy     :     0.011804

  3 C s       :     2.660252  s :     2.660252
      pz      :     0.750571  p :     2.618585
      px      :     0.911897
      py      :     0.956117
      dz2     :     0.016996  d :     0.282966
      dxz     :     0.032631
      dyz     :     0.051148
      dx2y2   :     0.066818
      dxy     :     0.115374

  4 O s       :     3.540377  s :     3.540377
      pz      :     1.575059  p :     4.765973
      px      :     1.740292
      py      :     1.450622
      dz2     :     0.030602  d :     0.235438
      dxz     :     0.010915
      dyz     :     0.051148
      dx2y2   :     0.072566
      dxy     :     0.070207

  5 N s       :     3.076732  s :     3.076732
      pz      :     1.580312  p :     3.959105
      px      :     1.169806
      py      :     1.208987
      dz2     :     0.056403  d :     0.503298
      dxz     :     0.108869
      dyz     :     0.029610
      dx2y2   :     0.167886
      dxy     :     0.140530

  6 C s       :     2.773417  s :     2.773417
      pz      :     0.911666  p :     2.938365
      px      :     0.943842
      py      :     1.082857
      dz2     :     0.009038  d :     0.133751
      dxz     :     0.025470
      dyz     :     0.013106
      dx2y2   :     0.044928
      dxy     :     0.041210

  7 C s       :     2.891813  s :     2.891813
      pz      :     1.019023  p :     3.187085
      px      :     1.090871
      py      :     1.077190
      dz2     :     0.005418  d :     0.078046
      dxz     :     0.008553
      dyz     :     0.006498
      dx2y2   :     0.027048
      dxy     :     0.030529

  8 C s       :     2.905939  s :     2.905939
      pz      :     0.968205  p :     3.177298
      px      :     1.099384
      py      :     1.109709
      dz2     :     0.005383  d :     0.083835
      dxz     :     0.013157
      dyz     :     0.004664
      dx2y2   :     0.030766
      dxy     :     0.029865

  9 C s       :     2.905419  s :     2.905419
      pz      :     1.011757  p :     3.214680
      px      :     1.106578
      py      :     1.096345
      dz2     :     0.005446  d :     0.081753
      dxz     :     0.003660
      dyz     :     0.011801
      dx2y2   :     0.032207
      dxy     :     0.028639

 10 C s       :     2.905008  s :     2.905008
      pz      :     0.969712  p :     3.177729
      px      :     1.099715
      py      :     1.108303
      dz2     :     0.005394  d :     0.083516
      dxz     :     0.010587
      dyz     :     0.007423
      dx2y2   :     0.028195
      dxy     :     0.031917

 11 C s       :     2.891868  s :     2.891868
      pz      :     1.020335  p :     3.176617
      px      :     1.073651
      py      :     1.082632
      dz2     :     0.005425  d :     0.077970
      dxz     :     0.010752
      dyz     :     0.004410
      dx2y2   :     0.026399
      dxy     :     0.030983

 12 H s       :     0.777700  s :     0.777700
      pz      :     0.020568  p :     0.040965
      px      :     0.006280
      py      :     0.014117

 13 H s       :     0.770303  s :     0.770303
      pz      :     0.008282  p :     0.041622
      px      :     0.020565
      py      :     0.012775

 14 H s       :     0.778417  s :     0.778417
      pz      :     0.021425  p :     0.040930
      px      :     0.006241
      py      :     0.013264

 15 H s       :     0.778281  s :     0.778281
      pz      :     0.021653  p :     0.041305
      px      :     0.010846
      py      :     0.008806

 16 H s       :     0.761766  s :     0.761766
      pz      :     0.008122  p :     0.041739
      px      :     0.027962
      py      :     0.005655

 17 H s       :     0.778116  s :     0.778116
      pz      :     0.021812  p :     0.041302
      px      :     0.010873
      py      :     0.008616

 18 H s       :     0.611680  s :     0.611680
      pz      :     0.022750  p :     0.088115
      px      :     0.012242
      py      :     0.053123

 19 H s       :     0.746317  s :     0.746317
      pz      :     0.009757  p :     0.051432
      px      :     0.020501
      py      :     0.021174

 20 H s       :     0.776334  s :     0.776334
      pz      :     0.008722  p :     0.045300
      px      :     0.009791
      py      :     0.026787

 21 H s       :     0.778229  s :     0.778229
      pz      :     0.009604  p :     0.046001
      px      :     0.028948
      py      :     0.007449

 22 H s       :     0.775335  s :     0.775335
      pz      :     0.008714  p :     0.045397
      px      :     0.015498
      py      :     0.021185

 23 H s       :     0.768078  s :     0.768078
      pz      :     0.009646  p :     0.045919
      px      :     0.009493
      py      :     0.026780


---------------------------------
LOEWDIN BOND ORDERS (THRESH 0.050000)
---------------------------------
B(  0-C ,  1-N ) :   1.3177 B(  0-C ,  2-C ) :   0.0734 B(  0-C ,  3-C ) :   0.0868 
B(  0-C ,  4-O ) :   0.0699 B(  0-C , 12-H ) :   0.8477 B(  0-C , 13-H ) :   0.8497 
B(  0-C , 14-H ) :   0.8484 B(  1-N ,  2-C ) :   1.3286 B(  1-N ,  3-C ) :   1.3003 
B(  1-N ,  4-O ) :   0.4244 B(  1-N ,  5-N ) :   0.3147 B(  1-N , 12-H ) :   0.0980 
B(  1-N , 13-H ) :   0.0970 B(  1-N , 14-H ) :   0.0982 B(  1-N , 15-H ) :   0.0979 
B(  1-N , 16-H ) :   0.0991 B(  1-N , 17-H ) :   0.0980 B(  2-C ,  3-C ) :   0.0781 
B(  2-C , 15-H ) :   0.8499 B(  2-C , 16-H ) :   0.8423 B(  2-C , 17-H ) :   0.8498 
B(  3-C ,  4-O ) :   1.8857 B(  3-C ,  5-N ) :   1.2388 B(  3-C ,  6-C ) :   0.0725 
B(  4-O ,  5-N ) :   0.3657 B(  4-O ,  7-C ) :   0.0732 B(  5-N ,  6-C ) :   1.3634 
B(  5-N ,  7-C ) :   0.1922 B(  5-N , 11-C ) :   0.2190 B(  5-N , 18-H ) :   0.8267 
B(  6-C ,  7-C ) :   1.3123 B(  6-C ,  8-C ) :   0.0925 B(  6-C ,  9-C ) :   0.1057 
B(  6-C , 10-C ) :   0.0900 B(  6-C , 11-C ) :   1.2968 B(  6-C , 19-H ) :   0.0512 
B(  6-C , 23-H ) :   0.0526 B(  7-C ,  8-C ) :   1.5162 B(  7-C ,  9-C ) :   0.0918 
B(  7-C , 10-C ) :   0.1222 B(  7-C , 11-C ) :   0.0813 B(  7-C , 19-H ) :   0.8330 
B(  7-C , 20-H ) :   0.0554 B(  8-C ,  9-C ) :   1.5052 B(  8-C , 10-C ) :   0.0886 
B(  8-C , 11-C ) :   0.1266 B(  8-C , 19-H ) :   0.0528 B(  8-C , 20-H ) :   0.8683 
B(  8-C , 21-H ) :   0.0544 B(  9-C , 10-C ) :   1.4928 B(  9-C , 11-C ) :   0.0911 
B(  9-C , 20-H ) :   0.0535 B(  9-C , 21-H ) :   0.8720 B(  9-C , 22-H ) :   0.0533 
B( 10-C , 11-C ) :   1.5327 B( 10-C , 21-H ) :   0.0539 B( 10-C , 22-H ) :   0.8682 
B( 10-C , 23-H ) :   0.0535 B( 11-C , 22-H ) :   0.0561 B( 11-C , 23-H ) :   0.8567 


------------------------------------------
LOEWDIN REDUCED ORBITAL POPULATIONS PER MO
-------------------------------------------
THRESHOLD FOR PRINTING IS 0.1%%
                      0         1         2         3         4         5   
                 -18.91697 -14.19709 -14.18908 -10.15568 -10.08475 -10.05677
                   2.00000   2.00000   2.00000   2.00000   2.00000   2.00000
                  --------  --------  --------  --------  --------  --------
 1 N  s               0.0       0.0      99.8       0.0       0.0       0.0
 1 N  py              0.0       0.0       0.0       0.0       0.0       0.1
 1 N  dx2y2           0.0       0.0       0.0       0.1       0.0       0.2
 1 N  dxy             0.0       0.0       0.0       0.1       0.0       0.0
 2 C  s               0.0       0.0       0.0       0.0       0.0      99.4
 3 C  s               0.0       0.0       0.0      98.6       0.0       0.0
 4 O  s              99.9       0.0       0.0       0.0       0.0       0.0
 4 O  py              0.0       0.0       0.0       0.2       0.0       0.0
 4 O  dx2y2           0.0       0.0       0.0       0.2       0.0       0.0
 5 N  s               0.0      99.8       0.0       0.0       0.0       0.0
 5 N  px              0.0       0.0       0.0       0.1       0.1       0.0
 5 N  dx2y2           0.0       0.0       0.0       0.0       0.2       0.0
 5 N  dxy             0.0       0.0       0.0       0.2       0.0       0.0
 6 C  s               0.0       0.0       0.0       0.0      99.2       0.0
 7 C  py              0.0       0.0       0.0       0.0       0.1       0.0

                      6         7         8         9        10        11   
                 -10.05077 -10.03431 -10.03342 -10.03282 -10.02808 -10.02655
                   2.00000   2.00000   2.00000   2.00000   2.00000   2.00000
                  --------  --------  --------  --------  --------  --------
 0 C  s              99.4       0.0       0.0       0.0       0.0       0.0
 1 N  dxy             0.2       0.0       0.0       0.0       0.0       0.0
 6 C  py              0.0       0.0       0.0       0.1       0.1       0.0
 7 C  s               0.0       0.0       0.2       0.0      99.4       0.0
 7 C  px              0.0       0.0       0.1       0.0       0.0       0.0
 8 C  s               0.0       0.0      99.3       0.0       0.2       0.1
 8 C  px              0.0       0.0       0.0       0.0       0.1       0.1
 9 C  s               0.0       0.1       0.1       0.0       0.0      99.4
 9 C  py              0.0       0.1       0.1       0.0       0.0       0.0
10 C  s               0.0      96.8       0.0       2.7       0.0       0.1
10 C  px              0.0       0.0       0.0       0.1       0.0       0.0
10 C  py              0.0       0.0       0.0       0.0       0.0       0.1
11 C  s               0.0       2.7       0.0      96.9       0.0       0.0
11 C  px              0.0       0.1       0.0       0.0       0.0       0.0

                     12        13        14        15        16        17   
                  -1.02193  -0.91685  -0.89612  -0.81863  -0.72107  -0.71749
                   2.00000   2.00000   2.00000   2.00000   2.00000   2.00000
                  --------  --------  --------  --------  --------  --------
 0 C  s               1.1       0.8       5.7       0.5       4.0       0.5
 0 C  px              1.5       0.3       2.0       0.1       0.0       0.0
 0 C  py              0.1       0.5       1.7       0.1       0.1       0.0
 0 C  dxy             0.0       0.0       0.2       0.0       0.0       0.0
 1 N  s               7.5       7.3      28.9       0.7       0.2       0.0
 1 N  px              1.7       0.1       0.6       0.5       4.8       0.6
 1 N  py              0.7       0.5       0.1       0.0       0.4       0.0
 1 N  dz2             0.9       0.1       0.2       0.0       0.0       0.0
 1 N  dx2y2           0.1       0.3       0.2       0.2       0.2       0.0
 1 N  dxy             0.8       0.4       0.1       0.0       0.1       0.0
 2 C  s               0.8       2.0       5.5       0.1       0.0       0.0
 2 C  px              0.2       0.2       0.0       0.1       0.4       0.1
 2 C  py              0.9       1.1       3.6       0.1       0.0       0.0
 2 C  dx2y2           0.0       0.1       0.2       0.0       0.0       0.0
 3 C  s              21.3       0.6       0.1       0.3       2.0       0.2
 3 C  px              0.0       0.2      13.9       1.1       0.5       0.0
 3 C  py              3.6      19.6       0.8       1.0       3.0       0.2
 3 C  dz2             0.8       0.0       0.0       0.0       0.0       0.0
 3 C  dx2y2           0.4       0.9       0.2       0.0       0.0       0.0
 3 C  dxy             0.0       0.1       0.5       0.1       0.0       0.0
 4 O  s              35.2      18.3       1.4       0.2       0.5       0.0
 4 O  px              0.1       0.0       0.3       0.0       0.0       0.0
 4 O  py              5.1       1.1       0.1       0.0       0.3       0.0
 4 O  dz2             0.4       0.2       0.0       0.0       0.0       0.0
 4 O  dx2y2           0.6       0.2       0.0       0.1       0.4       0.1
 4 O  dxy             0.0       0.0       0.8       0.0       0.0       0.0
 5 N  s               7.3      23.5      11.7       3.9       0.7       0.1
 5 N  px              1.0       0.1       1.9       1.5      10.4       1.0
 5 N  py              1.2       0.1       0.0       0.0       0.1       0.5
 5 N  dz2             0.8       0.2       0.0       0.1       0.1       0.0
 5 N  dx2y2           0.0       1.1       0.1       0.3       0.4       0.0
 5 N  dxy             0.9       0.2       0.0       0.0       0.1       0.6
 6 C  s               1.0       6.4       6.1       4.7       9.8       1.8
 6 C  px              1.4       2.4       1.2       7.1       0.4       0.0
 6 C  py              0.0       0.3       0.1       0.2       1.7       9.4
 6 C  dz2             0.0       0.1       0.1       0.0       0.1       0.0
 6 C  dx2y2           0.0       0.1       0.1       0.1       0.0       0.0
 6 C  dxy             0.0       0.0       0.0       0.0       0.0       0.2
 7 C  s               0.2       0.8       1.3       9.3       0.0      17.6
 7 C  px              0.4       0.1       0.1       2.0       4.0       0.3
 7 C  py              0.1       0.8       0.7       0.9       2.3       0.3
 7 C  dz2             0.0       0.0       0.0       0.1       0.0       0.1
 7 C  dx2y2           0.0       0.0       0.0       0.0       0.2       0.0
 8 C  s               0.0       0.2       0.3      12.0      10.1       7.4
 8 C  px              0.0       0.1       0.1       0.2       1.6       4.8
 8 C  py              0.0       0.1       0.1       2.4       0.6       0.7
 8 C  dz2             0.0       0.0       0.0       0.1       0.1       0.0
 8 C  dx2y2           0.0       0.0       0.0       0.0       0.0       0.1
 9 C  s               0.0       0.1       0.2      12.6      12.2       1.9
 9 C  px              0.0       0.1       0.1       2.7       0.3       0.1
 9 C  py              0.0       0.0       0.0       0.1       1.0       7.8
 9 C  dz2             0.0       0.0       0.0       0.1       0.1       0.0
 9 C  dxy             0.0       0.0       0.0       0.0       0.0       0.2
10 C  s               0.0       0.2       0.3      12.3       0.4      17.6
10 C  px              0.0       0.2       0.2       0.8       3.9       0.5
10 C  py              0.0       0.0       0.0       1.8       2.8       0.2
10 C  dz2             0.0       0.0       0.0       0.1       0.0       0.1
10 C  dx2y2           0.0       0.0       0.0       0.0       0.2       0.0
11 C  s               0.1       1.2       1.4       9.6       8.0       8.6
11 C  px              0.1       0.6       0.4       1.3       2.4       4.4
11 C  py              0.1       0.4       0.5       1.6       0.5       0.7
11 C  dz2             0.0       0.0       0.0       0.1       0.1       0.1
11 C  dx2y2           0.0       0.0       0.0       0.0       0.0       0.1
11 C  dxy             0.0       0.0       0.0       0.0       0.1       0.0
12 H  s               0.1       0.1       0.5       0.1       0.7       0.1
13 H  s               0.1       0.1       0.6       0.1       0.8       0.1
14 H  s               0.1       0.1       0.5       0.1       0.7       0.1
15 H  s               0.1       0.2       0.4       0.0       0.0       0.0
16 H  s               0.0       0.2       0.6       0.0       0.0       0.0
17 H  s               0.1       0.2       0.4       0.0       0.0       0.0
18 H  s               0.8       4.1       1.5       0.7       0.2       0.2
18 H  py              0.1       0.6       0.3       0.2       0.1       0.0
19 H  s               0.1       0.0       0.1       0.8       0.0       2.9
19 H  px              0.0       0.0       0.0       0.0       0.0       0.1
19 H  py              0.0       0.0       0.0       0.0       0.0       0.2
20 H  s               0.0       0.0       0.0       1.1       1.6       1.3
20 H  py              0.0       0.0       0.0       0.1       0.1       0.1
21 H  s               0.0       0.0       0.0       1.1       1.9       0.3
21 H  px              0.0       0.0       0.0       0.1       0.2       0.0
22 H  s               0.0       0.0       0.0       1.1       0.1       3.0
22 H  px              0.0       0.0       0.0       0.0       0.0       0.1
22 H  py              0.0       0.0       0.0       0.1       0.0       0.2
23 H  s               0.0       0.1       0.1       0.8       1.4       1.5
23 H  py              0.0       0.0       0.0       0.1       0.1       0.1

                     18        19        20        21        22        23   
                  -0.68639  -0.65729  -0.59414  -0.57964  -0.53150  -0.51223
                   2.00000   2.00000   2.00000   2.00000   2.00000   2.00000
                  --------  --------  --------  --------  --------  --------
 0 C  s              12.4      11.0       2.3       2.3       1.0       1.0
 0 C  px              0.3       1.1       1.0       1.2       1.4       0.7
 0 C  py              0.8       0.1       0.1       0.5       0.5       4.6
 0 C  dxy             0.0       0.0       0.0       0.0       0.1       0.1
 1 N  s               0.1       1.4       0.9       1.7       1.1       2.0
 1 N  px              0.4      16.5       0.7       0.1       0.2       5.1
 1 N  py             22.0       1.1       0.2       0.0       0.0       1.3
 1 N  dz2             0.0       0.5       0.2       0.3       0.1       0.2
 1 N  dx2y2           2.5       0.3       0.3       0.2       0.2       0.3
 1 N  dxy             1.7       0.6       0.1       0.5       0.0       0.6
 2 C  s              25.3       5.4       0.4       0.3       0.6       0.8
 2 C  px              0.1       1.1       0.2       0.0       0.2       1.6
 2 C  py              0.6       0.2       0.1       0.6       0.8       5.3
 2 C  dx2y2           0.0       0.0       0.0       0.0       0.0       0.1
 3 C  s               0.3       3.4       0.5       0.1       2.4       0.0
 3 C  px              0.5       4.0       6.0       1.3       3.5       3.7
 3 C  py              0.4       2.4       0.8       0.3       0.5       0.2
 3 C  dx2y2           0.2       0.1       0.0       0.1       0.0       0.2
 3 C  dxy             0.1       0.1       0.2       0.1       0.0       0.0
 4 O  s               1.1       1.7       0.5       0.1       1.8       0.3
 4 O  px              0.4       0.2       1.2       0.0       0.3       1.9
 4 O  py              0.3       0.8       0.3       0.0       3.0       0.5
 4 O  dz2             0.1       0.1       0.1       0.0       0.0       0.0
 4 O  dx2y2           0.0       0.3       0.0       0.0       0.4       0.0
 4 O  dxy             0.2       0.3       0.4       0.0       0.3       0.4
 5 N  s               0.4       2.3       0.0       0.2       0.8       0.1
 5 N  px              0.0       2.2       5.0       9.4       2.8       2.8
 5 N  py              0.0       0.9       9.6       2.5      15.3      15.3
 5 N  dz2             0.1       0.2       0.0       0.0       0.0       0.1
 5 N  dx2y2           0.1       1.1       0.2       0.5       0.7       0.0
 5 N  dxy             0.2       0.2       0.3       0.4       0.5       0.2
 6 C  s               0.2       0.4       0.4       4.3       1.0       0.1
 6 C  px              0.3       4.5       0.2       2.6       3.9       5.4
 6 C  py              0.0       0.5      12.4       2.8       0.2       0.2
 6 C  dx2y2           0.0       0.1       0.0       0.0       0.0       0.1
 6 C  dxy             0.0       0.0       0.0       0.0       0.4       0.1
 7 C  s               0.2       2.1       4.7       0.1       3.4       0.6
 7 C  px              0.1       0.1       2.9       6.7       0.0       0.0
 7 C  py              0.0       0.3       0.1       3.7       6.4       2.2
 7 C  dx2y2           0.0       0.0       0.0       0.1       0.1       0.1
 8 C  s               0.1       0.5       3.7       5.2       0.0       2.2
 8 C  px              0.2       2.9       4.8       1.8       4.7       1.7
 8 C  py              0.0       0.2       0.1       3.0       2.4       4.0
 9 C  s               0.6       4.8       1.2       5.8       0.7       0.2
 9 C  px              0.0       0.2       0.0       2.2       0.1       0.2
 9 C  py              0.0       0.1       7.5       2.4       4.0       2.2
 9 C  dxy             0.0       0.0       0.1       0.0       0.0       0.0
10 C  s               0.0       0.1       6.0       0.1       4.7       0.2
10 C  px              0.2       2.2       0.2       7.5       2.8       0.4
10 C  py              0.1       1.0       0.9       3.8       2.7       4.1
10 C  dx2y2           0.0       0.1       0.0       0.2       0.0       0.0
11 C  s               0.3       2.2       0.7       6.2       1.3       1.3
11 C  px              0.0       0.0       8.5       0.5       1.7       0.3
11 C  py              0.0       0.1       0.1       2.5       2.1       5.0
11 C  dx2y2           0.0       0.0       0.0       0.0       0.1       0.0
12 H  s               2.9       2.3       0.7       0.9       0.5       1.5
12 H  pz              0.2       0.1       0.0       0.0       0.0       0.1
13 H  s               1.9       3.9       1.2       1.2       0.8       0.2
13 H  px              0.1       0.2       0.1       0.0       0.0       0.0
14 H  s               2.9       2.3       0.7       0.9       0.5       1.5
14 H  pz              0.2       0.1       0.0       0.0       0.0       0.1
15 H  s               5.6       1.1       0.1       0.2       0.3       1.6
15 H  pz              0.3       0.1       0.0       0.0       0.0       0.1
16 H  s               5.2       2.4       0.3       0.2       0.5       0.0
16 H  px              0.5       0.2       0.0       0.0       0.0       0.0
17 H  s               5.6       1.1       0.1       0.2       0.3       1.6
17 H  pz              0.3       0.1       0.0       0.0       0.0       0.1
18 H  s               0.0       0.9       1.7       1.8       5.4       6.0
18 H  px              0.0       0.0       0.1       0.0       0.1       0.0
18 H  py              0.0       0.1       0.1       0.2       0.3       0.3
19 H  s               0.1       0.3       2.3       0.0       3.6       0.1
19 H  px              0.0       0.0       0.0       0.0       0.2       0.0
19 H  py              0.0       0.0       0.1       0.0       0.1       0.0
20 H  s               0.0       0.1       1.6       2.5       0.1       3.7
20 H  py              0.0       0.0       0.1       0.1       0.0       0.2
21 H  s               0.1       1.2       0.5       2.8       0.2       0.0
21 H  px              0.0       0.1       0.1       0.2       0.0       0.0
22 H  s               0.0       0.0       2.5       0.0       4.9       0.6
22 H  px              0.0       0.0       0.1       0.0       0.1       0.0
22 H  py              0.0       0.0       0.1       0.0       0.2       0.0
23 H  s               0.0       0.3       0.7       3.2       0.0       2.1
23 H  py              0.0       0.0       0.1       0.2       0.0       0.1

                     24        25        26        27        28        29   
                  -0.48723  -0.45965  -0.44759  -0.42852  -0.41705  -0.40038
                   2.00000   2.00000   2.00000   2.00000   2.00000   2.00000
                  --------  --------  --------  --------  --------  --------
 0 C  s               0.4       0.3       0.0       0.5       0.2       0.0
 0 C  pz              0.0       0.0      12.4       0.0       0.0       0.0
 0 C  px              0.0       2.6       0.0       3.7       6.5       0.0
 0 C  py              5.2       0.4       0.0       6.6       0.1       1.5
 0 C  dxy             0.0       0.0       0.0       0.1       0.1       0.0
 1 N  s               1.4       0.0       0.0       0.1       0.0       0.1
 1 N  pz              0.0       0.0      24.2       0.0       0.0       0.0
 1 N  px              7.3       0.8       0.0       6.9       1.2       0.9
 1 N  py              6.4       3.9       0.0       6.6       5.0       0.1
 1 N  dx2y2           1.3       0.3       0.0       0.3       0.2       0.2
 1 N  dxy             0.1       0.6       0.0       1.0       0.1       0.1
 2 C  s               2.3       0.2       0.0       0.1       0.1       0.0
 2 C  pz              0.0       0.0      14.8       0.0       0.0       0.0
 2 C  px              0.0       1.7       0.0       7.5       0.3       0.5
 2 C  py             13.7       2.2       0.0       2.2       2.7       0.0
 2 C  dz2             0.1       0.0       0.0       0.0       0.0       0.0
 2 C  dx2y2           0.2       0.0       0.0       0.1       0.0       0.0
 3 C  s               1.1       0.1       0.0       0.6       0.5       0.0
 3 C  pz              0.0       0.0      16.9       0.0       0.0       0.0
 3 C  px              3.5       0.2       0.0       0.7       0.1       0.0
 3 C  py              0.1       1.7       0.0       1.7       0.4       0.4
 3 C  dx2y2           0.2       0.1       0.0       0.0       0.1       0.1
 3 C  dxy             0.0       0.0       0.0       0.2       0.1       0.1
 4 O  s               2.7       1.6       0.0       3.5       0.6       0.1
 4 O  pz              0.0       0.0       7.3       0.0       0.0       0.0
 4 O  px              1.5       1.3       0.0       0.0       0.0       0.5
 4 O  py              3.2       4.5       0.0      11.0       3.9       0.9
 4 O  dz2             0.1       0.0       0.0       0.0       0.0       0.1
 4 O  dyz             0.0       0.0       1.0       0.0       0.0       0.0
[...]
 6 C  s               1.6       0.4       0.1       6.0       0.9      11.6
 6 C  px              3.1       1.3       0.2       0.0       0.0       0.0
 6 C  py              0.2       0.2       0.1       0.0       0.1       0.0
 6 C  dz2             0.3       0.1       0.0       0.0       0.0       0.0
 6 C  dx2y2           6.4       1.8       0.4       0.0       0.0       0.0
 6 C  dxy             0.1       1.4       0.0       0.0       0.0       0.0
 7 C  s               0.1       0.1       0.0      15.3      28.2      10.7
 7 C  px              0.6       0.1       0.0       0.0       0.1       0.0
 7 C  py              0.7       0.0       0.0       0.0       0.0       0.0
 7 C  dx2y2           0.1       0.2       0.0       0.0       0.0       0.0
 7 C  dxy             3.6       0.7       0.1       0.0       0.0       0.0
 8 C  s               0.1       0.0       0.0      21.1      22.2       5.7
 8 C  px              0.1       0.0       0.0       0.0       0.0       0.0
 8 C  py              0.4       0.0       0.0       0.0       0.0       0.0
 8 C  dx2y2           1.8       0.4       0.0       0.0       0.0       0.0
 8 C  dxy             1.5       0.3       0.0       0.0       0.0       0.0
 9 C  s               0.1       0.0       0.0      21.7       0.8      29.4
 9 C  px              0.6       0.1       0.0       0.0       0.0       0.0
 9 C  dx2y2           2.7       0.5       0.0       0.0       0.0       0.0
 9 C  dxy             0.3       0.0       0.0       0.0       0.0       0.0
10 C  s               0.1       0.0       0.0      21.5      29.1       0.0
10 C  px              0.2       0.0       0.0       0.0       0.0       0.0
10 C  py              0.2       0.1       0.0       0.0       0.0       0.0
10 C  dx2y2           0.2       0.0       0.0       0.0       0.0       0.0
10 C  dxy             2.5       0.7       0.1       0.0       0.0       0.0
11 C  s               0.0       0.0       0.0      13.9      17.3      18.3
11 C  py              0.3       0.5       0.0       0.0       0.0       0.0
11 C  dx2y2           1.5       0.2       0.1       0.0       0.0       0.0
11 C  dxy             1.0       0.9       0.1       0.0       0.0       0.0
18 H  s               0.0       8.8       0.0       0.0       0.0       0.0
18 H  px              0.4       0.5       0.1       0.0       0.0       0.0
18 H  py              0.0      12.2       0.0       0.0       0.0       0.0
19 H  s               1.1       0.2       0.0       0.0       0.0       0.0
19 H  px              0.8       0.1       0.0       0.0       0.0       0.0
19 H  py              1.2       0.3       0.0       0.0       0.0       0.0
20 H  s               0.7       0.1       0.0       0.0       0.0       0.0
20 H  py              1.1       0.2       0.0       0.0       0.0       0.0
21 H  s               0.8       0.1       0.0       0.0       0.0       0.0
21 H  px              1.3       0.2       0.0       0.0       0.0       0.0
22 H  s               0.6       0.1       0.0       0.0       0.0       0.0
22 H  px              0.3       0.1       0.0       0.0       0.0       0.0
22 H  py              0.6       0.1       0.0       0.0       0.0       0.0
23 H  s               0.6       0.3       0.0       0.0       0.0       0.0
23 H  px              0.1       0.0       0.0       0.0       0.0       0.0
23 H  py              0.9       0.6       0.1       0.0       0.0       0.0

                    294       295       296       297       298       299   
                  22.06814  22.10264  22.20124  22.23405  22.35005  22.48408
                   0.00000   0.00000   0.00000   0.00000   0.00000   0.00000
                  --------  --------  --------  --------  --------  --------
 0 C  s              23.2      66.6       1.7       0.7       0.2       0.0
 1 N  s               0.2       0.0       0.0       0.0       0.0       0.2
 1 N  px              0.0       0.0       0.0       0.0       0.0       0.1
 1 N  py              0.0       0.1       0.0       0.0       0.0       0.0
 2 C  s              51.4      30.2       0.0       0.1       0.2       0.4
 3 C  s               0.2       0.2       0.6       1.0       2.8      93.4
 4 O  s               0.0       0.0       0.0       0.0       0.0       0.2
 4 O  py              0.0       0.0       0.0       0.0       0.0       0.1
 5 N  s               0.0       0.0       0.0       0.1       0.0       0.1
 5 N  px              0.0       0.0       0.0       0.1       0.0       0.2
 5 N  py              0.0       0.0       0.0       0.0       0.0       0.1
 6 C  s               2.9       0.9       0.3      44.4      28.9       2.9
 6 C  px              0.0       0.0       0.0       0.1       0.0       0.0
 7 C  s               3.2       0.0      23.0       1.8      17.3       0.1
 8 C  s               0.3       0.9      24.6      11.6      13.1       0.0
 9 C  s              11.1       0.0       0.2      23.7      12.7       0.0
10 C  s               0.5       0.3      20.3      15.9      12.0       0.1
11 C  s               6.6       0.3      28.9       0.0      12.2       1.8

                    300       301       302   
                  31.96382  32.08546  43.82188
                   0.00000   0.00000   0.00000
                  --------  --------  --------
 1 N  s              55.1      44.7       0.0
 4 O  s               0.0       0.0      99.9
 5 N  s              44.6      55.1       0.0


                      *****************************
                      * MAYER POPULATION ANALYSIS *
                      *****************************

  NA   - Mulliken gross atomic population
  ZA   - Total nuclear charge
  QA   - Mulliken gross atomic charge
  VA   - Mayer's total valence
  BVA  - Mayer's bonded valence
  FA   - Mayer's free valence

  ATOM       NA         ZA         QA         VA         BVA        FA
  0 C      6.4182     6.0000    -0.4182     3.8238     3.8238     0.0000
  1 N      6.8947     7.0000     0.1053     3.1730     3.1730     0.0000
  2 C      6.4598     6.0000    -0.4598     3.7904     3.7904     0.0000
  3 C      5.7797     6.0000     0.2203     4.0900     4.0900     0.0000
  4 O      8.6064     8.0000    -0.6064     1.8951     1.8951     0.0000
  5 N      7.1072     7.0000    -0.1072     3.2330     3.2330    -0.0000
  6 C      5.8288     6.0000     0.1712     3.6189     3.6189     0.0000
  7 C      6.2564     6.0000    -0.2564     3.7084     3.7084    -0.0000
  8 C      6.2018     6.0000    -0.2018     3.6862     3.6862    -0.0000
  9 C      6.2136     6.0000    -0.2136     3.7461     3.7461    -0.0000
 10 C      6.1594     6.0000    -0.1594     3.7370     3.7370     0.0000
 11 C      6.3595     6.0000    -0.3595     3.7618     3.7618     0.0000
 12 H      0.8300     1.0000     0.1700     0.9497     0.9497     0.0000
 13 H      0.8286     1.0000     0.1714     0.9578     0.9578     0.0000
 14 H      0.8300     1.0000     0.1700     0.9496     0.9496     0.0000
 15 H      0.8232     1.0000     0.1768     0.9472     0.9472    -0.0000
 16 H      0.8177     1.0000     0.1823     0.9557     0.9557     0.0000
 17 H      0.8235     1.0000     0.1765     0.9472     0.9472    -0.0000
 18 H      0.6802     1.0000     0.3198     0.8868     0.8868    -0.0000
 19 H      0.7952     1.0000     0.2048     0.9470     0.9470    -0.0000
 20 H      0.8220     1.0000     0.1780     0.9587     0.9587    -0.0000
 21 H      0.8224     1.0000     0.1776     0.9592     0.9592    -0.0000
 22 H      0.8192     1.0000     0.1808     0.9578     0.9578     0.0000
 23 H      0.8224     1.0000     0.1776     0.9628     0.9628     0.0000

  Mayer bond orders larger than 0.100000
B(  0-C ,  1-N ) :   0.8909 B(  0-C , 12-H ) :   0.9536 B(  0-C , 13-H ) :   0.9544 
B(  0-C , 14-H ) :   0.9531 B(  1-N ,  2-C ) :   0.8807 B(  1-N ,  3-C ) :   1.3146 
B(  2-C , 15-H ) :   0.9502 B(  2-C , 16-H ) :   0.9471 B(  2-C , 17-H ) :   0.9504 
B(  3-C ,  4-O ) :   1.6616 B(  3-C ,  5-N ) :   1.1068 B(  5-N ,  6-C ) :   0.9975 
B(  5-N , 18-H ) :   0.8900 B(  6-C ,  7-C ) :   1.3626 B(  6-C , 11-C ) :   1.3026 
B(  7-C ,  8-C ) :   1.3406 B(  7-C , 19-H ) :   0.9433 B(  8-C ,  9-C ) :   1.3777 
B(  8-C , 20-H ) :   0.9666 B(  9-C , 10-C ) :   1.3653 B(  9-C , 21-H ) :   0.9584 
B( 10-C , 11-C ) :   1.3877 B( 10-C , 22-H ) :   0.9517 B( 11-C , 23-H ) :   0.9611 


-------
TIMINGS
-------

Total SCF time: 0 days 0 hours 0 min 44 sec 

Total time                  ....      44.114 sec
Sum of individual times     ....      43.574 sec  ( 98.8%)

SCF preparation             ....       0.362 sec  (  0.8%)
Fock matrix formation       ....      42.028 sec  ( 95.3%)
  Startup                   ....       0.054 sec  (  0.1% of F)
  Split-RI-J                ....       8.348 sec  ( 19.9% of F)
  XC integration            ....      23.983 sec  ( 57.1% of F)
    XC Preparation          ....       0.000 sec  (  0.0% of XC)
    Basis function eval.    ....       3.891 sec  ( 16.2% of XC)
    Density eval.           ....       8.037 sec  ( 33.5% of XC)
    XC-Functional eval.     ....       2.224 sec  (  9.3% of XC)
    XC-Potential eval.      ....       8.959 sec  ( 37.4% of XC)
  CPCM terms                ....       9.055 sec  ( 21.5% of F)
Diagonalization             ....       0.000 sec  (  0.0%)
Density matrix formation    ....       0.284 sec  (  0.6%)
Total Energy calculation    ....       0.045 sec  (  0.1%)
Population analysis         ....       0.164 sec  (  0.4%)
Orbital Transformation      ....       0.071 sec  (  0.2%)
Orbital Orthonormalization  ....       0.000 sec  (  0.0%)
DIIS solution               ....       0.550 sec  (  1.2%)
  MO trafo                  ....       0.000 sec  (  0.0 % of DIIS)
  Orb grad                  ....       0.000 sec  (  0.0 % of DIIS)
  Energy W gradient         ....       0.000 sec  (  0.0 % of DIIS)
  DIIS error                ....       0.030 sec  (  5.4 % of DIIS)
  DIIS work                 ....       0.463 sec  ( 84.1 % of DIIS)
  Form Q                    ....       0.000 sec  (  0.0 % of DIIS)
  Form QpQm                 ....       0.000 sec  (  0.0 % of DIIS)
  Exp/Cayley                ....       0.000 sec  (  0.0 % of DIIS)
  Orb update                ....       0.000 sec  (  0.0 % of DIIS)
  Wake-sleep                ....       0.023 sec  (  4.2 % of DIIS)
SOSCF solution              ....       0.071 sec  (  0.2%)
  MO trafo                  ....       0.054 sec  ( 75.6 % of SOSCF)
  Orb grad                  ....       0.001 sec  (  0.8 % of SOSCF)
  Rot update                ....       0.000 sec  (  0.1 % of SOSCF)
  Step                      ....       0.017 sec  ( 23.4 % of SOSCF)
Finished LeanSCF after  44.2 sec

Maximum memory used throughout the entire LEANSCF-calculation: 45.0 MB


-------------------------------------------------------------------------------
                          DFT DISPERSION CORRECTION                            
                                                                               
                                DFTD4 V3.4.0                                   
-------------------------------------------------------------------------------
The R2SCAN3C composite method is recognized
Using three-body term ABC
Active option DFTDOPT                   ...         5   

-------------------------   ----------------
Dispersion correction           -0.008503738
-------------------------   ----------------

------------------   -----------------
gCP correction             0.019756744
------------------   -----------------

-------------------------   --------------------
FINAL SINGLE POINT ENERGY      -534.805346061926
-------------------------   --------------------


------------------------------------------------------------------------------
                              ORCA PROPERTY CALCULATIONS
------------------------------------------------------------------------------

GBWName                                 ... sp_solv.gbw
Number of atoms                         ...     24
Number of basis functions               ...    303
Max core memory                         ...   1024 MB

Electric properties:
Dipole moment                           ... YES
Quadrupole moment                       ...  NO
Static polarizability (Dipole/Dipole)   ...  NO
Static polarizability (Dipole/Quad.)    ...  NO
Static polarizability (Quad./Quad.)     ...  NO
Static polarizability (Velocity)        ...  NO

Atomic electric properties:
Dipole moment                           ...  NO
Quadrupole moment                       ...  NO
Static polarizability                   ...  NO

Choice of electric origin               ... Center of mass
Position of electric origin             ...    -0.000013     0.000015    -0.000000

General magnetic properties:
Magnetizability                         ...  NO

EPR properties:
g-Tensor (aka g-matrix)                 ...  NO
Zero-Field splitting spin-orbit         ...  NO
Zero-field splitting spin-spin          ...  NO
Hyperfine couplings                     ...  NO (   0 nuclei)
Quadrupole couplings                    ...  NO (   0 nuclei)
Contact density                         ...  NO (   0 nuclei)

NMR properties:
Chemical shifts                         ...  NO (   0 nuclei)
Spin-rotation constants                 ...  NO (   0 nuclei)
Spin-spin couplings                     ...  NO (   0 nuclei,    0 pairs)

Choice of magnetic origin               ... GIAO
Position of magnetic origin             ...     0.000000     0.000000     0.000000

Properties with geometric perturbations:
SCF Hessian                             ...  NO
IR spectrum                             ...  NO
VCD spectrum                            ...  NO
X-ray spectroscopy properties:
SCF XES/XAS/RIXS spectra                ...  NO


-------------
DIPOLE MOMENT
-------------

Method             : SCF
Type of density    : Electron Density
Multiplicity       :   1
Irrep              :   0
Energy             :  -534.8165990678559183 Eh
Relativity type    : 
Basis              : AO
                                X                 Y                 Z
Electronic contribution:      6.011141686      -1.834983927      -0.012413756
Nuclear contribution   :     -7.161842527       4.362490805      -0.005677015
                        -----------------------------------------
Total Dipole Moment    :     -1.150700841       2.527506877      -0.018090771
                        -----------------------------------------
Magnitude (a.u.)       :      2.777180353
Magnitude (Debye)      :      7.059031468



--------------------
Rotational spectrum 
--------------------
 
Rotational constants in cm-1:             0.087289             0.016239             0.013763 
Rotational constants in MHz :          2616.861032           486.840284           412.605607 

Dipole components along the rotational axes: 
x,y,z [a.u.] :    -1.149773     2.527989     0.004966 
x,y,z [Debye]:    -2.922490     6.425637     0.012623 

 

Dipole moment calculation done in   0.0 sec 

Maximum memory used throughout the entire PROP-calculation: 21.5 MB

--------------------------------
SUGGESTED CITATIONS FOR THIS RUN
--------------------------------

Below you find a list of papers that are relevant to this ORCA run
We neither can nor want to force you to cite these papers, but we appreciate if you do
You receive ORCA, which is the product of decades of hard work by many enthusiastic individuals, for free
The only thing we kindly ask in return is that you cite our papers,
We deeply appreciate it, if you show your appreciation for ORCA by not just citing the generic ORCA reference.

Please note that relegating all ORCA citations to the supporting information does *not* help us.
SI sections are not indexed - citations you put there will not count into any citation statistics
But we need these citations in order to attract the funding resources that allow us to do what we are doing

Therefore, if you are a happy ORCA user, please consider citing a few of the papers listed below in the main body of your paper

In addition to the list printed below, the program has created the file sp_solv.bibtex that contains the list in bibtex format
You can import this file easily into all common literature databanks and citation aid programs


List of essential papers. We consider these as the minimum necessary citations

  1. Neese,F.
     Software update: the ORCA program system, version 5.0
     WIRES Comput. Molec. Sci., 2022 12(1)e1606
     doi.org/10.1002/wcms.1606
  2. Grimme,S.; Hansen,A.; Ehlert,S.; Mewes,J.
     r2SCAN-3c: A 'Swiss army knife' composite electronic-structure method
     J. Chem. Phys., 2021 154 064103
     doi.org/10.1063/5.0040021

List of papers to cite with high priority. The work reported in these papers was absolutely
necessary for this run to complete.
Our perspective: the developers of density functionals and basis sets usually get cited in chemistry papers
Good! But without the algorithms to do something with them, the functionals or basis sets would not do anything.
Hence, in our opinion, the algorithm design and method developments papers are equally worthy of getting cited

  1. Neese,F.
     An improvement of the resolution of the identity approximation for the formation of the Coulomb matrix
     J. Comp. Chem., 2003 24(14)1740-1747
     doi.org/10.1002/jcc.10318
  2. Garcia-Rates,M.; Neese,F.
     Effect of the Solute Cavity on the Solvation Energy and its Derivatives within the Framework of the Gaussian Charge Scheme
     J. Comput. Chem., 2020 41 922-939
     doi.org/10.1002/jcc.26139
  3. Neese,F.
     The SHARK Integral Generation and Digestion System
     J. Comp. Chem., 2022  1-16
     doi.org/10.1002/jcc.26942
  4. Lehtola,S.; Steigemann,C.; Oliveira,M.; Marques,M.
     Recent developments in Libxc - A comprehensive library of functionals for density functional theory
     Software X, 2018 7 
     doi.org/10.1016/j.softx.2017.11.002
  5. Caldeweyher,E.; Bannwarth,C.; Grimme,S.
     Extension of the D3 dispersion coefficient model
     J. Chem. Phys., 2017 147 034112-XXXX
     doi.org/10.1063/1.4993215
  6. Caldeweyher,E.; Ehlert,S.; Hansen,A.; Neugebauer,H.; Spicher,S.; Bannwarth,C.; Grimme,S.
     A generally applicable atomic-charge dependent London dispersion correction
     J. Chem. Phys., 2019 150 154122-XXXX
     doi.org/10.1063/1.5090222
  7. Caldeweyher,E.; Mewes,J.; Ehlert,S.; Grimme,S.
     Extension and evaluation of the D4 London-dispersion model for periodic systems
     Phys. Chem. Chem. Phys., 2020 22(16)8499-8512
     doi.org/10.1039/D0CP00502A

List of suggested additional citations. These are papers that are important in the 'surrounding' of 
of this run, or papers that preceded the highly important papers. If you like your results we are grateful for a citation.

  1. Neese,F.
     The ORCA program system
     WIRES Comput. Molec. Sci., 2012 2(1)73-78
     doi.org/10.1002/wcms.81
  2. Neese,F.
     Software update: the ORCA program system, version 4.0
     WIRES Comput. Molec. Sci., 2018 8(1)1-6
     doi.org/10.1002/wcms.1327
  3. Neese,F.; Wennmohs,F.; Becker,U.; Riplinger,C.
     The ORCA quantum chemistry program package
     J. Chem. Phys., 2020 152 Art. No. L224108
     doi.org/10.1063/5.0004608

List of optional additional citations

  1. Neese,F.
     Approximate second-order SCF convergence for spin unrestricted wavefunctions
     Chem. Phys. Lett., 2000 325(1-3)93-98
     doi.org/10.1016/s0009-2614(00)00662-x

Timings for individual modules:

Sum of individual times          ...       46.141 sec (=   0.769 min)
Startup calculation              ...        1.468 sec (=   0.024 min)   3.2 %
SCF iterations                   ...       44.565 sec (=   0.743 min)  96.6 %
Property calculations            ...        0.107 sec (=   0.002 min)   0.2 %
                             ****ORCA TERMINATED NORMALLY****
TOTAL RUN TIME: 0 days 0 hours 0 minutes 46 seconds 765 msec
