15
 energy: -30.430734097284 gnorm: 0.037149031851 xtb: 6.7.1 (edcfbbe)
C            1.90082856630613       -1.46679776639420        0.00002388666565
C            2.58628605391229       -0.24297343322205        0.00007661845709
C            1.90252697152246        0.95706139373227        0.00005873287038
C            0.50309991048272        0.97920938549791       -0.00002104244199
C           -0.18083391294980       -0.26146426250410       -0.00007099461863
C            0.52356021334396       -1.47406189045261       -0.00005906762044
N           -1.61550040842716       -0.31258728969326        0.00001979797534
O           -2.18521652005062       -1.40086249859942        0.00003448292166
O           -2.25248776431528        0.76453856601014        0.00002344545829
O           -0.09915727017852        2.18050478100759       -0.00000045051380
H            2.44840505621729       -2.40191889999883        0.00006403458958
H            3.67130555759657       -0.23350178558356        0.00014508096103
H            2.42723851537465        1.90630176269675        0.00011862835684
H           -0.03196448946621       -2.40337699634335       -0.00007607805630
H           -1.07009300685186        2.01644507563295       -0.00003081917310
15
 energy: -30.432168352079 gnorm: 0.018192703843 xtb: 6.7.1 (edcfbbe)
C            1.89513576570798       -1.46250043005936        0.00002876214782
C            2.58155821666699       -0.24613299479303        0.00007652924217
C            1.89987570861425        0.95018902657609        0.00006088071989
C            0.50065807462762        0.98054480169231        0.00001032094088
C           -0.18479738959424       -0.25580523454770       -0.00003653683535
C            0.52196784674840       -1.46575041161115       -0.00002315482257
N           -1.60059956458651       -0.31679393709755       -0.00003967619443
O           -2.15630973804460       -1.40511195611232        0.00003424929022
O           -2.24353434993703        0.74563972646724        0.00001326166217
O           -0.09626611783315        2.17575854077003       -0.00000261765272
H            2.43894833181102       -2.39366724786739        0.00003856004358
H            3.66135838480663       -0.24047859988879        0.00013298430067
H            2.42116767044246        1.89476912640005        0.00009790240836
H           -0.03798155094116       -2.38857346564860       -0.00006567904914
H           -1.07318381597201        2.03442919750641       -0.00001953036994
15
 energy: -30.432520430380 gnorm: 0.007018327759 xtb: 6.7.1 (edcfbbe)
C            1.89347539446759       -1.46245418019919        0.00002198688285
C            2.58018749306784       -0.24783483268507        0.00006605647526
C            1.89797038687461        0.94603569577875        0.00006068243995
C            0.49770810170790        0.98128360029546        0.00002380487321
C           -0.19038495770290       -0.25418612354681        0.00001985230405
C            0.52256014252413       -1.46323742134976       -0.00000706494248
N           -1.59213610902419       -0.32048830916323        0.00008878146005
O           -2.14218618960815       -1.40971049457739       -0.00006109693297
O           -2.23866297896570        0.73332288928936       -0.00009628379589
O           -0.09288504762316        2.17209672531778        0.00001933935470
H            2.43552080294975       -2.39213193051440        0.00002308455244
H            3.65755331625474       -0.24297889885302        0.00009312101981
H            2.41553242923096        1.89014792320805        0.00008466919501
H           -0.04143386545216       -2.38206995230286       -0.00002449004423
H           -1.07482144618462        2.05872145108854       -0.00000618701015
15
 energy: -30.432572302154 gnorm: 0.003907434206 xtb: 6.7.1 (edcfbbe)
C            1.89408321476924       -1.46351157690036        0.00004268843723
C            2.58068040006490       -0.24771884197574        0.00007628718794
C            1.89767427662883        0.94542388814488        0.00006483732632
C            0.49682400498112        0.98102524277289        0.00001977332156
C           -0.19214577238794       -0.25517501296763       -0.00005097643593
C            0.52375789590749       -1.46416265776957       -0.00000139331920
N           -1.59193224173492       -0.32186991427902       -0.00023387059130
O           -2.14285248591445       -1.41223510352018        0.00009820289401
O           -2.24002927646194        0.73131952964757        0.00008344685718
O           -0.09115234640352        2.17122786498181        0.00000678418084
H            2.43616924602773       -2.39347722673641        0.00003578709354
H            3.65826699109784       -0.24229644551573        0.00012435576451
H            2.41388743332016        1.89075351083231        0.00009315827063
H           -0.04155657345470       -2.38249856832519       -0.00004722891227
H           -1.07367729392320        2.06971145339660       -0.00000559624344
15
 energy: -30.432596110985 gnorm: 0.001614063885 xtb: 6.7.1 (edcfbbe)
C            1.89487396572007       -1.46460490928688       -0.00001258187364
C            2.58118189234856       -0.24726879384543        0.00001601806688
C            1.89730787564055        0.94507283491324        0.00005032436363
C            0.49594600349555        0.98018868745535        0.00006832344883
C           -0.19317540263692       -0.25689303260335        0.00022579010007
C            0.52502241055094       -1.46576837511618        0.00002345147677
N           -1.59262143521505       -0.32326252677251        0.00082562609734
O           -2.14539796852790       -1.41474742132638       -0.00050261350949
O           -2.24220686795997        0.73021983598664       -0.00056572149686
O           -0.08934380357614        2.17062570747217        0.00009041542299
H            2.43751520120478       -2.39480776228792       -0.00000582224558
H            3.65929153484454       -0.24109669406759       -0.00004140951477
H            2.41215629889393        1.89188924462152        0.00004270400894
H           -0.04128998699487       -2.38405266054035        0.00007873186918
H           -1.07126224527141        2.08102200718390        0.00001301961734
15
 energy: -30.432593755450 gnorm: 0.001932327918 xtb: 6.7.1 (edcfbbe)
C            1.89495065427734       -1.46471755039028        0.00018268692413
C            2.58109144462983       -0.24709513772932        0.00021509249675
C            1.89701549611256        0.94500048764882        0.00009611088286
C            0.49557242302676        0.97959394432249       -0.00010839936100
C           -0.19298134039743       -0.25756369192681       -0.00073852552300
C            0.52510157967335       -1.46635777472659       -0.00006392712479
N           -1.59297121667101       -0.32381819579750       -0.00281334140045
O           -2.14611162254995       -1.41546432683022        0.00153808311052
O           -2.24286998890764        0.72971377894114        0.00166281254748
O           -0.08871445520903        2.17074678878879       -0.00017439947238
H            2.43808617256590       -2.39472647166689        0.00016341717559
H            3.65931583808095       -0.24083479282005        0.00050065704970
H            2.41143407218108        1.89214017673872        0.00022127960640
H           -0.04115647708589       -2.38478584678565       -0.00033513723097
H           -1.06976510721018        2.08468475401959       -0.00004015384922
15
 energy: -30.432599146464 gnorm: 0.000618857291 xtb: 6.7.1 (edcfbbe)
C            1.89483113643292       -1.46457696677054        0.00002852587828
C            2.58094888873298       -0.24712986971689        0.00005249148306
C            1.89691936482186        0.94499794772445        0.00005867985634
C            0.49551315743453        0.97945891137583        0.00004298576708
C           -0.19275820850435       -0.25753698498211        0.00003933980495
C            0.52489072163133       -1.46631570688071        0.00001537240534
N           -1.59301519865548       -0.32391458539061        0.00007976111338
O           -2.14581817164718       -1.41547406239467       -0.00009975658599
O           -2.24282419037914        0.72945467608764       -0.00011685265232
O           -0.08864665540491        2.17094794075248        0.00003976948448
H            2.43809620813964       -2.39443997231760        0.00002655957758
H            3.65910981605618       -0.24098877996232        0.00006294232803
H            2.41134383251322        1.89202067695710        0.00007143228928
H           -0.04114740968699       -2.38480259895487       -0.00000013369236
H           -1.06944581896797        2.08481551625906        0.00000513877447
15
 energy: -30.432599373099 gnorm: 0.000180671172 xtb: 6.7.1 (edcfbbe)
C            1.89476213663253       -1.46450229534603        0.00003366339340
C            2.58092318363955       -0.24725377953374        0.00006255477695
C            1.89693474419158        0.94498325430899        0.00005889666374
C            0.49554471965694        0.97954671830971        0.00002377632084
C           -0.19279042584454       -0.25728193850835        0.00000007126410
C            0.52475306759502       -1.46608337845674        0.00000148600679
N           -1.59307310929418       -0.32394821444495       -0.00001370230205
O           -2.14529101067834       -1.41553451852541       -0.00004133768192
O           -2.24278109781608        0.72915246083448       -0.00004475950452
O           -0.08860712188886        2.17110970146866        0.00003187801240
H            2.43792505317176       -2.39437078469770        0.00003836659598
H            3.65900843433624       -0.24121316648126        0.00008187927028
H            2.41143694688474        1.89187960767050        0.00008151850761
H           -0.04113637179570       -2.38456464119327       -0.00001213409360
H           -1.06961167627402        2.08459711638134        0.00000409860159
15
 energy: -30.432599427947 gnorm: 0.000057219547 xtb: 6.7.1 (edcfbbe)
C            1.89478392755528       -1.46452443589126        0.00003428679438
C            2.58093641433695       -0.24725315321834        0.00005918793447
C            1.89690675281124        0.94496229778357        0.00005815718963
C            0.49551070206042        0.97948081067263        0.00003107811555
C           -0.19280569150675       -0.25732553658514        0.00000501654143
C            0.52476936633694       -1.46610977385241        0.00000757120411
N           -1.59321863907382       -0.32404273035868       -0.00002170698696
O           -2.14531443460899       -1.41572049149180       -0.00003840263417
O           -2.24292468113396        0.72903068897086       -0.00004457004275
O           -0.08848458356207        2.17115730357256        0.00002965855510
H            2.43793945757541       -2.39441595365036        0.00003585736544
H            3.65904007954904       -0.24117374486190        0.00008406287073
H            2.41136223038981        1.89190426514343        0.00007901520663
H           -0.04107990481823       -2.38463014958472       -0.00001652592205
H           -1.06942352339464        2.08517674513779        0.00000356964007
