      -----------------------------------------------------------      
     |                   =====================                   |     
     |                           x T B                           |     
     |                   =====================                   |     
     |                         S. Grimme                         |     
     |          Mulliken Center for Theoretical Chemistry        |     
     |                    University of Bonn                     |     
      -----------------------------------------------------------      

   * xtb version 6.7.1 (edcfbbe) compiled by 'albert@albert-system' on 2024-07-22

   xtb is free software: you can redistribute it and/or modify it under
   the terms of the GNU Lesser General Public License as published by
   the Free Software Foundation, either version 3 of the License, or
   (at your option) any later version.
   
   xtb is distributed in the hope that it will be useful,
   but WITHOUT ANY WARRANTY; without even the implied warranty of
   MERCHANTABILITY or FITNESS FOR A PARTICULAR PURPOSE.  See the
   GNU Lesser General Public License for more details.
   
   Cite this work as:
   * C. Bannwarth, E. Caldeweyher, S. Ehlert, A. Hansen, P. Pracht,
     J. Seibert, S. Spicher, S. Grimme, WIREs Comput. Mol. Sci., 2020, 11,
     e01493. DOI: 10.1002/wcms.1493
   
   for GFN2-xTB:
   * C. Bannwarth, S. Ehlert and S. Grimme., J. Chem. Theory Comput., 2019,
     15, 1652-1671. DOI: 10.1021/acs.jctc.8b01176
   for GFN1-xTB:
   * S. Grimme, C. Bannwarth, P. Shushkov, J. Chem. Theory Comput., 2017,
     13, 1989-2009. DOI: 10.1021/acs.jctc.7b00118
   for GFN0-xTB:
   * P. Pracht, E. Caldeweyher, S. Ehlert, S. Grimme, ChemRxiv, 2019, preprint.
     DOI: 10.26434/chemrxiv.8326202.v1
   for GFN-FF:
   * S. Spicher and S. Grimme, Angew. Chem. Int. Ed., 2020, 59, 15665-15673.
     DOI: 10.1002/anie.202004239
   
   for ALPB and GBSA implicit solvation:
   * S. Ehlert, M. Stahn, S. Spicher, S. Grimme, J. Chem. Theory Comput.,
     2021, 17, 4250-4261. DOI: 10.1021/acs.jctc.1c00471
   
   for ddCOSMO and CPCM-X implicit solvation:
   * M. Stahn, S. Ehlert, S. Grimme, J. Phys. Chem. A,
     2023, XX, XXXX-XXXX. DOI: 10.1021/acs.jpca.3c04382
   
   for DFT-D4:
   * E. Caldeweyher, C. Bannwarth and S. Grimme, J. Chem. Phys., 2017,
     147, 034112. DOI: 10.1063/1.4993215
   * E. Caldeweyher, S. Ehlert, A. Hansen, H. Neugebauer, S. Spicher,
     C. Bannwarth and S. Grimme, J. Chem. Phys., 2019, 150, 154122.
     DOI: 10.1063/1.5090222
   * E. Caldeweyher, J.-M. Mewes, S. Ehlert and S. Grimme, Phys. Chem. Chem. Phys.
     2020, 22, 8499-8512. DOI: 10.1039/D0CP00502A
   
   for sTDA-xTB:
   * S. Grimme and C. Bannwarth, J. Chem. Phys., 2016, 145, 054103.
     DOI: 10.1063/1.4959605
   
   in the mass-spec context:
   * V. Asgeirsson, C. Bauer and S. Grimme, Chem. Sci., 2017, 8, 4879.
     DOI: 10.1039/c7sc00601b
   * J. Koopman and S. Grimme, ACS Omega 2019, 4, 12, 15120-15133.
     DOI: 10.1021/acsomega.9b02011
   
   for metadynamics refer to:
   * S. Grimme, J. Chem. Theory Comput., 2019, 155, 2847-2862
     DOI: 10.1021/acs.jctc.9b00143
   
   for SPH calculations refer to:
   * S. Spicher and S. Grimme, J. Chem. Theory Comput., 2021, 17, 1701-1714
     DOI: 10.1021/acs.jctc.0c01306
   
   for ONIOM refer to:
   * C. Plett, A. Katbashev, S. Ehlert, S. Grimme, M. Bursch,
     Phys. Chem. Chem. Phys., 2023, 25, 17860-17868. DOI: 10.1039/D3CP02178E
   
   for DIPRO refer to:
   * J. Kohn, N. Gildemeister, S. Grimme, D. Fazzi, A. Hansen,
     J. Chem. Phys., 2023, just accepted.
   
   for PTB refer to:
   * S. Grimme, M. Mueller, A. Hansen, J. Chem. Phys., 2023, 158, 124111.
     DOI: 10.1063/5.0137838
   
   with help from (in alphabetical order)
   P. Atkinson, C. Bannwarth, F. Bohle, G. Brandenburg, E. Caldeweyher
   M. Checinski, S. Dohm, S. Ehlert, S. Ehrlich, I. Gerasimov, C. Hölzer
   A. Katbashev, J. Kohn, J. Koopman, C. Lavigne, S. Lehtola, F. März, M. Müller,
   F. Musil, H. Neugebauer, J. Pisarek, C. Plett, P. Pracht, F. Pultar,
   J. Seibert, P. Shushkov, S. Spicher, M. Stahn, M. Steiner, T. Strunk,
   J. Stückrath, T. Rose, and J. Unsleber
   
 * started run on 2025/04/06 at 05:07:27.148     
   ID    Z sym.   atoms
    1    6 C      1, 2, 4-6, 8, 10-13
    2    1 H      3, 7, 14-29
    3    8 O      9

           -------------------------------------------------
          |                Calculation Setup                |
           -------------------------------------------------

          program call               : /srv/scratch/z5358697/.xtb/bin/xtb solv.coord --gfn2 --sp --chrg 0 --norestart --parallel 1 --alpb water reference -I xtb_sp-xcontrol-inp
          hostname                   : k139
          coordinate file            : solv.coord
          omp threads                :                     1


           -------------------------------------------------
          |                 G F N 2 - x T B                 |
           -------------------------------------------------

        Reference                      10.1021/acs.jctc.8b01176
      * Hamiltonian:
        H0-scaling (s, p, d)           1.850000    2.230000    2.230000
        zeta-weighting                 0.500000
      * Dispersion:
        s8                             2.700000
        a1                             0.520000
        a2                             5.000000
        s9                             5.000000
      * Repulsion:
        kExp                           1.500000    1.000000
        rExp                           1.000000
      * Coulomb:
        alpha                          2.000000
        third order                    shell-resolved
        anisotropic                    true
        a3                             3.000000
        a5                             4.000000
        cn-shift                       1.200000
        cn-exp                         4.000000
        max-rad                        5.000000

      * Solvation model:               ALPB
        Solvent                        water
        Parameter file                 internal GFN2-xTB/ALPB
        Dielectric constant                8.0200E+01
        Reference state                gsolv=reference [X=1]
        Free energy shift                  2.8945E-03 Eh       1.8164E+00 kcal/mol
        Temperature                        2.9815E+02 K
        Density                            1.0000E+00 kg/L
        Solvent mass                       1.8000E+01 g/mol
        Interaction kernel             P16
        Born radius scaling (c1)           1.4744E+00
        Born radii integrator          GBOBC
        Born offset                        0.0000E+00 a0       0.0000E+00 AA
        H-bond correction              true
        Ion screening                  false
        Surface tension                    1.0000E-05 Eh       1.5569E+01 dyn/cm
        Grid points                               974 per atom

          ...................................................
          :                      SETUP                      :
          :.................................................:
          :  # basis functions                  62          :
          :  # atomic orbitals                  62          :
          :  # shells                           40          :
          :  # electrons                        64          :
          :  max. iterations                   250          :
          :  Hamiltonian                  GFN2-xTB          :
          :  restarted?                      false          :
          :  GBSA solvation                   true          :
          :  PC potential                    false          :
          :  electronic temp.          300.0000000     K    :
          :  accuracy                    1.0000000          :
          :  -> integral cutoff          0.2500000E+02      :
          :  -> integral neglect         0.1000000E-07      :
          :  -> SCF convergence          0.1000000E-05 Eh   :
          :  -> wf. convergence          0.1000000E-03 e    :
          :  Broyden damping             0.4000000          :
          :  net charge                          0          :
          :  unpaired electrons                  0          :
          ...................................................

 iter      E             dE          RMSdq      gap      omega  full diag
   1    -35.0717115 -0.350717E+02  0.329E+00    4.24       0.0  T
   2    -35.1475316 -0.758201E-01  0.164E+00    3.46       1.0  T
   3    -35.1511027 -0.357110E-02  0.952E-01    3.84       1.0  T
   4    -35.1534744 -0.237165E-02  0.178E-01    3.58       1.0  T
   5    -35.1538932 -0.418802E-03  0.675E-02    3.65       1.0  T
   6    -35.1539024 -0.921229E-05  0.295E-02    3.64       1.0  T
   7    -35.1539046 -0.226851E-05  0.604E-03    3.64       3.1  T
   8    -35.1539048 -0.209371E-06  0.226E-03    3.64       8.2  T
   9    -35.1539049 -0.108033E-07  0.876E-04    3.64      21.2  T
  10    -35.1539049 -0.338513E-08  0.198E-04    3.64      93.7  T

   *** convergence criteria satisfied after 10 iterations ***

         #    Occupation            Energy/Eh            Energy/eV
      -------------------------------------------------------------
         1        2.0000           -0.7130021             -19.4018
       ...           ...                  ...                  ...
        26        2.0000           -0.4409002             -11.9975
        27        2.0000           -0.4379786             -11.9180
        28        2.0000           -0.4333796             -11.7929
        29        2.0000           -0.4263720             -11.6022
        30        2.0000           -0.4187050             -11.3935
        31        2.0000           -0.4167190             -11.3395
        32        2.0000           -0.3883918             -10.5687 (HOMO)
        33                         -0.2544655              -6.9244 (LUMO)
        34                          0.0536671               1.4604
        35                          0.0602361               1.6391
        36                          0.0745780               2.0294
        37                          0.0820856               2.2337
       ...                                ...                  ...
        62                          0.5874697              15.9859
      -------------------------------------------------------------
                  HL-Gap            0.1339263 Eh            3.6443 eV
             Fermi-level           -0.3214286 Eh           -8.7465 eV

 SCC (total)                   0 d,  0 h,  0 min,  0.032 sec
 SCC setup                      ...        0 min,  0.002 sec (  5.038%)
 Dispersion                     ...        0 min,  0.000 sec (  0.525%)
 classical contributions        ...        0 min,  0.000 sec (  0.092%)
 integral evaluation            ...        0 min,  0.002 sec (  7.888%)
 iterations                     ...        0 min,  0.020 sec ( 62.726%)
 molecular gradient             ...        0 min,  0.007 sec ( 23.274%)
 printout                       ...        0 min,  0.000 sec (  0.420%)

         :::::::::::::::::::::::::::::::::::::::::::::::::::::
         ::                     SUMMARY                     ::
         :::::::::::::::::::::::::::::::::::::::::::::::::::::
         :: total energy             -34.678836479012 Eh    ::
         :: total w/o Gsasa/hb       -34.680900087239 Eh    ::
         :: gradient norm              0.000099438676 Eh/a0 ::
         :: HOMO-LUMO gap              3.644320428502 eV    ::
         ::.................................................::
         :: SCC energy               -35.153642663305 Eh    ::
         :: -> isotropic ES            0.041865521242 Eh    ::
         :: -> anisotropic ES          0.005532313248 Eh    ::
         :: -> anisotropic XC          0.016756350592 Eh    ::
         :: -> dispersion             -0.023834959047 Eh    ::
         :: -> Gsolv                  -0.005622459873 Eh    ::
         ::    -> Gelec               -0.007686068100 Eh    ::
         ::    -> Gsasa                0.000783402016 Eh    ::
         ::    -> Ghb                 -0.001614342950 Eh    ::
         ::    -> Gshift               0.002894549160 Eh    ::
         :: repulsion energy           0.474806184293 Eh    ::
         :: add. restraining           0.000000000000 Eh    ::
         :: total charge              -0.000000000000 e     ::
         :::::::::::::::::::::::::::::::::::::::::::::::::::::

           -------------------------------------------------
          |                Property Printout                |
           -------------------------------------------------

    * Orbital Energies and Occupations

         #    Occupation            Energy/Eh            Energy/eV
      -------------------------------------------------------------
         1        2.0000           -0.7130021             -19.4018
       ...           ...                  ...                  ...
        20        2.0000           -0.4746903             -12.9170
        21        2.0000           -0.4721534             -12.8479
        22        2.0000           -0.4657533             -12.6738
        23        2.0000           -0.4614144             -12.5557
        24        2.0000           -0.4581924             -12.4681
        25        2.0000           -0.4529964             -12.3267
        26        2.0000           -0.4409002             -11.9975
        27        2.0000           -0.4379786             -11.9180
        28        2.0000           -0.4333796             -11.7929
        29        2.0000           -0.4263720             -11.6022
        30        2.0000           -0.4187050             -11.3935
        31        2.0000           -0.4167190             -11.3395
        32        2.0000           -0.3883918             -10.5687 (HOMO)
        33                         -0.2544655              -6.9244 (LUMO)
        34                          0.0536671               1.4604
        35                          0.0602361               1.6391
        36                          0.0745780               2.0294
        37                          0.0820856               2.2337
        38                          0.0889649               2.4209
        39                          0.0995499               2.7089
        40                          0.1094547               2.9784
        41                          0.1140373               3.1031
        42                          0.1283041               3.4913
        43                          0.1451851               3.9507
       ...                                ...                  ...
        62                          0.5874697              15.9859
      -------------------------------------------------------------
                  HL-Gap            0.1339263 Eh            3.6443 eV
             Fermi-level           -0.3214286 Eh           -8.7465 eV

     #   Z          covCN         q      C6AA      α(0)
     1   6 C        3.755    -0.119    22.830     6.813
     2   6 C        3.852    -0.012    20.759     6.480
     3   1 H        0.924     0.034     2.527     2.486
     4   6 C        3.804    -0.071    21.863     6.657
     5   6 C        3.807    -0.067    21.771     6.642
     6   6 C        3.855    -0.047    21.371     6.575
     7   1 H        0.924     0.056     2.246     2.344
     8   6 C        2.819     0.247    22.864     7.835
     9   8 O        0.857    -0.446    22.615     6.376
    10   6 C        3.809    -0.093    22.271     6.718
    11   6 C        3.849    -0.007    20.669     6.466
    12   6 C        3.755    -0.108    22.611     6.780
    13   6 C        3.756    -0.117    22.789     6.806
    14   1 H        0.925     0.044     2.392     2.419
    15   1 H        0.925     0.041     2.433     2.439
    16   1 H        0.925     0.047     2.357     2.401
    17   1 H        0.924     0.049     2.331     2.387
    18   1 H        0.924     0.042     2.417     2.431
    19   1 H        0.924     0.038     2.477     2.461
    20   1 H        0.925     0.051     2.306     2.375
    21   1 H        0.924     0.086     1.923     2.169
    22   1 H        0.924     0.063     2.160     2.298
    23   1 H        0.924     0.045     2.387     2.416
    24   1 H        0.925     0.025     2.656     2.549
    25   1 H        0.925     0.044     2.390     2.418
    26   1 H        0.925     0.039     2.467     2.456
    27   1 H        0.925     0.047     2.363     2.404
    28   1 H        0.925     0.041     2.439     2.442
    29   1 H        0.925     0.046     2.367     2.406

 Mol. C6AA /au·bohr⁶  :       6267.235984
 Mol. C8AA /au·bohr⁸  :     136220.683118
 Mol. α(0) /au        :        117.449021


Wiberg/Mayer (AO) data.
largest (>0.10) Wiberg bond orders for each atom

 ---------------------------------------------------------------------------
     #   Z sym  total        # sym  WBO       # sym  WBO       # sym  WBO
 ---------------------------------------------------------------------------
     1   6 C    3.995 --     2 C    1.009    15 H    0.986    14 H    0.986
                            16 H    0.985
     2   6 C    3.994 --     1 C    1.009     4 C    0.993    10 C    0.990
                             3 H    0.968
     3   1 H    0.999 --     2 C    0.968
     4   6 C    3.996 --     5 C    1.005     2 C    0.993    18 H    0.979
                            17 H    0.976
     5   6 C    3.995 --     4 C    1.005     6 C    0.992    19 H    0.978
                            20 H    0.971
     6   6 C    3.993 --     5 C    0.992     8 C    0.986     7 H    0.952
                            11 C    0.949
     7   1 H    0.997 --     6 C    0.952
     8   6 C    3.893 --     9 O    1.800    10 C    1.007     6 C    0.986
     9   8 O    2.008 --     8 C    1.800
    10   6 C    3.994 --     8 C    1.007     2 C    0.990    22 H    0.962
                            21 H    0.929
    11   6 C    3.993 --    12 C    1.010    13 C    1.008    23 H    0.964
                             6 C    0.949
    12   6 C    3.996 --    11 C    1.010    24 H    0.986    26 H    0.986
                            25 H    0.984
    13   6 C    3.994 --    11 C    1.008    28 H    0.986    29 H    0.983
                            27 H    0.982
    14   1 H    0.998 --     1 C    0.986
    15   1 H    0.998 --     1 C    0.986
    16   1 H    0.997 --     1 C    0.985
    17   1 H    0.998 --     4 C    0.976
    18   1 H    0.998 --     4 C    0.979
    19   1 H    0.998 --     5 C    0.978
    20   1 H    0.997 --     5 C    0.971
    21   1 H    0.993 --    10 C    0.929
    22   1 H    0.996 --    10 C    0.962
    23   1 H    0.998 --    11 C    0.964
    24   1 H    0.999 --    12 C    0.986
    25   1 H    0.998 --    12 C    0.984
    26   1 H    0.998 --    12 C    0.986
    27   1 H    0.998 --    13 C    0.982
    28   1 H    0.998 --    13 C    0.986
    29   1 H    0.998 --    13 C    0.983
 ---------------------------------------------------------------------------

Topologies differ in total number of bonds
Writing topology from bond orders to xtbtopo.mol

molecular dipole:
                 x           y           z       tot (Debye)
 q only:       -0.639      -1.592      -0.261
   full:       -0.667      -1.558      -0.233       4.349
molecular quadrupole (traceless):
                xx          xy          yy          xz          yz          zz
 q only:        6.084      -3.881      -7.594      -1.104      -3.107       1.510
  q+dip:        5.805      -4.743      -9.103      -1.656      -3.048       3.298
   full:        5.682      -4.607      -9.227      -1.726      -3.282       3.545


           -------------------------------------------------
          | TOTAL ENERGY              -34.678836479012 Eh   |
          | GRADIENT NORM               0.000099438676 Eh/α |
          | HOMO-LUMO GAP               3.644320428502 eV   |
           -------------------------------------------------

------------------------------------------------------------------------
 * finished run on 2025/04/06 at 05:07:27.222     
------------------------------------------------------------------------
 total:
 * wall-time:     0 d,  0 h,  0 min,  0.073 sec
 *  cpu-time:     0 d,  0 h,  0 min,  0.031 sec
 * ratio c/w:     0.423 speedup
 SCF:
 * wall-time:     0 d,  0 h,  0 min,  0.032 sec
 *  cpu-time:     0 d,  0 h,  0 min,  0.021 sec
 * ratio c/w:     0.669 speedup

