
                                 *****************
                                 * O   R   C   A *
                                 *****************

                                            #,                                       
                                            ###                                      
                                            ####                                     
                                            #####                                    
                                            ######                                   
                                           ########,                                 
                                     ,,################,,,,,                         
                               ,,#################################,,                 
                          ,,##########################################,,             
                       ,#########################################, ''#####,          
                    ,#############################################,,   '####,        
                  ,##################################################,,,,####,       
                ,###########''''           ''''###############################       
              ,#####''   ,,,,##########,,,,          '''####'''          '####       
            ,##' ,,,,###########################,,,                        '##       
           ' ,,###''''                  '''############,,,                           
         ,,##''                                '''############,,,,        ,,,,,,###''
      ,#''                                            '''#######################'''  
     '                                                          ''''####''''         
             ,#######,   #######,   ,#######,      ##                                
            ,#'     '#,  ##    ##  ,#'     '#,    #''#        ,####,   ,####,        
            ##       ##  ##   ,#'  ##            #'  '#       #'       #'  '#        
            ##       ##  #######   ##           ,######,      #####,   #    #        
            '#,     ,#'  ##    ##  '#,     ,#' ,#      #,     #,   #   #,  ,#        
             '#######'   ##     ##  '#######'  #'      '#     '####' # '####'        



                #########################################################
                #                        -***-                          #
                #          Department of theory and spectroscopy        #
                #                                                       #
                #                      Frank Neese                      #
                #                                                       #
                #     Directorship, Architecture, Infrastructure        #
                #                    SHARK, DRIVERS                     #
                #        Core code/Algorithms in most modules           #
                #                                                       #
                #        Max Planck Institute fuer Kohlenforschung      #
                #                Kaiser Wilhelm Platz 1                 #
                #                 D-45470 Muelheim/Ruhr                 #
                #                      Germany                          #
                #                                                       #
                #                  All rights reserved                  #
                #                        -***-                          #
                #########################################################


                         Program Version 6.0.0  -   RELEASE  -


 With contributions from (in alphabetic order):
   Daniel Aravena         : Magnetic Suceptibility
   Michael Atanasov       : Ab Initio Ligand Field Theory (pilot matlab implementation)
   Alexander A. Auer      : GIAO ZORA, VPT2 properties, NMR spectrum
   Ute Becker             : All parallelization in ORCA, NUMFREQ, NUMCALC
   Giovanni Bistoni       : ED, misc. LED, open-shell LED, HFLD
   Martin Brehm           : Molecular dynamics
   Dmytro Bykov           : pre 5.0 version of the SCF Hessian
   Marcos Casanova-Páez   : Triplet and SCS-CIS(D). UHF-(DLPNO)-IP/EA/STEOM-CCSD. UHF-CVS-IP/STEOM-CCSD
   Vijay G. Chilkuri      : MRCI spin determinant printing, contributions to CSF-ICE
   Pauline Colinet        : FMM embedding
   Dipayan Datta          : RHF DLPNO-CCSD density
   Achintya Kumar Dutta   : EOM-CC, STEOM-CC
   Nicolas Foglia         : Exact transition moments, OPA infrastructure, MCD improvements
   Dmitry Ganyushin       : Spin-Orbit,Spin-Spin,Magnetic field MRCI
   Miquel Garcia          : C-PCM and meta-GGA Hessian, CCSD/C-PCM, Gaussian charge scheme
   Tiago L. C. Gouveia    : GS-ROHF, GS-ROCIS
   Yang Guo               : DLPNO-NEVPT2, F12-NEVPT2, CIM, IAO-localization
   Andreas Hansen         : Spin unrestricted coupled pair/coupled cluster methods
   Ingolf Harden          : AUTO-CI MPn and infrastructure 
   Benjamin Helmich-Paris : MC-RPA, TRAH-(SCF,CASSCF), AVAS, COSX integrals, SCF dyn. polar.
   Lee Huntington         : MR-EOM, pCC
   Robert Izsak           : Overlap fitted RIJCOSX, COSX-SCS-MP3, EOM
   Riya Kayal             : Wick's Theorem for AUTO-CI, AUTO-CI UHF-CCSDT
   Emily Kempfer          : AUTO-CI, RHF CISDT and CCSDT
   Christian Kollmar      : KDIIS, OOCD, Brueckner-CCSD(T), CCSD density, CASPT2, CASPT2-K, improved NEVPT2
   Axel Koslowski         : Symmetry handling
   Simone Kossmann        : Meta GGA functionals, TD-DFT gradient, OOMP2, (MP2 Hessian; deprecated post 5.0)
   Lucas Lang             : DCDCAS
   Marvin Lechner         : AUTO-CI (C++ implementation), FIC-MRCC
   Spencer Leger          : CASSCF response
   Dagmar Lenk            : GEPOL surface, SMD, ORCA-2-JSON
   Dimitrios Liakos       : Extrapolation schemes; Compound Job, initial MDCI parallelization
   Dimitrios Manganas     : Further ROCIS development; embedding schemes. LFT, Crystal Embedding
   Dimitrios Pantazis     : SARC Basis sets
   Anastasios Papadopoulos: AUTO-CI, single reference methods and gradients
   Taras Petrenko         : pre 6.0 DFT Hessian and TD-DFT gradient, (ASA, deprecated), ECA, 1-Electron XAS/XES, NRVS
   Peter Pinski           : DLPNO-MP2, DLPNO-MP2 Gradient
   Christoph Reimann      : Effective Core Potentials
   Marius Retegan         : Local ZFS, SOC
   Christoph Riplinger    : Optimizer, TS searches, QM/MM, DLPNO-CCSD(T), (RO)-DLPNO pert. Triples
   Michael Roemelt        : Original ROCIS implementation
   Masaaki Saitow         : Open-shell DLPNO-CCSD energy and density
   Barbara Sandhoefer     : DKH picture change effects
   Kantharuban Sivalingam : CASSCF convergence/infrastructure, NEVPT2 and variants, FIC-MRCI
   Bernardo de Souza      : ESD, SOC TD-DFT
   Georgi Stoychev        : AutoAux, RI-MP2 NMR, DLPNO-MP2 response, X2C
   Van Anh Tran           : RI-MP2 g-tensors
   Willem Van den Heuvel  : Paramagnetic NMR
   Zikuan Wang            : NOTCH, Electric field optimization 
   Frank Wennmohs         : Technical directorship and infrastructure
   Hang Xu                : AUTO-CI-Response properties 


 We gratefully acknowledge several colleagues who have allowed us to
 interface, adapt or use parts of their codes:
   Stefan Grimme, W. Hujo, H. Kruse, P. Pracht,  : VdW corrections, initial TS optimization,
                  C. Bannwarth, S. Ehlert,         DFT functionals, gCP, sTDA/sTD-DF
                  L. Wittmann, M. Mueller
   Ed Valeev, F. Pavosevic, A. Kumar             : LibInt (2-el integral package), F12 methods
   Garnet Chan, S. Sharma, J. Yang, R. Olivares  : DMRG
   Ulf Ekstrom                                   : XCFun DFT Library
   Mihaly Kallay                                 : mrcc  (arbitrary order and MRCC methods)
   Frank Weinhold                                : gennbo (NPA and NBO analysis)
   Simon Mueller                                 : openCOSMO-RS
   Christopher J. Cramer and Donald G. Truhlar   : smd solvation model
   Lars Goerigk                                  : TD-DFT with DH, B97 family of functionals
   V. Asgeirsson, H. Jonsson                     : NEB implementation
   FAccTs GmbH                                   : IRC, NEB, NEB-TS, DLPNO-Multilevel, CI-OPT
                                                   MM, QMMM, 2- and 3-layer-ONIOM, Crystal-QMMM,
                                                   LR-CPCM, SF, NACMEs, symmetry and pop. for TD-DFT,
                                                   nearIR, NL-DFT gradient (VV10), updates on ESD,
                                                   ML-optimized integration grids, MBIS, APM,
                                                   GOAT, DOCKER, SOLVATOR, interface openCOSMO-RS
   S Lehtola, MJT Oliveira, MAL Marques          : LibXC Library
   Liviu Ungur et al                             : ANISO software


 Your calculation uses the libint2 library for the computation of 2-el integrals
 For citations please refer to: http://libint.valeyev.net

 Your ORCA version has been built with support for libXC version: 6.2.2
 For citations please refer to: https://libxc.gitlab.io

 This ORCA versions uses:
   CBLAS   interface :  Fast vector & matrix operations
   LAPACKE interface :  Fast linear algebra routines
   SCALAPACK package :  Parallel linear algebra routines
   Shared memory     :  Shared parallel matrices
   BLAS/LAPACK       :  OpenBLAS 0.3.27  USE64BITINT DYNAMIC_ARCH NO_AFFINITY SkylakeX SINGLE_THREADED
        Core in use  :  SkylakeX
   Copyright (c) 2011-2014, The OpenBLAS Project


Your calculation utilizes the geometrical counterpoise correction gCP
Please cite in your paper:
H.Kruse, S. Grimme J.Chem.Phys., 136, (2012), 154101 
   

Your calculation utilizes the atom-pairwise dispersion correction
based on EEQ partial charges (D4)


================================================================================

----- Orbital basis set information -----
Your calculation utilizes the basis: def2-SV(P)
   F. Weigend and R. Ahlrichs, Phys. Chem. Chem. Phys. 7, 3297 (2005).

----- AuxJ basis set information -----
Your calculation utilizes the auxiliary basis: def2/J
   F. Weigend, Phys. Chem. Chem. Phys. 8, 1057 (2006).

================================================================================
                                        WARNINGS
                       Please study these warnings very carefully!
================================================================================


================================================================================
                                       INPUT FILE
================================================================================
NAME = sp.inp
|  1> ! pbe def2-sv(p) def2/J RI DEFGRID1 loosescf d4 GCP(DFT/SV(P)) printgap
|  2> %output
|  3>     printlevel normal
|  4> end
|  5> * xyz 0 1
|  6> C 1.8652443592 -1.06645949 0.0476700821
|  7> C 1.1048002484 0.1772506064 0.4959143749
|  8> C -0.3600872875 0.2106443015 0.013265685
|  9> C -1.0279401844 1.4958978586 0.5198888224
| 10> C -1.1423930036 -1.0074541701 0.507296614
| 11> O -0.4122425997 0.1634946422 -1.4104164684
| 12> H 1.7118193967 -1.2337018947 -1.0162019804
| 13> H 1.5261804482 -1.9461646443 0.5873723891
| 14> H 2.9294856284 -0.9417116494 0.2313062956
| 15> H 1.6113003493 1.063271783 0.1034178213
| 16> H 1.1142086748 0.2456352221 1.5843989651
| 17> H -0.454694403 2.3711758076 0.2205639156
| 18> H -2.0303530321 1.5770936399 0.1060871644
| 19> H -1.0963826119 1.4806728621 1.6035030106
| 20> H -2.1921657786 -0.8943164169 0.249967813
| 21> H -0.7711698518 -1.9053533794 0.0230030391
| 22> H -1.0453388131 -1.1076905189 1.5836982412
| 23> H 0.0021092978 0.9614194545 -1.7648972957
| 24> *
| 25> 
| 26>                          ****END OF INPUT****
================================================================================

                       ****************************
                       * Single Point Calculation *
                       ****************************

---------------------------------
CARTESIAN COORDINATES (ANGSTROEM)
---------------------------------
  C      1.865244   -1.066459    0.047670
  C      1.104800    0.177251    0.495914
  C     -0.360087    0.210644    0.013266
  C     -1.027940    1.495898    0.519889
  C     -1.142393   -1.007454    0.507297
  O     -0.412243    0.163495   -1.410416
  H      1.711819   -1.233702   -1.016202
  H      1.526180   -1.946165    0.587372
  H      2.929486   -0.941712    0.231306
  H      1.611300    1.063272    0.103418
  H      1.114209    0.245635    1.584399
  H     -0.454694    2.371176    0.220564
  H     -2.030353    1.577094    0.106087
  H     -1.096383    1.480673    1.603503
  H     -2.192166   -0.894316    0.249968
  H     -0.771170   -1.905353    0.023003
  H     -1.045339   -1.107691    1.583698
  H      0.002109    0.961419   -1.764897

----------------------------
CARTESIAN COORDINATES (A.U.)
----------------------------
  NO LB      ZA    FRAG     MASS         X           Y           Z
   0 C     6.0000    0    12.011    3.524801   -2.015316    0.090083
   1 C     6.0000    0    12.011    2.087770    0.334955    0.937142
   2 C     6.0000    0    12.011   -0.680466    0.398060    0.025069
   3 C     6.0000    0    12.011   -1.942525    2.826837    0.982447
   4 C     6.0000    0    12.011   -2.158810   -1.903812    0.958652
   5 O     8.0000    0    15.999   -0.779026    0.308960   -2.665301
   6 H     1.0000    0     1.008    3.234870   -2.331359   -1.920343
   7 H     1.0000    0     1.008    2.884063   -3.677718    1.109973
   8 H     1.0000    0     1.008    5.535926   -1.779577    0.437106
   9 H     1.0000    0     1.008    3.044916    2.009292    0.195431
  10 H     1.0000    0     1.008    2.105549    0.464183    2.994080
  11 H     1.0000    0     1.008   -0.859248    4.480873    0.416805
  12 H     1.0000    0     1.008   -3.836811    2.980275    0.200476
  13 H     1.0000    0     1.008   -2.071863    2.798066    3.030182
  14 H     1.0000    0     1.008   -4.142593   -1.690013    0.472371
  15 H     1.0000    0     1.008   -1.457300   -3.600596    0.043469
  16 H     1.0000    0     1.008   -1.975404   -2.093232    2.992756
  17 H     1.0000    0     1.008    0.003986    1.816819   -3.335173

--------------------------------
INTERNAL COORDINATES (ANGSTROEM)
--------------------------------
 C      0   0   0     0.000000000000     0.00000000     0.00000000
 C      1   0   0     1.525127206355     0.00000000     0.00000000
 C      2   1   0     1.542712024187   113.52557564     0.00000000
 C      3   2   1     1.534461208791   109.15449342   179.90132383
 C      3   2   1     1.529651162444   111.55209587    58.45939151
 O      3   2   1     1.425417181345   110.27364218   300.81482536
 H      1   2   3     1.087811107875   110.02851864    48.27983440
 H      1   2   3     1.086335157502   111.02210788   288.14983567
 H      1   2   3     1.087149374148   110.17471963   168.13644398
 H      2   1   3     1.093448408560   108.92447517   239.55658372
 H      2   1   3     1.090671204926   109.88576980   121.83825383
 H      4   3   2     1.088263577324   110.70727347    54.53005507
 H      4   3   2     1.087499923815   109.76055913   174.54650067
 H      4   3   2     1.085880230628   110.19177327   294.37593193
 H      5   3   2     1.086757167979   109.55101354   173.39453170
 H      5   3   2     1.085619585851   109.85681075   292.00780502
 H      5   3   2     1.085406515806   110.37112008    52.97452589
 H      6   3   2     0.966451322090   108.86518843   295.81340775

---------------------------
INTERNAL COORDINATES (A.U.)
---------------------------
 C      0   0   0     0.000000000000     0.00000000     0.00000000
 C      1   0   0     2.882072739404     0.00000000     0.00000000
 C      2   1   0     2.915303229220   113.52557564     0.00000000
 C      3   2   1     2.899711447741   109.15449342   179.90132383
 C      3   2   1     2.890621777453   111.55209587    58.45939151
 O      3   2   1     2.693648099327   110.27364218   300.81482536
 H      1   2   3     2.055665079321   110.02851864    48.27983440
 H      1   2   3     2.052875937330   111.02210788   288.14983567
 H      1   2   3     2.054414583804   110.17471963   168.13644398
 H      2   1   3     2.066318033751   108.92447517   239.55658372
 H      2   1   3     2.061069879464   109.88576980   121.83825383
 H      4   3   2     2.056520122663   110.70727347    54.53005507
 H      4   3   2     2.055077026671   109.76055913   174.54650067
 H      4   3   2     2.052016250126   110.19177327   294.37593193
 H      5   3   2     2.053673421557   109.55101354   173.39453170
 H      5   3   2     2.051523702879   109.85681075   292.00780502
 H      5   3   2     2.051121058846   110.37112008    52.97452589
 H      6   3   2     1.826328320516   108.86518843   295.81340775

---------------------
BASIS SET INFORMATION
---------------------
There are 3 groups of distinct atoms

 Group   1 Type C   : 7s4p1d contracted to 3s2p1d pattern {511/31/1}
 Group   2 Type O   : 7s4p1d contracted to 3s2p1d pattern {511/31/1}
 Group   3 Type H   : 4s contracted to 2s pattern {31}

Atom   0C    basis set group =>   1
Atom   1C    basis set group =>   1
Atom   2C    basis set group =>   1
Atom   3C    basis set group =>   1
Atom   4C    basis set group =>   1
Atom   5O    basis set group =>   2
Atom   6H    basis set group =>   3
Atom   7H    basis set group =>   3
Atom   8H    basis set group =>   3
Atom   9H    basis set group =>   3
Atom  10H    basis set group =>   3
Atom  11H    basis set group =>   3
Atom  12H    basis set group =>   3
Atom  13H    basis set group =>   3
Atom  14H    basis set group =>   3
Atom  15H    basis set group =>   3
Atom  16H    basis set group =>   3
Atom  17H    basis set group =>   3
---------------------------------
AUXILIARY/J BASIS SET INFORMATION
---------------------------------
There are 3 groups of distinct atoms

 Group   1 Type C   : 12s5p4d2f1g contracted to 6s4p3d1f1g pattern {711111/2111/211/2/1}
 Group   2 Type O   : 12s5p4d2f1g contracted to 6s4p3d1f1g pattern {711111/2111/211/2/1}
 Group   3 Type H   : 5s2p1d contracted to 3s1p1d pattern {311/2/1}

Atom   0C    basis set group =>   1
Atom   1C    basis set group =>   1
Atom   2C    basis set group =>   1
Atom   3C    basis set group =>   1
Atom   4C    basis set group =>   1
Atom   5O    basis set group =>   2
Atom   6H    basis set group =>   3
Atom   7H    basis set group =>   3
Atom   8H    basis set group =>   3
Atom   9H    basis set group =>   3
Atom  10H    basis set group =>   3
Atom  11H    basis set group =>   3
Atom  12H    basis set group =>   3
Atom  13H    basis set group =>   3
Atom  14H    basis set group =>   3
Atom  15H    basis set group =>   3
Atom  16H    basis set group =>   3
Atom  17H    basis set group =>   3
------------------------------------------------------------------------------
                             ORCA STARTUP CALCULATIONS
                           -- RI-GTO INTEGRALS CHOSEN --
------------------------------------------------------------------------------
------------------------------------------------------------------------------
                   ___                                                        
                  /   \      - P O W E R E D   B Y -                         
                 /     \                                                     
                 |  |  |   _    _      __       _____    __    __             
                 |  |  |  | |  | |    /  \     |  _  \  |  |  /  |          
                  \  \/   | |  | |   /    \    | | | |  |  | /  /          
                 / \  \   | |__| |  /  /\  \   | |_| |  |  |/  /          
                |  |  |   |  __  | /  /__\  \  |    /   |      \           
                |  |  |   | |  | | |   __   |  |    \   |  |\   \          
                \     /   | |  | | |  |  |  |  | |\  \  |  | \   \       
                 \___/    |_|  |_| |__|  |__|  |_| \__\ |__|  \__/        
                                                                              
                      - O R C A' S   B I G   F R I E N D -                    
                                      &                                       
                       - I N T E G R A L  F E E D E R -                       
                                                                              
 v1 FN, 2020, v2 2021, v3 2022-2024                                           
------------------------------------------------------------------------------


----------------------
SHARK INTEGRAL PACKAGE
----------------------

Number of atoms                             ...     18
Number of basis functions                   ...    108
Number of shells                            ...     60
Maximum angular momentum                    ...      2
Integral batch strategy                     ... SHARK/LIBINT Hybrid
RI-J (if used) integral strategy            ... SPLIT-RIJ (Revised 2003 algorithm where possible)
Printlevel                                  ...      1
Contraction scheme used                     ... SEGMENTED contraction
Prescreening option                         ... SCHWARTZ
   Thresh                                   ... 1.000e-09
   Tcut                                     ... 1.000e-10
   Tpresel                                  ... 1.000e-10 
Coulomb Range Separation                    ... NOT USED
Exchange Range Separation                   ... NOT USED
Multipole approximations                    ... NOT USED
Finite Nucleus Model                        ... NOT USED
CABS basis                                  ... NOT available
Auxiliary Coulomb fitting basis             ... AVAILABLE
   # of basis functions in Aux-J            ...    426
   # of shells in Aux-J                     ...    150
   Maximum angular momentum in Aux-J        ...      4
Auxiliary J/K fitting basis                 ... NOT available
Auxiliary Correlation fitting basis         ... NOT available
Auxiliary 'external' fitting basis          ... NOT available

Checking pre-screening integrals            ... done (  0.0 sec) Dimension = 60
Check shell pair data                       ... done (  0.0 sec)
Shell pair information
Shell pair cut-off parameter TPreSel        ...   1.0e-10
Total number of shell pairs                 ...      1830
Shell pairs after pre-screening             ...      1804
Total number of primitive shell pairs       ...      7374
Primitive shell pairs kept                  ...      5404
          la=0 lb=0:    883 shell pairs
          la=1 lb=0:    501 shell pairs
          la=1 lb=1:     78 shell pairs
          la=2 lb=0:    249 shell pairs
          la=2 lb=1:     72 shell pairs
          la=2 lb=2:     21 shell pairs

Calculating one electron integrals          ... done (  0.0 sec)
Calculating RI/J V-Matrix + Cholesky decomp.... done (  0.1 sec)
Calculating Nuclear repulsion               ... done (  0.0 sec) ENN=    268.750762077912 Eh

Diagonalization of the overlap matrix:
Smallest eigenvalue                        ... 1.503e-03
Time for diagonalization                   ...    0.001 sec
Threshold for overlap eigenvalues          ... 1.000e-07
Number of eigenvalues below threshold      ... 0
Time for construction of square roots      ...    0.011 sec
Total time needed                          ...    0.026 sec

-------------------
DFT GRID GENERATION
-------------------

General Integration Accuracy     IntAcc      ... 4.159
Radial Grid Type                 RadialGrid  ... OptM3 with GC (2021)
Angular Grid (max. ang.)         AngularGrid ... 3 (Lebedev-194)
Angular grid pruning method      GridPruning ... 4 (adaptive)
Weight generation scheme         WeightScheme... mBecke (2022)
Basis function cutoff            BFCut       ... 1.0000e-10
Integration weight cutoff        WCut        ... 1.0000e-14
Partially contracted basis set               ... off
Rotationally invariant grid construction     ... off
Angular grids for H and He will be reduced by one unit

Total number of grid points                  ...    36281
Total number of batches                      ...      577
Average number of points per batch           ...       62
Average number of grid points per atom       ...     2016
Initializing property integral containers    ... done (  0.0 sec)

SHARK setup successfully completed in   0.5 seconds

Maximum memory used throughout the entire STARTUP-calculation: 17.7 MB
-------------------------------------------------------------------------------
                                 ORCA GUESS
                   Start orbitals & Density for SCF / CASSCF
-------------------------------------------------------------------------------

------------
SCF SETTINGS
------------
Hamiltonian:
 Density Functional     Method          .... DFT(GTOs)
 Exchange Functional    Exchange        .... PBE
   PBE kappa parameter   XKappa         ....  0.804000
   PBE mue parameter    XMuePBE         ....  0.219520
 Correlation Functional Correlation     .... PBE
   PBE beta parameter  CBetaPBE         ....  0.066725
 LDA part of GGA corr.  LDAOpt          .... PW91-LDA
 Gradients option       PostSCFGGA      .... off
   NL short-range parameter             ....  6.400000
 RI-approximation to the Coulomb term is turned on
   Number of AuxJ basis functions       .... 426


General Settings:
 Integral files         IntName         .... sp
 Hartree-Fock type      HFTyp           .... RHF
 Total Charge           Charge          ....    0
 Multiplicity           Mult            ....    1
 Number of Electrons    NEL             ....   50
 Basis Dimension        Dim             ....  108
 Nuclear Repulsion      ENuc            ....    268.7507620779 Eh

Convergence Acceleration:
 AO-DIIS                CNVDIIS         .... on
   Start iteration      DIISMaxIt       ....    12
   Startup error        DIISStart       ....  0.200000
   # of expansion vecs  DIISMaxEq       ....     5
   Bias factor          DIISBfac        ....   1.050
   Max. coefficient     DIISMaxC        ....  10.000
 MO-DIIS                CNVKDIIS        .... off
 Trust-Rad. Augm. Hess. CNVTRAH         .... auto
   Auto Start mean grad. ratio tolernc. ....  1.125000
   Auto Start start iteration           ....    50
   Auto Start num. interpolation iter.  ....    10
   Max. Number of Micro iterations      ....    24
   Max. Number of Macro iterations      .... Maxiter - #DIIS iter
   Number of Davidson start vectors     ....     2
   Converg. threshold    (grad. norm)   ....   1.000e-04
   Grad. Scal. Fac. for Micro threshold ....   0.100
   Minimum threshold for Micro iter.    ....   1.000e-02
   NR start threshold (gradient norm)   ....   1.000e-04
   Initial trust radius                 ....   0.400
   Minimum AH scaling param. (alpha)    ....   1.000
   Maximum AH scaling param. (alpha)    .... 1000.000
   Quad. conv. algorithm                .... NR
   White noise on init. David. guess    .... on
   Maximum white noise                  ....   0.010
   Pseudo random numbers                .... off
   Inactive MOs                         .... canonical
   Orbital update algorithm             .... Taylor
   Preconditioner                       .... Diag
   Full preconditioner red. dimension   ....   250
 SOSCF                  CNVSOSCF        .... on
   Start iteration      SOSCFMaxIt      ....   150
   Startup grad/error   SOSCFStart      ....  0.003300
   Hessian update       SOSCFHessUp     .... L-BFGS
 Level Shifting         CNVShift        .... on
   Level shift para.    LevelShift      ....    0.2500
   Turn off err/grad.   ShiftErr        ....    0.0010
 Zerner damping         CNVZerner       .... off
 Static damping         CNVDamp         .... on
   Fraction old density DampFac         ....    0.7000
   Max. Damping (<1)    DampMax         ....    0.9800
   Min. Damping (>=0)   DampMin         ....    0.0000
   Turn off err/grad.   DampErr         ....    0.1000

SCF Procedure:
 Maximum # iterations   MaxIter         ....   125
 SCF integral mode      SCFMode         .... Direct
   Integral package                     .... SHARK and LIBINT hybrid scheme
 Reset frequency        DirectResetFreq ....    20
 Integral Threshold     Thresh          ....  1.000e-09 Eh
 Primitive CutOff       TCut            ....  1.000e-10 Eh

Convergence Tolerance:
 Convergence Check Mode ConvCheckMode   .... Total+1el-Energy
 Convergence forced     ConvForced      .... 0
 Energy Change          TolE            ....  1.000e-05 Eh
 1-El. energy change                    ....  1.000e-02 Eh
 Orbital Gradient       TolG            ....  1.000e-04
 Orbital Rotation angle TolX            ....  1.000e-04
 DIIS Error             TolErr          ....  5.000e-04

------------------------------
INITIAL GUESS: MODEL POTENTIAL
------------------------------
Loading Hartree-Fock densities                     ... done
Calculating cut-offs                               ... done
Initializing the effective Hamiltonian             ... done
Setting up the integral package (SHARK)            ... done
Starting the Coulomb interaction                   ... done (   0.1 sec)
Making the grid                                    ... done (   0.1 sec)
Mapping shells                                     ... done
Starting the XC term evaluation                    ... done (   0.1 sec)
  promolecular density results
     # of electrons  =     49.992562584
     EX              =    -37.277432876
     EC              =     -1.633000889
     EX+EC           =    -38.910433765
Transforming the Hamiltonian                       ... done (   0.0 sec)
Diagonalizing the Hamiltonian                      ... done (   0.0 sec)
Back transforming the eigenvectors                 ... done (   0.0 sec)
Now organizing SCF variables                       ... done
                      ------------------
                      INITIAL GUESS DONE (   0.4 sec)
                      ------------------
             **** ENERGY FILE WAS UPDATED (sp.en.tmp) ****
Finished Guess after   0.5 sec
Maximum memory used throughout the entire GUESS-calculation: 13.5 MB

-------------------------------------------------------------------------------------------
                                      ORCA LEAN-SCF
                              memory conserving SCF solver
-------------------------------------------------------------------------------------------

----------------------------------------D-I-I-S--------------------------------------------
Iteration    Energy (Eh)           Delta-E    RMSDP     MaxDP     DIISErr   Damp  Time(sec)
-------------------------------------------------------------------------------------------
               ***  Starting incremental Fock matrix formation  ***
    1    -272.1564575543573028     0.00e+00  5.72e-03  8.33e-02  2.25e-01  0.700   0.6
    2    -272.2675910996073299    -1.11e-01  3.96e-03  4.82e-02  8.20e-02  0.700   0.6
                               ***Turning on AO-DIIS***
    3    -272.3048781565997842    -3.73e-02  1.48e-03  1.49e-02  2.31e-02  0.700   0.6
    4    -272.3268853138038139    -2.20e-02  2.00e-03  2.32e-02  8.85e-03  0.000   0.6
    5    -272.3776204182320271    -5.07e-02  6.68e-04  6.37e-03  8.66e-03  0.000   0.6
                              *** Initializing SOSCF ***
---------------------------------------S-O-S-C-F--------------------------------------
Iteration    Energy (Eh)           Delta-E    RMSDP     MaxDP     MaxGrad    Time(sec)
--------------------------------------------------------------------------------------
    6    -272.3781979621975324    -5.78e-04  2.47e-04  2.37e-03  2.02e-03     0.6
               *** Restarting incremental Fock matrix formation ***
    7    -272.3782445858088295    -4.66e-05  1.81e-04  1.76e-03  3.39e-04     0.6
    8    -272.3782423297446940     2.26e-06  5.93e-05  1.20e-03  6.28e-04     0.5
                 **** Energy Check signals convergence ****

               *****************************************************
               *                     SUCCESS                       *
               *           SCF CONVERGED AFTER   8 CYCLES          *
               *****************************************************

             **** ENERGY FILE WAS UPDATED (sp.en.tmp) ****

----------------
TOTAL SCF ENERGY
----------------

Total Energy       :       -272.37824232974469 Eh           -7411.78878 eV

Components:
Nuclear Repulsion  :        268.75076207791165 Eh            7313.08003 eV
Electronic Energy  :       -541.12900440765634 Eh          -14724.86881 eV
One Electron Energy:       -900.81838924574026 Eh          -24512.51456 eV
Two Electron Energy:        359.68938483808387 Eh            9787.64576 eV

Virial components:
Potential Energy   :       -542.42111060169361 Eh          -14760.02880 eV
Kinetic Energy     :        270.04286827194892 Eh            7348.24002 eV
Virial Ratio       :          2.00864816046704

DFT components:
N(Alpha)           :       24.999766162074 electrons
N(Beta)            :       24.999766162074 electrons
N(Total)           :       49.999532324148 electrons
E(X)               :      -38.199658478550 Eh       
E(C)               :       -1.644457451285 Eh       
E(XC)              :      -39.844115929836 Eh       

---------------
SCF CONVERGENCE
---------------

  Last Energy change         ...   -2.2561e-06  Tolerance :   1.0000e-05
  Last MAX-Density change    ...    1.2037e-03  Tolerance :   1.0000e-03
  Last RMS-Density change    ...    5.9288e-05  Tolerance :   1.0000e-04
  Last DIIS Error            ...    2.0244e-03  Tolerance :   5.0000e-04
  Last Orbital Gradient      ...    6.2848e-04  Tolerance :   1.0000e-04
  Last Orbital Rotation      ...    2.5141e-04  Tolerance :   1.0000e-04


----------------
ORBITAL ENERGIES
----------------

  NO   OCC          E(Eh)            E(eV) 
   0   2.0000     -18.737999      -509.8869 
   1   2.0000      -9.944824      -270.6124 
   2   2.0000      -9.882095      -268.9055 
   3   2.0000      -9.872507      -268.6446 
   4   2.0000      -9.869323      -268.5579 
   5   2.0000      -9.868161      -268.5263 
   6   2.0000      -0.916576       -24.9413 
   7   2.0000      -0.714942       -19.4545 
   8   2.0000      -0.657758       -17.8985 
   9   2.0000      -0.616872       -16.7860 
  10   2.0000      -0.556096       -15.1321 
  11   2.0000      -0.508141       -13.8272 
  12   2.0000      -0.429845       -11.6967 
  13   2.0000      -0.409940       -11.1550 
  14   2.0000      -0.405385       -11.0311 
  15   2.0000      -0.375782       -10.2255 
  16   2.0000      -0.359218        -9.7748 
  17   2.0000      -0.340015        -9.2523 
  18   2.0000      -0.330461        -8.9923 
  19   2.0000      -0.318009        -8.6535 
  20   2.0000      -0.314984        -8.5711 
  21   2.0000      -0.292340        -7.9550 
  22   2.0000      -0.290803        -7.9131 
  23   2.0000      -0.262358        -7.1391 
  24   2.0000      -0.211878        -5.7655 
  25   0.0000       0.019658         0.5349 
  26   0.0000       0.062892         1.7114 
  27   0.0000       0.072682         1.9778 
  28   0.0000       0.075535         2.0554 
  29   0.0000       0.090348         2.4585 
  30   0.0000       0.103247         2.8095 
  31   0.0000       0.114945         3.1278 
  32   0.0000       0.124003         3.3743 
  33   0.0000       0.136775         3.7218 
  34   0.0000       0.148363         4.0372 
  35   0.0000       0.150004         4.0818 
*Only the first 10 virtual orbitals were printed.

                    ********************************
                    * MULLIKEN POPULATION ANALYSIS *
                    ********************************

-----------------------
MULLIKEN ATOMIC CHARGES
-----------------------
   0 C :   -0.259498
   1 C :   -0.147918
   2 C :   -0.059694
   3 C :   -0.212174
   4 C :   -0.221019
   5 O :   -0.420513
   6 H :    0.102693
   7 H :    0.101418
   8 H :    0.098277
   9 H :    0.063809
  10 H :    0.078031
  11 H :    0.082979
  12 H :    0.104014
  13 H :    0.092884
  14 H :    0.100088
  15 H :    0.111361
  16 H :    0.094167
  17 H :    0.291097
Sum of atomic charges:   -0.0000000

--------------------------------
MULLIKEN REDUCED ORBITAL CHARGES
--------------------------------
  0 C s       :     3.075243  s :     3.075243
      pz      :     1.079758  p :     3.155222
      px      :     1.037613
      py      :     1.037851
      dz2     :     0.008274  d :     0.029034
      dxz     :     0.001960
      dyz     :     0.005846
      dx2y2   :     0.008843
      dxy     :     0.004110

  1 C s       :     3.066675  s :     3.066675
      pz      :     1.018427  p :     3.045915
      px      :     0.995987
      py      :     1.031501
      dz2     :     0.010610  d :     0.035327
      dxz     :     0.003579
      dyz     :     0.004324
      dx2y2   :     0.007518
      dxy     :     0.009296

  2 C s       :     3.128385  s :     3.128385
      pz      :     0.785715  p :     2.856320
      px      :     1.016204
      py      :     1.054401
      dz2     :     0.023180  d :     0.074989
      dxz     :     0.016202
      dyz     :     0.014060
      dx2y2   :     0.011025
      dxy     :     0.010522

  3 C s       :     3.071526  s :     3.071526
      pz      :     1.046804  p :     3.112998
      px      :     1.044467
      py      :     1.021726
      dz2     :     0.008804  d :     0.027651
      dxz     :     0.002971
      dyz     :     0.002647
      dx2y2   :     0.006950
      dxy     :     0.006279

  4 C s       :     3.078640  s :     3.078640
      pz      :     1.021311  p :     3.115139
      px      :     1.054886
      py      :     1.038942
      dz2     :     0.008353  d :     0.027240
      dxz     :     0.002030
      dyz     :     0.003972
      dx2y2   :     0.008504
      dxy     :     0.004380

  5 O s       :     3.800450  s :     3.800450
      pz      :     1.298963  p :     4.605032
      px      :     1.792224
      py      :     1.513845
      dz2     :     0.004214  d :     0.015031
      dxz     :     0.002067
      dyz     :     0.003182
      dx2y2   :     0.002084
      dxy     :     0.003484

  6 H s       :     0.897307  s :     0.897307

  7 H s       :     0.898582  s :     0.898582

  8 H s       :     0.901723  s :     0.901723

  9 H s       :     0.936191  s :     0.936191

 10 H s       :     0.921969  s :     0.921969

 11 H s       :     0.917021  s :     0.917021

 12 H s       :     0.895986  s :     0.895986

 13 H s       :     0.907116  s :     0.907116

 14 H s       :     0.899912  s :     0.899912

 15 H s       :     0.888639  s :     0.888639

 16 H s       :     0.905833  s :     0.905833

 17 H s       :     0.708903  s :     0.708903


------------------------
MULLIKEN OVERLAP CHARGES
------------------------
B(  0-C ,  1-C ) :   0.8720 B(  0-C ,  2-C ) :  -0.0869 B(  0-C ,  6-H ) :   0.7297 
B(  0-C ,  7-H ) :   0.7531 B(  0-C ,  8-H ) :   0.7325 B(  0-C ,  9-H ) :  -0.0531 
B(  1-C ,  2-C ) :   0.7657 B(  1-C ,  3-C ) :  -0.1882 B(  1-C ,  4-C ) :  -0.1864 
B(  1-C ,  5-O ) :  -0.1212 B(  1-C ,  6-H ) :  -0.0607 B(  1-C ,  9-H ) :   0.6615 
B(  1-C , 10-H ) :   0.6313 B(  2-C ,  3-C ) :   0.8562 B(  2-C ,  4-C ) :   0.7472 
B(  2-C ,  5-O ) :   0.6363 B(  2-C , 17-H ) :  -0.0945 B(  3-C ,  4-C ) :  -0.1503 
B(  3-C ,  5-O ) :  -0.1024 B(  3-C , 11-H ) :   0.7036 B(  3-C , 12-H ) :   0.7040 
B(  3-C , 13-H ) :   0.6695 B(  4-C ,  5-O ) :  -0.1508 B(  4-C , 14-H ) :   0.7011 
B(  4-C , 15-H ) :   0.6964 B(  4-C , 16-H ) :   0.7019 B(  5-O ,  6-H ) :   0.0572 
B(  5-O , 17-H ) :   0.5200 B(  6-H ,  7-H ) :  -0.0502 B(  9-H , 10-H ) :  -0.0528 
B( 11-H , 12-H ) :  -0.0522 


                     *******************************
                     * LOEWDIN POPULATION ANALYSIS *
                     *******************************

----------------------
LOEWDIN ATOMIC CHARGES
----------------------
   0 C :   -0.345903
   1 C :   -0.235069
   2 C :   -0.016956
   3 C :   -0.338315
   4 C :   -0.326330
   5 O :   -0.319495
   6 H :    0.119484
   7 H :    0.117553
   8 H :    0.118521
   9 H :    0.107850
  10 H :    0.116869
  11 H :    0.111449
  12 H :    0.120586
  13 H :    0.121824
  14 H :    0.122457
  15 H :    0.124861
  16 H :    0.120982
  17 H :    0.279632

-------------------------------
LOEWDIN REDUCED ORBITAL CHARGES
-------------------------------
  0 C s       :     2.942269  s :     2.942269
      pz      :     1.134984  p :     3.333053
      px      :     1.102589
      py      :     1.095480
      dz2     :     0.020082  d :     0.070582
      dxz     :     0.004488
      dyz     :     0.013853
      dx2y2   :     0.020656
      dxy     :     0.011503

  1 C s       :     2.920503  s :     2.920503
      pz      :     1.095026  p :     3.227354
      px      :     1.053195
      py      :     1.079134
      dz2     :     0.025610  d :     0.087211
      dxz     :     0.009405
      dyz     :     0.010040
      dx2y2   :     0.019631
      dxy     :     0.022525

  2 C s       :     2.858410  s :     2.858410
      pz      :     0.857430  p :     2.986521
      px      :     1.060121
      py      :     1.068969
      dz2     :     0.053237  d :     0.172025
      dxz     :     0.036002
      dyz     :     0.029834
      dx2y2   :     0.027209
      dxy     :     0.025743

  3 C s       :     2.960002  s :     2.960002
      pz      :     1.119861  p :     3.308910
      px      :     1.111010
      py      :     1.078039
      dz2     :     0.021618  d :     0.069403
      dxz     :     0.007850
      dyz     :     0.007047
      dx2y2   :     0.016514
      dxy     :     0.016374

  4 C s       :     2.951766  s :     2.951766
      pz      :     1.110924  p :     3.306388
      px      :     1.108099
      py      :     1.087364
      dz2     :     0.020734  d :     0.068177
      dxz     :     0.005090
      dyz     :     0.010124
      dx2y2   :     0.020133
      dxy     :     0.012096

  5 O s       :     3.548334  s :     3.548334
      pz      :     1.370081  p :     4.744868
      px      :     1.804975
      py      :     1.569811
      dz2     :     0.008802  d :     0.026293
      dxz     :     0.003571
      dyz     :     0.005739
      dx2y2   :     0.002917
      dxy     :     0.005264

  6 H s       :     0.880516  s :     0.880516

  7 H s       :     0.882447  s :     0.882447

  8 H s       :     0.881479  s :     0.881479

  9 H s       :     0.892150  s :     0.892150

 10 H s       :     0.883131  s :     0.883131

 11 H s       :     0.888551  s :     0.888551

 12 H s       :     0.879414  s :     0.879414

 13 H s       :     0.878176  s :     0.878176

 14 H s       :     0.877543  s :     0.877543

 15 H s       :     0.875139  s :     0.875139

 16 H s       :     0.879018  s :     0.879018

 17 H s       :     0.720368  s :     0.720368


---------------------------------
LOEWDIN BOND ORDERS (THRESH 0.050000)
---------------------------------
B(  0-C ,  1-C ) :   1.1252 B(  0-C ,  6-H ) :   0.9336 B(  0-C ,  7-H ) :   0.9393 
B(  0-C ,  8-H ) :   0.9382 B(  1-C ,  2-C ) :   1.0346 B(  1-C ,  3-C ) :   0.0593 
B(  1-C ,  5-O ) :   0.0679 B(  1-C ,  9-H ) :   0.8998 B(  1-C , 10-H ) :   0.9002 
B(  2-C ,  3-C ) :   1.0708 B(  2-C ,  4-C ) :   1.0682 B(  2-C ,  5-O ) :   1.1657 
B(  3-C ,  4-C ) :   0.0559 B(  3-C ,  5-O ) :   0.0702 B(  3-C , 11-H ) :   0.9312 
B(  3-C , 12-H ) :   0.9314 B(  3-C , 13-H ) :   0.9296 B(  4-C ,  5-O ) :   0.0578 
B(  4-C , 14-H ) :   0.9315 B(  4-C , 15-H ) :   0.9291 B(  4-C , 16-H ) :   0.9337 
B(  5-O , 17-H ) :   0.8865 

------------------------------------------
LOEWDIN REDUCED ORBITAL POPULATIONS PER MO
-------------------------------------------
THRESHOLD FOR PRINTING IS 0.1%%
                      0         1         2         3         4         5   
                 -18.73800  -9.94482  -9.88210  -9.87251  -9.86932  -9.86816
                   2.00000   2.00000   2.00000   2.00000   2.00000   2.00000
                  --------  --------  --------  --------  --------  --------
 0 C  s               0.0       0.0       0.0       0.0       0.0      99.7
 1 C  s               0.0       0.0      99.6       0.0       0.0       0.0
 2 C  s               0.0      99.5       0.0       0.0       0.0       0.0
 3 C  s               0.0       0.0       0.0      99.7       0.0       0.0
 4 C  s               0.0       0.0       0.0       0.0      99.7       0.0
 5 O  s              99.9       0.0       0.0       0.0       0.0       0.0
 5 O  pz              0.0       0.1       0.0       0.0       0.0       0.0

                      6         7         8         9        10        11   
                  -0.91658  -0.71494  -0.65776  -0.61687  -0.55610  -0.50814
                   2.00000   2.00000   2.00000   2.00000   2.00000   2.00000
                  --------  --------  --------  --------  --------  --------
 0 C  s               0.1       7.2      20.9       0.0      16.9       1.0
 0 C  pz              0.0       0.2       0.1       0.0       0.3       0.6
 0 C  px              0.1       0.7       0.1       0.0       1.5       0.0
 0 C  py              0.1       1.0       0.8       0.1       3.8       1.1
 1 C  s               0.9      16.9      11.3       0.7       9.4       2.5
 1 C  pz              0.5       0.0       0.2       0.0       0.3       2.2
 1 C  px              0.9       0.7       3.7       0.0       3.1       0.9
 1 C  py              0.0       0.3       1.9       1.0       5.3       1.1
 1 C  dxy             0.0       0.0       0.0       0.0       0.1       0.0
 2 C  s              10.8      14.4       2.9       0.0       2.6       6.7
 2 C  pz              8.1       5.9       0.6       0.1       0.1       5.5
 2 C  px              0.0       0.2       8.1       0.6       7.7       0.4
 2 C  py              0.0       0.0       0.2      16.8       0.0       0.2
 2 C  dz2             0.7       0.3       0.0       0.0       0.0       0.1
 2 C  dx2y2           0.0       0.0       0.1       0.0       0.1       0.0
 2 C  dxy             0.0       0.0       0.0       0.2       0.0       0.0
 3 C  s               0.9       7.9      10.2      19.8       5.7       0.3
 3 C  pz              0.5       0.0       0.0       0.0       0.0       1.1
 3 C  px              0.2       0.4       0.0       0.1       1.8       0.0
 3 C  py              0.7       1.3       0.3       0.7       0.9       1.2
 4 C  s               0.8       8.8       6.5      22.9       1.4       4.9
 4 C  pz              0.4       0.0       0.0       0.0       0.0       3.9
 4 C  px              0.3       0.7       0.1       0.0       0.8       1.2
 4 C  py              0.6       1.2       0.5       0.4       0.3       2.9
 5 O  s              56.8       6.0       0.4       0.1       0.3       0.3
 5 O  pz              1.2       2.3       0.8       0.2       1.3      24.2
 5 O  px              0.5       0.1       0.4       0.1       0.1       1.9
 5 O  py              1.6       0.8       0.1       1.0       0.1       7.5
 5 O  dz2             0.0       0.0       0.0       0.0       0.0       0.3
 6 H  s               0.1       1.2       4.4       0.0       5.9       0.9
 7 H  s               0.0       1.4       4.3       0.1       6.6       0.4
 8 H  s               0.0       1.2       4.7       0.0       6.5       0.3
 9 H  s               0.2       3.0       2.6       0.6       3.8       2.0
10 H  s               0.1       3.5       2.1       0.2       3.4       3.0
11 H  s               0.2       1.4       1.9       6.5       1.5       0.6
12 H  s               0.2       1.3       2.5       4.6       3.1       0.1
13 H  s               0.1       1.8       2.4       5.0       1.9       1.0
14 H  s               0.1       1.5       1.8       5.5       1.0       2.1
15 H  s               0.2       1.6       0.9       6.7       0.7       1.6
16 H  s               0.1       1.9       1.4       5.6       0.5       5.1
17 H  s              11.9       2.5       0.4       0.2       0.3      10.0

                     12        13        14        15        16        17   
                  -0.42985  -0.40994  -0.40539  -0.37578  -0.35922  -0.34001
                   2.00000   2.00000   2.00000   2.00000   2.00000   2.00000
                  --------  --------  --------  --------  --------  --------
 0 C  s               0.3       0.0       0.3       0.0       0.0       0.0
 0 C  pz              0.1       8.1       3.6      12.1       0.0       0.7
 0 C  px              0.5       2.8       7.4       0.0      13.5       2.7
 0 C  py              6.8       0.1       0.3       7.0       0.9       3.2
 1 C  s               1.8       0.2       0.2       0.1       0.8       0.1
 1 C  pz              0.0      15.8       5.8       8.0       1.4       0.3
 1 C  px             14.7       2.7       0.9       0.5       0.0       0.7
 1 C  py              2.5       0.2       7.6       0.0       6.1       0.8
 1 C  dx2y2           0.1       0.0       0.0       0.0       0.0       0.0
 2 C  s               3.4       0.1       1.0       0.0       0.0       0.0
 2 C  pz             10.8       1.0       0.0       1.3       0.2       1.3
 2 C  px              0.9      12.5       0.9       0.1       0.1       0.2
 2 C  py              0.2       0.0      10.3       4.0       0.0       0.1
 2 C  dz2             0.1       0.0       0.1       0.0       0.3       0.3
 2 C  dxz             0.0       0.0       0.1       0.1       0.0       0.0
 2 C  dyz             0.1       0.0       0.0       0.0       0.2       0.1
 2 C  dx2y2           0.0       0.0       0.0       0.1       0.1       0.0
 2 C  dxy             0.0       0.0       0.0       0.0       0.1       0.1
 3 C  s               0.4       0.2       0.7       0.0       0.0       0.0
 3 C  pz              0.6       0.0       6.7      13.3      18.4       0.9
 3 C  px              3.0       2.7       2.8       7.4      16.0       1.7
 3 C  py              5.8       9.8       6.0       2.5       0.2       0.8
 3 C  dz2             0.0       0.0       0.1       0.1       0.2       0.0
 3 C  dxz             0.0       0.0       0.0       0.0       0.1       0.0
 3 C  dx2y2           0.1       0.0       0.0       0.0       0.1       0.0
 3 C  dxy             0.1       0.1       0.1       0.0       0.0       0.0
 4 C  s               0.4       0.4       0.4       0.1       0.0       0.0
 4 C  pz              3.3       0.0       0.7       0.0       0.2      35.7
 4 C  px              4.9       1.1       7.4       0.1       0.0       5.7
 4 C  py              3.2      10.1       0.7       5.8       0.3       0.0
 4 C  dz2             0.0       0.0       0.0       0.0       0.0       0.8
 4 C  dxy             0.1       0.0       0.0       0.1       0.0       0.0
 5 O  s               0.5       0.8       2.6       0.4       1.8       0.1
 5 O  pz              4.3       0.4       0.5       2.7       0.3       4.2
 5 O  px              2.4       5.4       0.1       0.6       0.3       0.0
 5 O  py              4.8       0.0       8.3       2.4       5.1       0.1
 6 H  s               0.7       3.2       1.1       3.9       0.0       1.1
 7 H  s               2.5       0.1       1.2       7.1       0.0       1.2
 8 H  s               0.1       1.7       3.0       0.1       6.5       2.0
 9 H  s               7.0       0.2       4.0       0.9       0.4       0.0
10 H  s               0.5       7.4       3.1       2.5       0.4       0.2
11 H  s               1.5       6.3       0.4       6.0       0.8       0.0
12 H  s               2.9       0.3       0.9       0.6      14.5       1.1
13 H  s               0.0       0.0       5.0       7.0       8.4       0.2
14 H  s               3.3       0.2       3.3       0.0       0.1       7.7
15 H  s               1.5       5.1       1.0       2.3       0.0       2.5
16 H  s               0.4       0.3       0.3       0.1       0.4      22.4
17 H  s               3.1       0.0       0.7       0.0       1.1       0.6

                     18        19        20        21        22        23   
                  -0.33046  -0.31801  -0.31498  -0.29234  -0.29080  -0.26236
                   2.00000   2.00000   2.00000   2.00000   2.00000   2.00000
                  --------  --------  --------  --------  --------  --------
 0 C  s               0.1       0.1       0.2       0.2       0.1       0.0
 0 C  pz              0.0       4.7      14.8       0.7       8.7       1.6
 0 C  px             12.4       0.5       0.1      11.9       0.0       0.3
 0 C  py              4.0       2.3      10.8       2.2       8.6       1.7
 0 C  dz2             0.1       0.1       0.4       0.0       0.2       0.1
 0 C  dyz             0.0       0.1       0.0       0.0       0.4       0.0
 0 C  dx2y2           0.2       0.0       0.0       0.4       0.1       0.1
 0 C  dxy             0.0       0.0       0.1       0.0       0.1       0.0
 1 C  s               0.1       0.0       0.0       0.0       0.0       0.4
 1 C  pz              0.0       1.1       4.5       3.0       8.1       2.2
 1 C  px              0.1       0.0       0.1      12.9       0.0       3.9
 1 C  py              0.0       2.3      14.2       0.8       8.2       1.5
 1 C  dz2             0.0       0.0       0.2       0.2       0.4       0.1
 1 C  dxz             0.0       0.0       0.0       0.1       0.0       0.0
 1 C  dyz             0.0       0.1       0.0       0.0       0.2       0.0
 1 C  dx2y2           0.1       0.0       0.0       0.3       0.0       0.1
 1 C  dxy             0.0       0.0       0.2       0.0       0.3       0.3
 2 C  s               0.8       0.0       0.3       0.1       0.0       0.1
 2 C  pz              2.9       1.5       0.1       0.0       1.1       2.1
 2 C  px              0.8       1.1       0.7       9.9       0.0       4.4
 2 C  py              3.0       2.1       0.5       2.1       4.1       8.6
 2 C  dz2             0.3       0.0       0.0       0.0       0.2       0.1
 2 C  dxz             0.0       0.0       0.1       0.0       0.0       0.1
 2 C  dyz             0.0       0.0       0.0       0.0       0.0       0.5
 2 C  dx2y2           0.2       0.0       0.0       0.2       0.0       0.1
 2 C  dxy             0.0       0.0       0.0       0.0       0.2       0.4
 3 C  s               0.1       0.0       0.0       0.2       0.1       0.5
 3 C  pz              2.8       5.6       2.3       0.4       0.2       1.7
 3 C  px              0.0       8.6       2.0       7.1       0.5       0.1
 3 C  py              0.1       8.0       1.1       3.8       1.9       5.0
 3 C  dz2             0.1       0.3       0.0       0.1       0.1       0.1
 3 C  dx2y2           0.0       0.2       0.0       0.2       0.0       0.1
 3 C  dxy             0.0       0.2       0.0       0.0       0.0       0.2
 4 C  s               0.2       0.1       0.1       0.0       0.1       0.7
 4 C  pz              9.1       0.3       1.1       0.1       0.1       0.6
 4 C  px             21.5       0.7       3.6       4.6       0.2       2.7
 4 C  py              0.3      10.3       1.6       0.6       7.8       7.7
 4 C  dx2y2           0.3       0.1       0.1       0.3       0.0       0.0
 5 O  s               0.2       1.1       1.2       0.1       0.3       4.4
 5 O  pz              4.4       5.0       1.0       0.4       4.5      10.8
 5 O  px              0.0       3.0       4.1      11.7       0.0       3.4
 5 O  py              0.4       4.0       2.8       0.6       4.5      18.7
 6 H  s               0.6       3.1      10.9       0.2       5.1       1.3
 7 H  s               4.1       3.1       0.5       0.6      10.4       0.2
 8 H  s               8.1       0.4       1.5       6.2       0.0       1.1
 9 H  s               0.0       1.3       3.1       2.1      11.3       2.1
10 H  s               0.3       0.6       4.1       2.9       6.7       2.0
11 H  s               0.3      13.5       1.0       0.0       1.0       1.5
12 H  s               0.4       1.7       2.5       5.7       0.5       0.6
13 H  s               1.7       4.9       1.2       0.5       0.7       1.0
14 H  s               7.7       0.8       3.4       4.3       0.0       0.6
15 H  s               6.5       6.4       1.2       1.5       2.6       0.9
16 H  s               3.8       0.1       1.2       0.3       0.0       0.1
17 H  s               1.2       0.2       0.7       0.0       0.1       2.8

                     24        25        26        27        28        29   
                  -0.21188   0.01966   0.06289   0.07268   0.07554   0.09035
                   2.00000   0.00000   0.00000   0.00000   0.00000   0.00000
                  --------  --------  --------  --------  --------  --------
 0 C  s               0.0       1.8       5.0      12.7       1.2       0.3
 0 C  pz              0.3       0.1       1.1       0.1       0.0       0.6
 0 C  px              0.5       0.1       0.0       1.7       0.4       4.6
 0 C  py              0.2       0.4       2.1       0.2       0.1       1.3
 0 C  dyz             0.0       0.1       0.1       0.0       0.0       0.0
 0 C  dx2y2           0.0       0.1       0.0       0.1       0.1       0.4
 0 C  dxy             0.0       0.0       0.0       0.0       0.1       0.0
 1 C  s               1.0       4.1       0.4       0.2       0.6       6.2
 1 C  pz              1.3       0.5       4.0       1.6       2.4       1.2
 1 C  px              6.4       1.2       0.3       0.6       0.0       1.8
 1 C  py              0.0       1.8       0.3       2.3       0.4       1.9
 1 C  dz2             0.0       0.1       0.1       0.0       0.5       0.0
 1 C  dxz             0.0       0.0       0.0       0.0       0.1       0.0
 1 C  dyz             0.0       0.0       0.0       0.1       0.0       0.0
 1 C  dx2y2           0.0       0.0       0.1       0.0       0.0       0.3
 1 C  dxy             0.0       0.0       0.0       0.5       0.0       0.1
 2 C  s               0.0       0.8       0.0       0.1       0.5       0.2
 2 C  pz              0.0       1.3       0.1       1.0       4.2       0.1
 2 C  px              4.2       0.0       0.0       0.1       0.1       0.1
 2 C  py              1.1       0.0       0.1       0.1       0.2       0.5
 2 C  dz2             0.0       0.1       0.0       0.3       1.5       0.1
 2 C  dxz             1.1       0.0       0.1       0.0       0.0       0.0
 2 C  dyz             0.3       0.0       0.1       0.0       0.0       0.0
 2 C  dx2y2           0.3       0.0       0.0       0.0       0.0       0.0
 2 C  dxy             0.1       0.1       0.0       0.4       0.0       0.1
 3 C  s               1.0       4.3       0.0       4.5       7.0       0.1
 3 C  pz              1.5       0.6       1.3       2.4       1.7       1.4
 3 C  px              1.1       0.0       0.9       1.1       1.1       0.7
 3 C  py              3.6       2.4       1.0       0.0       2.4       0.6
 3 C  dz2             0.1       0.2       0.0       0.1       0.4       0.0
 4 C  s               0.0       3.7       4.6       0.2       1.9       3.9
 4 C  pz              0.0       0.5       1.0       2.9       1.9       0.3
 4 C  px              0.1       0.1       0.4       0.5       2.1       0.4
 4 C  py              0.0       0.1       2.4       0.2       0.0       1.8
 4 C  dz2             0.0       0.1       0.0       0.3       0.4       0.0
 4 C  dyz             0.0       0.0       0.0       0.0       0.1       0.0
 5 O  s               0.0       4.4       1.4       0.1       3.1       1.3
 5 O  pz              0.0       0.2       1.1       0.8       1.2       1.1
 5 O  px             56.0       1.1       0.6       0.5       1.0       0.1
 5 O  py             15.6       3.3       3.5       0.2       0.9       0.6
 5 O  dz2             0.0       0.0       0.0       0.0       0.1       0.0
 6 H  s               0.4       1.2       0.3       7.4       0.9       4.7
 7 H  s               0.0       1.0      13.4       4.6       0.8       4.5
 8 H  s               0.4       1.6       3.2      16.7       0.2       7.7
 9 H  s               0.1       7.8       2.1       7.9       4.9      13.1
10 H  s               0.7       6.2       8.5       2.7       3.1      10.9
11 H  s               0.0       5.8       4.0       0.2      11.4       0.4
12 H  s               0.4       1.6       0.2       3.9      16.3       2.7
13 H  s               0.9       5.5       2.3      13.9       0.9       1.5
14 H  s               0.4       1.8       2.7       0.2      11.2       3.6
15 H  s               0.3       0.9       4.6       2.7       1.7       8.9
16 H  s               0.0       6.4       7.7       3.7       2.3       0.7
17 H  s               0.0      26.5      18.3       0.1       8.3       8.8

                     30        31        32        33        34        35   
                   0.10325   0.11494   0.12400   0.13677   0.14836   0.15000
                   0.00000   0.00000   0.00000   0.00000   0.00000   0.00000
                  --------  --------  --------  --------  --------  --------
 0 C  s               0.1       3.9       0.0       0.1       0.1       3.9
 0 C  pz              0.2       2.9       1.5      10.4       0.5       3.2
 0 C  px              0.8       1.3       3.6       5.9       2.8       2.4
 0 C  py              0.6       0.2       5.9       0.4       0.0       0.5
 0 C  dz2             0.0       0.1       0.1       1.4       0.0       0.1
 0 C  dxz             0.0       0.1       0.0       0.1       0.0       0.5
 0 C  dyz             0.0       0.0       0.9       0.0       0.0       0.0
 0 C  dx2y2           0.0       0.0       0.3       0.1       0.0       0.3
 0 C  dxy             0.0       0.0       0.1       0.0       0.0       0.2
 1 C  s               1.2       0.2       3.5       1.6       0.7       5.3
 1 C  pz              0.4       0.1       3.2       0.9       0.2       1.0
 1 C  px              0.7       0.8       0.1       0.3       0.8       0.5
 1 C  py              0.0       0.7       0.0       2.2       0.6       1.2
 1 C  dz2             0.1       0.0       0.2       0.4       0.0       0.1
 1 C  dxz             0.1       0.3       0.2       0.0       0.0       0.0
 1 C  dyz             0.0       0.0       0.0       0.9       0.0       0.1
 1 C  dx2y2           0.0       0.0       0.2       0.1       0.2       0.1
 1 C  dxy             0.0       0.2       0.3       0.0       0.2       0.4
 2 C  s               0.1       0.2       0.1       0.4       0.0       0.2
 2 C  pz              0.9       0.3       1.1       0.8       0.0       0.3
 2 C  px              1.2       0.2       0.3       0.3       0.9       0.7
 2 C  py              0.3       2.0       0.2       0.6       0.1       0.1
 2 C  dz2             0.1       0.0       0.3       0.1       0.0       0.2
 2 C  dxz             0.0       0.0       0.1       0.1       0.1       0.2
 2 C  dyz             0.0       0.3       0.0       0.2       0.6       0.0
 2 C  dx2y2           1.7       0.0       0.0       0.1       0.2       0.0
 2 C  dxy             0.0       0.6       0.2       0.0       0.4       0.3
 3 C  s               2.9       7.0       0.0       0.2       0.3       1.0
 3 C  pz              0.4       0.5       5.8       0.6       7.1       0.7
 3 C  px             10.6       2.0       0.3       0.2       1.1       0.6
 3 C  py              1.4       0.7       0.2       1.1       0.4       2.4
 3 C  dz2             0.1       0.0       0.4       0.0       0.6       0.2
 3 C  dxz             0.2       0.0       0.1       0.0       0.1       0.1
 3 C  dx2y2           0.7       0.0       0.1       0.0       0.1       0.1
 3 C  dxy             0.0       0.2       0.1       0.3       0.0       0.1
 4 C  s               0.0       8.2       3.6       0.0       0.0       0.7
 4 C  pz              0.2       2.1       0.2       2.1      12.0       1.4
 4 C  px              8.2       0.5       0.4       0.0       2.8       2.6
 4 C  py              1.3       1.0       0.5       0.3       0.1       7.9
 4 C  dz2             0.0       0.0       0.1       0.0       0.9       0.0
 4 C  dxz             0.1       0.0       0.1       0.1       0.0       0.2
 4 C  dyz             0.2       0.1       0.0       0.0       0.1       0.6
 4 C  dx2y2           0.9       0.0       0.0       0.0       0.3       0.1
 4 C  dxy             0.0       0.1       0.0       0.1       0.0       0.1
 5 O  s               0.6       0.1       0.1       0.6       0.0       0.0
 5 O  pz              0.0       0.2       0.5       0.1       0.0       0.6
 5 O  px              0.1       0.1       0.2       0.0       0.2       0.5
 5 O  py              0.1       0.0       0.2       1.1       0.5       0.2
 6 H  s               0.2      11.8       0.9      26.1       0.6       0.4
 7 H  s               1.5       0.0      16.2       0.2       0.7      13.2
 8 H  s               1.6       5.7       8.3      16.2       4.7       1.1
 9 H  s               0.2       4.0       0.9      10.7       0.4       0.5
10 H  s               0.2       0.0      13.1       1.0       1.6       7.5
11 H  s              22.4       0.5       0.4       0.7       1.0       4.8
12 H  s               8.4      10.3       4.3       0.7       9.6       0.9
13 H  s               2.2       9.2      11.2       1.1       9.5       2.4
14 H  s              14.3       6.1       2.3       0.1      10.2       2.9
15 H  s              10.3       0.4       2.6       2.2       2.3      23.9
16 H  s               0.4      14.0       4.0       2.9      23.6       0.3
17 H  s               1.5       0.3       0.7       3.5       0.6       0.3

                     36        37        38        39        40        41   
                   0.15608   0.18131   0.20187   0.20679   0.21212   0.22397
                   0.00000   0.00000   0.00000   0.00000   0.00000   0.00000
                  --------  --------  --------  --------  --------  --------
 0 C  s               0.3       0.1       0.8       0.1       0.2       0.7
 0 C  pz              4.2       0.1       0.9       1.5       1.0       1.4
 0 C  px              0.0       1.0       3.3       2.4       2.0       2.8
 0 C  py              2.2       2.0       5.6       4.6       2.9       7.8
 0 C  dz2             0.1       0.0       0.4       0.2       0.3       0.3
 0 C  dxz             0.4       0.1       0.0       0.2       0.3       0.3
 0 C  dyz             0.1       0.1       0.3       0.5       0.1       0.7
 0 C  dx2y2           0.0       0.5       0.2       0.0       0.0       0.8
 0 C  dxy             0.3       0.0       1.4       0.6       2.0       0.7
 1 C  s               0.0       0.3       1.4       0.1       5.9       0.4
 1 C  pz              5.7       0.5       0.6       0.3       7.3       0.7
 1 C  px              1.4       6.5       1.8       1.4      14.9       6.2
 1 C  py              0.9       0.3       3.7       7.3       3.4       6.9
 1 C  dz2             0.2       0.1       0.0       0.6       1.4       0.0
 1 C  dxz             0.9       0.1       0.1       1.3       2.3       0.0
 1 C  dyz             0.0       0.0       0.0       0.4       0.6       1.3
 1 C  dx2y2           0.0       1.9       0.2       0.1       1.9       1.0
 1 C  dxy             0.0       0.3       1.3       0.2       0.2       0.2
 2 C  s               0.2      21.5       3.1       6.2       3.4       1.8
 2 C  pz              2.3       7.3       0.2      16.8       0.2       8.2
 2 C  px              0.4       0.7       2.1       0.1      21.6       4.8
 2 C  py              0.2       2.2      16.2       1.4       0.4       8.7
 2 C  dz2             0.5       0.8       0.0       3.1       0.0       1.4
 2 C  dxz             0.5       0.0       0.1       0.2       0.5       0.3
 2 C  dyz             0.0       0.1       0.6       0.2       0.1       0.3
 2 C  dx2y2           0.0       0.0       0.1       0.0       2.7       0.2
 2 C  dxy             0.1       0.4       1.9       0.0       0.1       0.4
 3 C  s               0.2       0.7       1.1       0.2       0.4       0.5
 3 C  pz              2.7       0.0       3.2       1.8       0.5       0.2
 3 C  px              2.6       0.6       7.1       1.9       0.3       3.9
 3 C  py              4.5       6.3      15.1       0.6       1.7       0.6
 3 C  dz2             0.1       0.2       0.5       0.0       0.0       0.1
 3 C  dxz             0.1       0.1       0.9       0.5       0.3       0.6
 3 C  dyz             0.0       0.1       2.1       1.3       0.5       0.3
 3 C  dx2y2           0.0       1.2       0.6       0.0       0.6       0.1
 3 C  dxy             0.5       1.4       2.2       0.0       0.1       0.5
 4 C  s               0.2       2.5       0.1       0.0       0.2       0.8
 4 C  pz              0.1       1.0       0.7       0.2       0.9       2.8
 4 C  px              3.3       6.2       4.2       0.2       0.0       1.9
 4 C  py              0.7      14.8       0.4       1.5       0.8       7.7
 4 C  dz2             0.0       0.7       0.0       0.2       0.1       0.1
 4 C  dxz             0.0       0.2       0.7       0.1       0.4       1.0
 4 C  dyz             0.0       0.6       0.0       0.2       0.2       2.7
 4 C  dx2y2           0.0       0.7       0.0       0.0       0.7       0.1
 4 C  dxy             0.0       4.4       0.3       0.2       0.0       0.5
 5 O  s               0.2       0.2       0.3       2.2       0.1       1.2
 5 O  pz              1.2       0.1       0.4      13.0       0.5       4.0
 5 O  px              0.3       0.0       0.0       0.1       0.9       0.2
 5 O  py              0.8       0.1       0.6       0.0       0.0       0.9
 5 O  dz2             0.1       0.0       0.1       0.9       0.1       0.5
 5 O  dxz             0.0       0.0       0.0       0.0       0.4       0.1
 5 O  dyz             0.0       0.0       0.3       0.1       0.0       0.1
 5 O  dx2y2           0.0       0.0       0.0       0.0       0.2       0.0
 5 O  dxy             0.0       0.0       0.1       0.0       0.0       0.1
 6 H  s               7.6       0.3       1.1       1.8       2.4       1.2
 7 H  s               4.9       1.7       0.4       0.5       1.9       1.3
 8 H  s               0.0       1.4       1.1       1.3       0.2       1.6
 9 H  s               8.4       0.2       0.2       6.7       1.7       0.2
10 H  s               8.9       2.7       0.0       1.6       2.4       0.5
11 H  s              13.6       0.3       1.2       0.2       2.0       0.1
12 H  s               2.0       0.7       2.9       4.5       1.0       0.3
13 H  s               6.8       0.7       0.5       2.1       0.1       0.3
14 H  s               6.9       0.5       4.8       0.5       1.0       0.5
15 H  s               0.9       0.5       0.2       3.1       0.2       1.5
16 H  s               0.2       0.6       0.2       0.9       1.3       1.3
17 H  s               0.9       1.0       0.2       1.6       0.1       1.1

                     42        43        44        45        46        47   
                   0.37083   0.37298   0.41523   0.42685   0.44912   0.47910
                   0.00000   0.00000   0.00000   0.00000   0.00000   0.00000
                  --------  --------  --------  --------  --------  --------
 0 C  s               0.5       1.2       0.3       0.7       0.2       0.2
 0 C  pz              2.0       1.1      17.0       1.6       3.3       7.1
 0 C  px              8.0       2.4       0.0       5.0       0.7       4.5
 0 C  py              0.6      13.5       9.4       2.1       1.0       6.6
 0 C  dz2             0.0       0.4       2.5       1.3       0.9       3.7
 0 C  dxz             0.3       0.1       0.6       0.0       0.1       0.3
 0 C  dyz             0.5       0.9       2.9       0.1       0.0       0.1
 0 C  dx2y2           2.2       0.2       0.4       0.3       0.2       0.4
 0 C  dxy             0.1       1.2       1.3       0.0       0.1       0.0
 1 C  s               0.5       0.6       0.4       0.0       2.9       1.8
 1 C  pz              0.7       1.5       3.0       1.3       0.2       1.6
 1 C  px              0.6       3.4       0.8       0.3      16.0       6.4
 1 C  py              4.8       7.4       0.7       2.5       0.3       4.0
 1 C  dz2             0.4       0.7       2.1       0.1       0.1       0.0
 1 C  dxz             0.0       0.0       0.2       0.1       0.1       0.0
 1 C  dyz             0.9       0.4       0.3       0.6       0.0       2.2
 1 C  dx2y2           0.3       0.1       0.7       0.0       0.3       0.0
 1 C  dxy             2.0       0.9       0.0       0.2       0.0       0.0
 2 C  s               0.7       0.1       0.2       0.3       3.3       1.2
 2 C  pz              0.1       0.1       0.3       0.7       3.8       2.2
 2 C  px              0.1       0.3       0.9       0.6       1.1       1.8
 2 C  py              0.5       0.3       0.3       3.9       0.5       4.9
 2 C  dz2             0.0       0.0       0.0       0.0       0.3       0.0
 2 C  dxz             0.0       0.1       0.1       0.0       0.7       0.1
 2 C  dyz             0.0       0.0       0.1       1.9       0.2       0.2
 2 C  dx2y2           0.5       0.6       0.3       0.0       0.7       0.1
 2 C  dxy             1.0       0.7       0.2       1.2       0.0       0.0
 3 C  s               0.9       0.0       1.4       0.9       0.9       1.5
 3 C  pz              2.6       0.1       0.2      15.5       2.9      12.5
 3 C  px              0.4      12.5       0.2       1.3       0.4       1.1
 3 C  py              8.4       2.7       6.2       1.0       1.5       1.8
 3 C  dz2             1.1       0.0       0.1       4.6       1.0       2.1
 3 C  dxz             0.0       1.7       0.1       0.0       0.0       0.4
 3 C  dyz             0.1       0.4       0.0       0.2       0.0       0.0
 3 C  dx2y2           0.1       1.9       0.0       0.2       0.2       1.2
 3 C  dxy             0.6       1.1       0.2       0.0       0.1       0.4
 4 C  s               0.2       1.2       0.2       2.2       0.0       1.3
 4 C  pz              0.2       3.7       3.3       1.3      15.0       1.9
 4 C  px             12.9       0.8       0.7       2.4       0.9       0.8
 4 C  py              2.1       5.0       0.9      11.6       0.0       0.5
 4 C  dz2             0.3       1.0       0.6       0.7       4.8       0.1
 4 C  dxz             1.0       0.4       0.6       0.1       0.1       0.3
 4 C  dyz             0.4       0.3       0.0       0.0       0.1       0.1
 4 C  dx2y2           2.6       0.3       0.4       0.1       0.3       0.0
 4 C  dxy             0.0       0.3       0.2       0.2       0.1       0.0
 5 O  s               0.0       0.0       0.3       0.8       0.1       0.2
 5 O  pz              0.1       0.1       0.1       0.7       1.5       0.1
 5 O  px              0.1       0.2       0.3       0.8       1.9       0.7
 5 O  py              0.0       0.2       1.5       1.0       0.4       0.2
 5 O  dz2             0.0       0.0       0.0       0.0       0.8       0.1
 5 O  dxz             0.0       0.0       0.0       0.1       0.2       0.0
 5 O  dyz             0.0       0.0       0.0       0.6       0.1       0.1
 5 O  dx2y2           0.0       0.0       0.0       0.1       0.1       0.0
 5 O  dxy             0.0       0.1       0.0       0.3       0.3       0.4
 6 H  s               0.7       0.6       9.3       1.4       2.1       5.4
 7 H  s               3.4       1.7      13.9       0.5       0.4       0.2
 8 H  s               5.0       0.5       0.1       2.4       1.6       3.2
 9 H  s               8.8       0.6       1.8       0.0       0.4       0.9
10 H  s               1.4       1.3       6.4       0.1       1.1       0.2
11 H  s               3.3       7.5       0.8       1.0       0.0       0.3
12 H  s               0.7       8.1       0.0       0.1       1.8       4.3
13 H  s               1.7       0.0       0.0      12.1       2.2       4.6
14 H  s               9.2       0.3       0.5       0.1       3.4       0.0
15 H  s               4.2       3.6       2.3       0.7       0.8       1.2
16 H  s               0.1       2.4       1.7       2.8      10.8       0.4
17 H  s               0.0       1.0       0.7       7.0       4.4       2.0

                     48        49        50        51        52        53   
                   0.48614   0.53168   0.55429   0.57333   0.59186   0.60598
                   0.00000   0.00000   0.00000   0.00000   0.00000   0.00000
                  --------  --------  --------  --------  --------  --------
 0 C  s               0.5       4.3       0.0       3.1       5.0       3.9
 0 C  pz              2.6       0.7       1.6       7.2       0.1       0.2
 0 C  px              0.7       7.6       0.1       1.4       1.2       1.3
 0 C  py              0.3      17.3       0.3       0.6       1.7       0.7
 0 C  dz2             0.0       0.0       0.1       0.1       0.0       0.6
 0 C  dxz             1.1       0.0       0.2       1.0       0.1       0.0
 0 C  dyz             0.0       0.0       0.0       0.0       0.1       0.5
 0 C  dx2y2           0.6       0.3       0.0       0.9       0.0       0.3
 0 C  dxy             0.2       0.0       0.1       0.0       0.1       0.1
 1 C  s               0.1       3.9       2.8       0.7       5.7       7.7
 1 C  pz              3.7       2.2       0.2       7.7       1.5       0.8
 1 C  px              0.1       2.6       5.1       4.0       0.1       1.7
 1 C  py              0.2       3.9       2.1       3.5       0.6       4.2
 1 C  dz2             3.0       0.0       0.1       0.4       0.0       0.1
 1 C  dxz             0.3       0.7       0.2       0.0       0.2       0.0
 1 C  dyz             0.0       0.0       0.1       0.2       0.0       0.0
 1 C  dx2y2           0.4       1.1       0.0       0.0       0.0       0.1
 1 C  dxy             0.1       0.3       0.3       0.4       0.0       0.1
 2 C  s               6.8       0.9       0.8       0.3       0.3       0.7
 2 C  pz              9.2       4.5      20.4       1.9       6.9       2.9
 2 C  px              5.1       4.0       0.1       0.3      22.6       0.9
 2 C  py              0.4       3.4       5.0       3.1       0.1       2.9
 2 C  dz2             0.6       0.1       0.0       0.3       0.0       0.0
 2 C  dxz             1.1       0.2       0.0       0.2       0.1       0.0
 2 C  dyz             0.0       0.1       0.2       0.0       0.0       0.1
 2 C  dx2y2           0.8       0.9       0.0       0.0       0.3       0.0
 2 C  dxy             0.3       0.0       0.5       0.0       0.1       0.6
 3 C  s               1.5       0.9       4.9       1.2       0.8       8.2
 3 C  pz              3.0       1.9       0.2       4.5       4.4       1.2
 3 C  px              4.6       7.9       0.7       3.6       3.0       0.2
 3 C  py              2.8       0.4      11.2       3.7       1.5       6.8
 3 C  dz2             0.2       0.0       0.2       0.3       0.1       0.9
 3 C  dxz             0.3       1.2       0.5       0.4       0.1       0.2
 3 C  dyz             0.1       1.2       0.0       0.1       0.3       0.4
 3 C  dx2y2           0.4       0.1       0.3       0.0       1.0       0.1
 3 C  dxy             0.2       0.1       0.4       0.1       2.0       0.9
 4 C  s               3.7       0.2       6.0       0.7       1.8       7.2
 4 C  pz              3.4       5.2       0.4       7.7       1.6       0.8
 4 C  px              9.1       2.3       4.7       1.7       1.1       1.2
 4 C  py              6.7       3.2       2.5       1.9       0.4       4.3
 4 C  dz2             0.1       0.4       0.3       1.6       0.1       0.0
 4 C  dxz             0.9       0.0       0.1       0.0       0.3       1.0
[...]
 4 C  px              0.0       0.1       0.1       0.0       0.5       0.1
 4 C  py              0.3       0.1       0.3       0.0       0.7       0.5
 4 C  dz2            13.3       4.6       1.5       0.6       2.3       0.3
 4 C  dxz             0.0       0.1       1.9       0.9       1.2       0.4
 4 C  dyz             0.0       0.3       2.1       5.2       1.4       1.3
 4 C  dx2y2           1.8       2.9      16.0       6.9       0.0       0.1
 4 C  dxy             2.9       0.4       0.0       2.3       5.5       2.3
 5 O  s               0.1       0.5       0.5       0.2       0.1       0.0
 5 O  pz              0.1       0.2       0.8       0.5       0.0       0.0
 5 O  py              0.0       0.1       0.0       0.1       0.0       0.0
 5 O  dz2             0.6       0.4       4.8       1.3       0.4       0.0
 5 O  dxz             0.0       0.4       2.9       3.6       4.9       1.5
 5 O  dyz             0.8       4.3       0.2       0.5       3.2       1.8
 5 O  dx2y2           0.1       1.0       1.9       0.9       6.1      37.9
 5 O  dxy             0.1       0.1       0.5       1.5       0.0      29.5
 6 H  s               0.5       0.6       0.1       0.2       0.1       0.1
 7 H  s               2.1       1.3       0.3       0.1       0.2       0.0
 8 H  s               1.2       0.9       0.0       0.0       0.1       0.0
 9 H  s               1.1       0.2       0.4       0.0       0.9       0.2
10 H  s               0.2       1.2       0.0       1.1       0.4       0.0
11 H  s               0.1       0.1       0.3       1.0       0.0       0.0
12 H  s               0.6       0.3       0.5       0.1       0.1       0.0
13 H  s               0.0       0.7       0.5       0.0       0.0       0.1
14 H  s               0.7       0.6       0.8       0.2       0.0       0.1
15 H  s               0.1       0.2       0.3       1.0       0.1       0.2
16 H  s               1.3       0.5       0.2       0.0       0.2       0.0
17 H  s               0.0       0.1       0.0       0.2       0.0       0.0

                    102       103       104       105       106       107   
                   2.60393   2.63896   2.81135   2.90159   2.95315   3.30401
                   0.00000   0.00000   0.00000   0.00000   0.00000   0.00000
                  --------  --------  --------  --------  --------  --------
 0 C  s               0.5       1.1       0.0       0.0       0.0       0.0
 0 C  pz              0.1       0.1       0.0       0.0       0.0       0.0
 0 C  px              0.5       0.6       0.0       0.0       0.0       0.0
 0 C  py              0.8       0.7       0.0       0.0       0.0       0.0
 0 C  dz2             0.2       1.9       0.0       0.0       0.0       0.0
 0 C  dxz             1.1       0.4       0.0       0.0       0.0       0.0
 0 C  dyz             2.6       0.0       0.0       0.0       0.1       0.0
 0 C  dx2y2           3.8       0.0       0.0       0.0       0.1       0.0
 0 C  dxy             2.7       5.4       0.0       0.0       0.0       0.0
 1 C  s               0.2       0.1       0.0       0.0       0.0       0.0
 1 C  pz              0.0       0.2       0.0       0.1       0.1       0.0
 1 C  px              1.3       2.3       0.1       0.2       0.0       0.0
 1 C  py              0.3       0.8       0.1       0.0       0.0       0.0
 1 C  dz2             0.6       0.1       0.3       1.8       0.2       0.0
 1 C  dxz             2.4       6.4       0.0       0.2       0.3       0.2
 1 C  dyz             0.0       2.4       0.4       0.1       0.0       0.0
 1 C  dx2y2           2.7      13.3       0.6       1.4       0.0       0.0
 1 C  dxy            14.4       0.4       0.0       0.0       0.8       0.0
 2 C  s               0.0       0.0       0.0       0.0       0.0       1.5
 2 C  pz              0.0       0.0       0.0       0.0       0.1       4.0
 2 C  px              0.6       2.0       0.2       0.7       0.0       0.0
 2 C  py              1.2       1.1       0.7       0.2       0.3       0.0
 2 C  dz2             0.0       0.0       0.3       0.0       0.2      13.5
 2 C  dxz             0.1       0.9       3.4      15.3       0.7       0.1
 2 C  dyz             0.5       0.9      11.9       3.4       4.2       0.1
 2 C  dx2y2           1.6      22.9       0.6       0.3       0.3       0.0
 2 C  dxy            26.7       4.8       1.1       0.1       1.3       0.0
 3 C  s               0.2       0.9       0.0       0.0       0.0       0.1
 3 C  pz              0.1       0.1       0.0       0.0       0.0       0.0
 3 C  px              0.0       0.5       0.0       0.1       0.0       0.0
 3 C  py              0.6       1.1       0.1       0.1       0.0       0.0
 3 C  dz2             0.0       0.1       0.5       1.3       0.4       0.0
 3 C  dxz             0.1       1.2       0.3       0.0       0.1       0.0
 3 C  dyz             2.1       1.8       0.1       0.2       0.2       0.1
 3 C  dx2y2           3.7       0.5       0.3       0.5       0.2       0.0
 3 C  dxy             0.3       6.2       0.4       0.5       0.2       0.0
 4 C  s               0.9       0.0       0.0       0.0       0.0       0.1
 4 C  pz              0.1       0.0       0.0       0.0       0.1       0.1
 4 C  px              0.7       0.1       0.1       0.1       0.0       0.0
 4 C  py              1.2       0.0       0.2       0.0       0.0       0.1
 4 C  dz2             0.0       0.0       1.5       0.0       0.5       0.0
 4 C  dxz             0.9       0.2       0.0       0.2       0.1       0.1
 4 C  dyz             3.4       0.2       0.0       0.2       0.3       0.1
 4 C  dx2y2           2.6       1.0       0.3       0.1       0.0       0.0
 4 C  dxy             4.9       0.2       1.8       0.0       0.0       0.1
 5 O  s               0.0       0.1       0.5       0.0       2.2       4.7
 5 O  pz              0.0       0.0       0.0       0.0       0.0       4.7
 5 O  px              0.0       0.0       0.5       0.8       0.3       0.1
 5 O  py              0.0       0.0       2.0       0.3       0.5       0.3
 5 O  dz2             0.0       0.0       0.0       0.1       0.7      67.1
 5 O  dxz             0.1       1.2       6.2      57.9       5.6       0.7
 5 O  dyz             0.0       1.0      21.4      12.3      38.2       0.7
 5 O  dx2y2          11.6       9.0      13.3       0.9      11.1       0.2
 5 O  dxy             0.2       4.9      29.3       0.0      23.7       0.3
 8 H  s               0.3       0.0       0.0       0.0       0.0       0.0
11 H  s               0.0       0.2       0.0       0.0       0.0       0.0
12 H  s               0.1       0.1       0.0       0.0       0.0       0.0
14 H  s               0.3       0.0       0.0       0.0       0.0       0.0
17 H  s               0.2       0.0       1.4       0.0       6.4       0.9



                      *****************************
                      * MAYER POPULATION ANALYSIS *
                      *****************************

  NA   - Mulliken gross atomic population
  ZA   - Total nuclear charge
  QA   - Mulliken gross atomic charge
  VA   - Mayer's total valence
  BVA  - Mayer's bonded valence
  FA   - Mayer's free valence

  ATOM       NA         ZA         QA         VA         BVA        FA
  0 C      6.2595     6.0000    -0.2595     4.0062     4.0062     0.0000
  1 C      6.1479     6.0000    -0.1479     4.0271     4.0271    -0.0000
  2 C      6.0597     6.0000    -0.0597     4.3407     4.3407    -0.0000
  3 C      6.2122     6.0000    -0.2122     3.9037     3.9037     0.0000
  4 C      6.2210     6.0000    -0.2210     3.8889     3.8889     0.0000
  5 O      8.4205     8.0000    -0.4205     1.9754     1.9754     0.0000
  6 H      0.8973     1.0000     0.1027     0.9853     0.9853    -0.0000
  7 H      0.8986     1.0000     0.1014     0.9600     0.9600     0.0000
  8 H      0.9017     1.0000     0.0983     0.9490     0.9490     0.0000
  9 H      0.9362     1.0000     0.0638     0.9623     0.9623    -0.0000
 10 H      0.9220     1.0000     0.0780     0.9541     0.9541    -0.0000
 11 H      0.9170     1.0000     0.0830     0.9691     0.9691     0.0000
 12 H      0.8960     1.0000     0.1040     0.9684     0.9684     0.0000
 13 H      0.9071     1.0000     0.0929     0.9647     0.9647     0.0000
 14 H      0.8999     1.0000     0.1001     0.9684     0.9684     0.0000
 15 H      0.8886     1.0000     0.1114     0.9741     0.9741    -0.0000
 16 H      0.9058     1.0000     0.0942     0.9616     0.9616     0.0000
 17 H      0.7089     1.0000     0.2911     0.8913     0.8913     0.0000

  Mayer bond orders larger than 0.100000
B(  0-C ,  1-C ) :   1.1596 B(  0-C ,  6-H ) :   0.9416 B(  0-C ,  7-H ) :   0.9490 
B(  0-C ,  8-H ) :   0.9506 B(  1-C ,  2-C ) :   1.0397 B(  1-C ,  9-H ) :   0.9144 
B(  1-C , 10-H ) :   0.9146 B(  2-C ,  3-C ) :   1.0898 B(  2-C ,  4-C ) :   1.0779 
B(  2-C ,  5-O ) :   1.0151 B(  3-C , 11-H ) :   0.9396 B(  3-C , 12-H ) :   0.9422 
B(  3-C , 13-H ) :   0.9392 B(  4-C , 14-H ) :   0.9434 B(  4-C , 15-H ) :   0.9368 
B(  4-C , 16-H ) :   0.9473 B(  5-O , 17-H ) :   0.8538 

-------
TIMINGS
-------

Total SCF time: 0 days 0 hours 0 min 5 sec 

Total time                  ....       5.018 sec
Sum of individual times     ....       4.635 sec  ( 92.4%)

SCF preparation             ....       0.182 sec  (  3.6%)
Fock matrix formation       ....       3.888 sec  ( 77.5%)
  Startup                   ....       0.049 sec  (  1.3% of F)
  Split-RI-J                ....       1.176 sec  ( 30.3% of F)
  XC integration            ....       2.305 sec  ( 59.3% of F)
    XC Preparation          ....       0.000 sec  (  0.0% of XC)
    Basis function eval.    ....       0.718 sec  ( 31.1% of XC)
    Density eval.           ....       0.299 sec  ( 13.0% of XC)
    XC-Functional eval.     ....       0.195 sec  (  8.4% of XC)
    XC-Potential eval.      ....       0.466 sec  ( 20.2% of XC)
Diagonalization             ....       0.000 sec  (  0.0%)
Density matrix formation    ....       0.129 sec  (  2.6%)
Total Energy calculation    ....       0.025 sec  (  0.5%)
Population analysis         ....       0.051 sec  (  1.0%)
Orbital Transformation      ....       0.037 sec  (  0.7%)
Orbital Orthonormalization  ....       0.000 sec  (  0.0%)
DIIS solution               ....       0.267 sec  (  5.3%)
  MO trafo                  ....       0.000 sec  (  0.0 % of DIIS)
  Orb grad                  ....       0.000 sec  (  0.0 % of DIIS)
  Energy W gradient         ....       0.000 sec  (  0.0 % of DIIS)
  DIIS error                ....       0.002 sec  (  0.6 % of DIIS)
  DIIS work                 ....       0.233 sec  ( 87.2 % of DIIS)
  Form Q                    ....       0.000 sec  (  0.0 % of DIIS)
  Form QpQm                 ....       0.000 sec  (  0.0 % of DIIS)
  Exp/Cayley                ....       0.000 sec  (  0.0 % of DIIS)
  Orb update                ....       0.000 sec  (  0.0 % of DIIS)
  Wake-sleep                ....       0.013 sec  (  5.0 % of DIIS)
SOSCF solution              ....       0.055 sec  (  1.1%)
  MO trafo                  ....       0.031 sec  ( 56.7 % of SOSCF)
  Orb grad                  ....       0.001 sec  (  1.8 % of SOSCF)
  Rot update                ....       0.011 sec  ( 19.6 % of SOSCF)
  Step                      ....       0.012 sec  ( 21.8 % of SOSCF)
Finished LeanSCF after   5.1 sec

Maximum memory used throughout the entire LEANSCF-calculation: 10.7 MB


-------------------------------------------------------------------------------
                          DFT DISPERSION CORRECTION                            
                                                                               
                                DFTD4 V3.4.0                                   
-------------------------------------------------------------------------------
The PBE functional is recognized
Active option DFTDOPT                   ...         5   

-------------------------   ----------------
Dispersion correction           -0.013646287
-------------------------   ----------------

------------------   -----------------
gCP correction             0.082766618
------------------   -----------------

-------------------------   --------------------
FINAL SINGLE POINT ENERGY      -272.309121999342
-------------------------   --------------------


------------------------------------------------------------------------------
                              ORCA PROPERTY CALCULATIONS
------------------------------------------------------------------------------

GBWName                                 ... sp.gbw
Number of atoms                         ...     18
Number of basis functions               ...    108
Max core memory                         ...   1024 MB

Electric properties:
Dipole moment                           ... YES
Quadrupole moment                       ...  NO
Static polarizability (Dipole/Dipole)   ...  NO
Static polarizability (Dipole/Quad.)    ...  NO
Static polarizability (Quad./Quad.)     ...  NO
Static polarizability (Velocity)        ...  NO

Atomic electric properties:
Dipole moment                           ...  NO
Quadrupole moment                       ...  NO
Static polarizability                   ...  NO

Choice of electric origin               ... Center of mass
Position of electric origin             ...     0.000006    -0.000002     0.000020

General magnetic properties:
Magnetizability                         ...  NO

EPR properties:
g-Tensor (aka g-matrix)                 ...  NO
Zero-Field splitting spin-orbit         ...  NO
Zero-field splitting spin-spin          ...  NO
Hyperfine couplings                     ...  NO (   0 nuclei)
Quadrupole couplings                    ...  NO (   0 nuclei)
Contact density                         ...  NO (   0 nuclei)

NMR properties:
Chemical shifts                         ...  NO (   0 nuclei)
Spin-rotation constants                 ...  NO (   0 nuclei)
Spin-spin couplings                     ...  NO (   0 nuclei,    0 pairs)

Choice of magnetic origin               ... GIAO
Position of magnetic origin             ...     0.000000     0.000000     0.000000

Properties with geometric perturbations:
SCF Hessian                             ...  NO
IR spectrum                             ...  NO
VCD spectrum                            ...  NO
X-ray spectroscopy properties:
SCF XES/XAS/RIXS spectra                ...  NO


-------------
DIPOLE MOMENT
-------------

Method             : SCF
Type of density    : Electron Density
Multiplicity       :   1
Irrep              :   0
Energy             :  -272.3782423297446940 Eh
Relativity type    : 
Basis              : AO
                                X                 Y                 Z
Electronic contribution:     -1.003447161       0.740120724      -3.025193104
Nuclear contribution   :      1.218185016      -0.306857820       3.274105258
                        -----------------------------------------
Total Dipole Moment    :      0.214737855       0.433262904       0.248912154
                        -----------------------------------------
Magnitude (a.u.)       :      0.543862438
Magnitude (Debye)      :      1.382388457



--------------------
Rotational spectrum 
--------------------
 
Rotational constants in cm-1:             0.151186             0.087315             0.085317 
Rotational constants in MHz :          4532.456609          2617.650996          2557.742526 

Dipole components along the rotational axes: 
x,y,z [a.u.] :     0.028807     0.495433     0.222491 
x,y,z [Debye]:     0.073222     1.259291     0.565528 

 

Dipole moment calculation done in   0.0 sec 

Maximum memory used throughout the entire PROP-calculation: 6.8 MB

--------------------------------
SUGGESTED CITATIONS FOR THIS RUN
--------------------------------

Below you find a list of papers that are relevant to this ORCA run
We neither can nor want to force you to cite these papers, but we appreciate if you do
You receive ORCA, which is the product of decades of hard work by many enthusiastic individuals, for free
The only thing we kindly ask in return is that you cite our papers,
We deeply appreciate it, if you show your appreciation for ORCA by not just citing the generic ORCA reference.

Please note that relegating all ORCA citations to the supporting information does *not* help us.
SI sections are not indexed - citations you put there will not count into any citation statistics
But we need these citations in order to attract the funding resources that allow us to do what we are doing

Therefore, if you are a happy ORCA user, please consider citing a few of the papers listed below in the main body of your paper

In addition to the list printed below, the program has created the file sp.bibtex that contains the list in bibtex format
You can import this file easily into all common literature databanks and citation aid programs


List of essential papers. We consider these as the minimum necessary citations

  1. Neese,F.
     Software update: the ORCA program system, version 5.0
     WIRES Comput. Molec. Sci., 2022 12(1)e1606
     doi.org/10.1002/wcms.1606

List of papers to cite with high priority. The work reported in these papers was absolutely
necessary for this run to complete.
Our perspective: the developers of density functionals and basis sets usually get cited in chemistry papers
Good! But without the algorithms to do something with them, the functionals or basis sets would not do anything.
Hence, in our opinion, the algorithm design and method developments papers are equally worthy of getting cited

  1. Neese,F.
     An improvement of the resolution of the identity approximation for the formation of the Coulomb matrix
     J. Comp. Chem., 2003 24(14)1740-1747
     doi.org/10.1002/jcc.10318
  2. Neese,F.
     The SHARK Integral Generation and Digestion System
     J. Comp. Chem., 2022  1-16
     doi.org/10.1002/jcc.26942
  3. Caldeweyher,E.; Bannwarth,C.; Grimme,S.
     Extension of the D3 dispersion coefficient model
     J. Chem. Phys., 2017 147 034112-XXXX
     doi.org/10.1063/1.4993215
  4. Caldeweyher,E.; Ehlert,S.; Hansen,A.; Neugebauer,H.; Spicher,S.; Bannwarth,C.; Grimme,S.
     A generally applicable atomic-charge dependent London dispersion correction
     J. Chem. Phys., 2019 150 154122-XXXX
     doi.org/10.1063/1.5090222
  5. Caldeweyher,E.; Mewes,J.; Ehlert,S.; Grimme,S.
     Extension and evaluation of the D4 London-dispersion model for periodic systems
     Phys. Chem. Chem. Phys., 2020 22(16)8499-8512
     doi.org/10.1039/D0CP00502A

List of suggested additional citations. These are papers that are important in the 'surrounding' of 
of this run, or papers that preceded the highly important papers. If you like your results we are grateful for a citation.

  1. Neese,F.
     The ORCA program system
     WIRES Comput. Molec. Sci., 2012 2(1)73-78
     doi.org/10.1002/wcms.81
  2. Neese,F.
     Software update: the ORCA program system, version 4.0
     WIRES Comput. Molec. Sci., 2018 8(1)1-6
     doi.org/10.1002/wcms.1327
  3. Neese,F.; Wennmohs,F.; Becker,U.; Riplinger,C.
     The ORCA quantum chemistry program package
     J. Chem. Phys., 2020 152 Art. No. L224108
     doi.org/10.1063/5.0004608

List of optional additional citations

  1. Neese,F.
     Approximate second-order SCF convergence for spin unrestricted wavefunctions
     Chem. Phys. Lett., 2000 325(1-3)93-98
     doi.org/10.1016/s0009-2614(00)00662-x

Timings for individual modules:

Sum of individual times          ...        6.331 sec (=   0.106 min)
Startup calculation              ...        0.581 sec (=   0.010 min)   9.2 %
SCF iterations                   ...        5.657 sec (=   0.094 min)  89.4 %
Property calculations            ...        0.093 sec (=   0.002 min)   1.5 %
                             ****ORCA TERMINATED NORMALLY****
TOTAL RUN TIME: 0 days 0 hours 0 minutes 6 seconds 946 msec
