      -----------------------------------------------------------      
     |                   =====================                   |     
     |                           x T B                           |     
     |                   =====================                   |     
     |                         S. Grimme                         |     
     |          Mulliken Center for Theoretical Chemistry        |     
     |                    University of Bonn                     |     
      -----------------------------------------------------------      

   * xtb version 6.7.1 (edcfbbe) compiled by 'albert@albert-system' on 2024-07-22

   xtb is free software: you can redistribute it and/or modify it under
   the terms of the GNU Lesser General Public License as published by
   the Free Software Foundation, either version 3 of the License, or
   (at your option) any later version.
   
   xtb is distributed in the hope that it will be useful,
   but WITHOUT ANY WARRANTY; without even the implied warranty of
   MERCHANTABILITY or FITNESS FOR A PARTICULAR PURPOSE.  See the
   GNU Lesser General Public License for more details.
   
   Cite this work as:
   * C. Bannwarth, E. Caldeweyher, S. Ehlert, A. Hansen, P. Pracht,
     J. Seibert, S. Spicher, S. Grimme, WIREs Comput. Mol. Sci., 2020, 11,
     e01493. DOI: 10.1002/wcms.1493
   
   for GFN2-xTB:
   * C. Bannwarth, S. Ehlert and S. Grimme., J. Chem. Theory Comput., 2019,
     15, 1652-1671. DOI: 10.1021/acs.jctc.8b01176
   for GFN1-xTB:
   * S. Grimme, C. Bannwarth, P. Shushkov, J. Chem. Theory Comput., 2017,
     13, 1989-2009. DOI: 10.1021/acs.jctc.7b00118
   for GFN0-xTB:
   * P. Pracht, E. Caldeweyher, S. Ehlert, S. Grimme, ChemRxiv, 2019, preprint.
     DOI: 10.26434/chemrxiv.8326202.v1
   for GFN-FF:
   * S. Spicher and S. Grimme, Angew. Chem. Int. Ed., 2020, 59, 15665-15673.
     DOI: 10.1002/anie.202004239
   
   for ALPB and GBSA implicit solvation:
   * S. Ehlert, M. Stahn, S. Spicher, S. Grimme, J. Chem. Theory Comput.,
     2021, 17, 4250-4261. DOI: 10.1021/acs.jctc.1c00471
   
   for ddCOSMO and CPCM-X implicit solvation:
   * M. Stahn, S. Ehlert, S. Grimme, J. Phys. Chem. A,
     2023, XX, XXXX-XXXX. DOI: 10.1021/acs.jpca.3c04382
   
   for DFT-D4:
   * E. Caldeweyher, C. Bannwarth and S. Grimme, J. Chem. Phys., 2017,
     147, 034112. DOI: 10.1063/1.4993215
   * E. Caldeweyher, S. Ehlert, A. Hansen, H. Neugebauer, S. Spicher,
     C. Bannwarth and S. Grimme, J. Chem. Phys., 2019, 150, 154122.
     DOI: 10.1063/1.5090222
   * E. Caldeweyher, J.-M. Mewes, S. Ehlert and S. Grimme, Phys. Chem. Chem. Phys.
     2020, 22, 8499-8512. DOI: 10.1039/D0CP00502A
   
   for sTDA-xTB:
   * S. Grimme and C. Bannwarth, J. Chem. Phys., 2016, 145, 054103.
     DOI: 10.1063/1.4959605
   
   in the mass-spec context:
   * V. Asgeirsson, C. Bauer and S. Grimme, Chem. Sci., 2017, 8, 4879.
     DOI: 10.1039/c7sc00601b
   * J. Koopman and S. Grimme, ACS Omega 2019, 4, 12, 15120-15133.
     DOI: 10.1021/acsomega.9b02011
   
   for metadynamics refer to:
   * S. Grimme, J. Chem. Theory Comput., 2019, 155, 2847-2862
     DOI: 10.1021/acs.jctc.9b00143
   
   for SPH calculations refer to:
   * S. Spicher and S. Grimme, J. Chem. Theory Comput., 2021, 17, 1701-1714
     DOI: 10.1021/acs.jctc.0c01306
   
   for ONIOM refer to:
   * C. Plett, A. Katbashev, S. Ehlert, S. Grimme, M. Bursch,
     Phys. Chem. Chem. Phys., 2023, 25, 17860-17868. DOI: 10.1039/D3CP02178E
   
   for DIPRO refer to:
   * J. Kohn, N. Gildemeister, S. Grimme, D. Fazzi, A. Hansen,
     J. Chem. Phys., 2023, just accepted.
   
   for PTB refer to:
   * S. Grimme, M. Mueller, A. Hansen, J. Chem. Phys., 2023, 158, 124111.
     DOI: 10.1063/5.0137838
   
   with help from (in alphabetical order)
   P. Atkinson, C. Bannwarth, F. Bohle, G. Brandenburg, E. Caldeweyher
   M. Checinski, S. Dohm, S. Ehlert, S. Ehrlich, I. Gerasimov, C. Hölzer
   A. Katbashev, J. Kohn, J. Koopman, C. Lavigne, S. Lehtola, F. März, M. Müller,
   F. Musil, H. Neugebauer, J. Pisarek, C. Plett, P. Pracht, F. Pultar,
   J. Seibert, P. Shushkov, S. Spicher, M. Stahn, M. Steiner, T. Strunk,
   J. Stückrath, T. Rose, and J. Unsleber
   
 * started run on 2025/04/05 at 00:01:05.087     
   ID    Z sym.   atoms
    1    6 C      1, 3-8
    2    7 N      2
    3    1 H      9-17

           -------------------------------------------------
          |                Calculation Setup                |
           -------------------------------------------------

          program call               : /srv/scratch/z5358697/.xtb/bin/xtb xtb_opt.coord --opt normal --orca -I xtb_opt-xcontrol-inp
          hostname                   : k156
          coordinate file            : xtb_opt.coord
          omp threads                :                     2

           -------------------------------------------------
          |                   Orca driver                   |
           -------------------------------------------------
orca executable           : /apps/z_install_tree/linux-rocky8-ivybridge/gcc-12.2.0/orca-6.0.0-srtngmq3qlimg2qxbl6avaaiffipurdx/bin/orca
orca input file           : xtb_opt.inp
orca input line           : 
orca parallel             : true
orca number of threads    : 2
                         * ORCA takes the control...
  ------------------------------------------------------------------------

                                 *****************
                                 * O   R   C   A *
                                 *****************

                                            #,                                       
                                            ###                                      
                                            ####                                     
                                            #####                                    
                                            ######                                   
                                           ########,                                 
                                     ,,################,,,,,                         
                               ,,#################################,,                 
                          ,,##########################################,,             
                       ,#########################################, ''#####,          
                    ,#############################################,,   '####,        
                  ,##################################################,,,,####,       
                ,###########''''           ''''###############################       
              ,#####''   ,,,,##########,,,,          '''####'''          '####       
            ,##' ,,,,###########################,,,                        '##       
           ' ,,###''''                  '''############,,,                           
         ,,##''                                '''############,,,,        ,,,,,,###''
      ,#''                                            '''#######################'''  
     '                                                          ''''####''''         
             ,#######,   #######,   ,#######,      ##                                
            ,#'     '#,  ##    ##  ,#'     '#,    #''#        ,####,   ,####,        
            ##       ##  ##   ,#'  ##            #'  '#       #'       #'  '#        
            ##       ##  #######   ##           ,######,      #####,   #    #        
            '#,     ,#'  ##    ##  '#,     ,#' ,#      #,     #,   #   #,  ,#        
             '#######'   ##     ##  '#######'  #'      '#     '####' # '####'        



                #########################################################
                #                        -***-                          #
                #          Department of theory and spectroscopy        #
                #                                                       #
                #                      Frank Neese                      #
                #                                                       #
                #     Directorship, Architecture, Infrastructure        #
                #                    SHARK, DRIVERS                     #
                #        Core code/Algorithms in most modules           #
                #                                                       #
                #        Max Planck Institute fuer Kohlenforschung      #
                #                Kaiser Wilhelm Platz 1                 #
                #                 D-45470 Muelheim/Ruhr                 #
                #                      Germany                          #
                #                                                       #
                #                  All rights reserved                  #
                #                        -***-                          #
                #########################################################


                         Program Version 6.0.0  -   RELEASE  -


 With contributions from (in alphabetic order):
   Daniel Aravena         : Magnetic Suceptibility
   Michael Atanasov       : Ab Initio Ligand Field Theory (pilot matlab implementation)
   Alexander A. Auer      : GIAO ZORA, VPT2 properties, NMR spectrum
   Ute Becker             : All parallelization in ORCA, NUMFREQ, NUMCALC
   Giovanni Bistoni       : ED, misc. LED, open-shell LED, HFLD
   Martin Brehm           : Molecular dynamics
   Dmytro Bykov           : pre 5.0 version of the SCF Hessian
   Marcos Casanova-Páez   : Triplet and SCS-CIS(D). UHF-(DLPNO)-IP/EA/STEOM-CCSD. UHF-CVS-IP/STEOM-CCSD
   Vijay G. Chilkuri      : MRCI spin determinant printing, contributions to CSF-ICE
   Pauline Colinet        : FMM embedding
   Dipayan Datta          : RHF DLPNO-CCSD density
   Achintya Kumar Dutta   : EOM-CC, STEOM-CC
   Nicolas Foglia         : Exact transition moments, OPA infrastructure, MCD improvements
   Dmitry Ganyushin       : Spin-Orbit,Spin-Spin,Magnetic field MRCI
   Miquel Garcia          : C-PCM and meta-GGA Hessian, CCSD/C-PCM, Gaussian charge scheme
   Tiago L. C. Gouveia    : GS-ROHF, GS-ROCIS
   Yang Guo               : DLPNO-NEVPT2, F12-NEVPT2, CIM, IAO-localization
   Andreas Hansen         : Spin unrestricted coupled pair/coupled cluster methods
   Ingolf Harden          : AUTO-CI MPn and infrastructure 
   Benjamin Helmich-Paris : MC-RPA, TRAH-(SCF,CASSCF), AVAS, COSX integrals, SCF dyn. polar.
   Lee Huntington         : MR-EOM, pCC
   Robert Izsak           : Overlap fitted RIJCOSX, COSX-SCS-MP3, EOM
   Riya Kayal             : Wick's Theorem for AUTO-CI, AUTO-CI UHF-CCSDT
   Emily Kempfer          : AUTO-CI, RHF CISDT and CCSDT
   Christian Kollmar      : KDIIS, OOCD, Brueckner-CCSD(T), CCSD density, CASPT2, CASPT2-K, improved NEVPT2
   Axel Koslowski         : Symmetry handling
   Simone Kossmann        : Meta GGA functionals, TD-DFT gradient, OOMP2, (MP2 Hessian; deprecated post 5.0)
   Lucas Lang             : DCDCAS
   Marvin Lechner         : AUTO-CI (C++ implementation), FIC-MRCC
   Spencer Leger          : CASSCF response
   Dagmar Lenk            : GEPOL surface, SMD, ORCA-2-JSON
   Dimitrios Liakos       : Extrapolation schemes; Compound Job, initial MDCI parallelization
   Dimitrios Manganas     : Further ROCIS development; embedding schemes. LFT, Crystal Embedding
   Dimitrios Pantazis     : SARC Basis sets
   Anastasios Papadopoulos: AUTO-CI, single reference methods and gradients
   Taras Petrenko         : pre 6.0 DFT Hessian and TD-DFT gradient, (ASA, deprecated), ECA, 1-Electron XAS/XES, NRVS
   Peter Pinski           : DLPNO-MP2, DLPNO-MP2 Gradient
   Christoph Reimann      : Effective Core Potentials
   Marius Retegan         : Local ZFS, SOC
   Christoph Riplinger    : Optimizer, TS searches, QM/MM, DLPNO-CCSD(T), (RO)-DLPNO pert. Triples
   Michael Roemelt        : Original ROCIS implementation
   Masaaki Saitow         : Open-shell DLPNO-CCSD energy and density
   Barbara Sandhoefer     : DKH picture change effects
   Kantharuban Sivalingam : CASSCF convergence/infrastructure, NEVPT2 and variants, FIC-MRCI
   Bernardo de Souza      : ESD, SOC TD-DFT
   Georgi Stoychev        : AutoAux, RI-MP2 NMR, DLPNO-MP2 response, X2C
   Van Anh Tran           : RI-MP2 g-tensors
   Willem Van den Heuvel  : Paramagnetic NMR
   Zikuan Wang            : NOTCH, Electric field optimization 
   Frank Wennmohs         : Technical directorship and infrastructure
   Hang Xu                : AUTO-CI-Response properties 


 We gratefully acknowledge several colleagues who have allowed us to
 interface, adapt or use parts of their codes:
   Stefan Grimme, W. Hujo, H. Kruse, P. Pracht,  : VdW corrections, initial TS optimization,
                  C. Bannwarth, S. Ehlert,         DFT functionals, gCP, sTDA/sTD-DF
                  L. Wittmann, M. Mueller
   Ed Valeev, F. Pavosevic, A. Kumar             : LibInt (2-el integral package), F12 methods
   Garnet Chan, S. Sharma, J. Yang, R. Olivares  : DMRG
   Ulf Ekstrom                                   : XCFun DFT Library
   Mihaly Kallay                                 : mrcc  (arbitrary order and MRCC methods)
   Frank Weinhold                                : gennbo (NPA and NBO analysis)
   Simon Mueller                                 : openCOSMO-RS
   Christopher J. Cramer and Donald G. Truhlar   : smd solvation model
   Lars Goerigk                                  : TD-DFT with DH, B97 family of functionals
   V. Asgeirsson, H. Jonsson                     : NEB implementation
   FAccTs GmbH                                   : IRC, NEB, NEB-TS, DLPNO-Multilevel, CI-OPT
                                                   MM, QMMM, 2- and 3-layer-ONIOM, Crystal-QMMM,
                                                   LR-CPCM, SF, NACMEs, symmetry and pop. for TD-DFT,
                                                   nearIR, NL-DFT gradient (VV10), updates on ESD,
                                                   ML-optimized integration grids, MBIS, APM,
                                                   GOAT, DOCKER, SOLVATOR, interface openCOSMO-RS
   S Lehtola, MJT Oliveira, MAL Marques          : LibXC Library
   Liviu Ungur et al                             : ANISO software


 Your calculation uses the libint2 library for the computation of 2-el integrals
 For citations please refer to: http://libint.valeyev.net

 Your ORCA version has been built with support for libXC version: 6.2.2
 For citations please refer to: https://libxc.gitlab.io

 This ORCA versions uses:
   CBLAS   interface :  Fast vector & matrix operations
   LAPACKE interface :  Fast linear algebra routines
   SCALAPACK package :  Parallel linear algebra routines
   Shared memory     :  Shared parallel matrices
   BLAS/LAPACK       :  OpenBLAS 0.3.27  USE64BITINT DYNAMIC_ARCH NO_AFFINITY SkylakeX SINGLE_THREADED
        Core in use  :  SkylakeX
   Copyright (c) 2011-2014, The OpenBLAS Project




***************************************
The coordinates will be read from file: xtb_opt.xyz
***************************************


Your calculation utilizes the geometrical counterpoise correction gCP
Please cite in your paper:
H.Kruse, S. Grimme J.Chem.Phys., 136, (2012), 154101 
   

Your calculation utilizes the atom-pairwise dispersion correction
based on EEQ partial charges (D4)


Your calculation utilizes the SMD solvation module
Please cite in your paper:
A.V. Marenich, C.J. Cramer, D.G. Truhlar J. Phys. Chem. B, 113, (2009), 6378 

================================================================================

----- Orbital basis set information -----
Your calculation utilizes the basis: def2-mTZVPP
   Stefan Grimme, Andreas Hansen, Sebastian Ehlert, and Jan-Michael Mewes 
   J. Chem. Phys. 154, 064103 (2021). DOI: 10.1063/5.0040021

----- AuxJ basis set information -----
Your calculation utilizes the auxiliary basis: def2/J
   F. Weigend, Phys. Chem. Chem. Phys. 8, 1057 (2006).

================================================================================
                                        WARNINGS
                       Please study these warnings very carefully!
================================================================================

Using LibXC functional ID 497 : Re-regularized SCAN exchange by Furness et al
[ 1]  J. W. Furness, A. D. Kaplan, J. Ning, J. P. Perdew, and J. Sun.,  J. Phys. Chem. Lett. 11, 8208-8215 (2020)
[ 2]  J. W. Furness, A. D. Kaplan, J. Ning, J. P. Perdew, and J. Sun.,  J. Phys. Chem. Lett. 11, 9248-9248 (2020)
Using LibXC functional ID 498 : Re-regularized SCAN correlation by Furness et al
[ 1]  J. W. Furness, A. D. Kaplan, J. Ning, J. P. Perdew, and J. Sun.,  J. Phys. Chem. Lett. 11, 8208-8215 (2020)
[ 2]  J. W. Furness, A. D. Kaplan, J. Ning, J. P. Perdew, and J. Sun.,  J. Phys. Chem. Lett. 11, 9248-9248 (2020)
Using LibXC functional ID 497 : Re-regularized SCAN exchange by Furness et al
[ 1]  J. W. Furness, A. D. Kaplan, J. Ning, J. P. Perdew, and J. Sun.,  J. Phys. Chem. Lett. 11, 8208-8215 (2020)
[ 2]  J. W. Furness, A. D. Kaplan, J. Ning, J. P. Perdew, and J. Sun.,  J. Phys. Chem. Lett. 11, 9248-9248 (2020)
Using LibXC functional ID 498 : Re-regularized SCAN correlation by Furness et al
[ 1]  J. W. Furness, A. D. Kaplan, J. Ning, J. P. Perdew, and J. Sun.,  J. Phys. Chem. Lett. 11, 8208-8215 (2020)
[ 2]  J. W. Furness, A. D. Kaplan, J. Ning, J. P. Perdew, and J. Sun.,  J. Phys. Chem. Lett. 11, 9248-9248 (2020)

================================================================================
                                       INPUT FILE
================================================================================
NAME = xtb_opt.inp
|  1> ! r2scan-3c def2/J RI DEFGRID2 scfconv7 ENGRAD tightSCF miniprint
|  2> %cpcm
|  3>     smd true
|  4>     smdsolvent "water"
|  5> end
|  6> * xyzfile 0 1 xtb_opt.xyz
|  7> 
|  8>                          ****END OF INPUT****
================================================================================

                     *******************************
                     * Energy+Gradient Calculation *
                     *******************************

---------------------------------
CARTESIAN COORDINATES (ANGSTROEM)
---------------------------------
  C     -2.862536    0.397666   -0.106433
  N     -1.816442   -0.569923    0.126147
  C     -0.484349   -0.252301    0.035365
  C      0.464016   -1.282442   -0.009731
  C      1.813489   -1.002737   -0.038535
  C      2.260301    0.309876   -0.027806
  C      1.332406    1.336318    0.012766
  C     -0.022661    1.067610    0.042629
  H     -2.794521    0.858302   -1.099222
  H     -2.811949    1.185143    0.646419
  H     -3.823389   -0.101262   -0.014767
  H     -2.040054   -1.517270   -0.135347
  H      0.125023   -2.308965   -0.019863
  H      2.525781   -1.814693   -0.073323
  H      3.317341    0.527801   -0.052955
  H      1.667391    2.363860    0.018145
  H     -0.722763    1.887102    0.071171

----------------------------
CARTESIAN COORDINATES (A.U.)
----------------------------
  NO LB      ZA    FRAG     MASS         X           Y           Z
   0 C     6.0000    0    12.011   -5.409409    0.751480   -0.201129
   1 N     7.0000    0    14.007   -3.432578   -1.076999    0.238383
   2 C     6.0000    0    12.011   -0.915286   -0.476779    0.066831
   3 C     6.0000    0    12.011    0.876864   -2.423465   -0.018390
   4 C     6.0000    0    12.011    3.426997   -1.894899   -0.072820
   5 C     6.0000    0    12.011    4.271350    0.585580   -0.052546
   6 C     6.0000    0    12.011    2.517882    2.525275    0.024124
   7 C     6.0000    0    12.011   -0.042823    2.017491    0.080558
   8 H     1.0000    0     1.008   -5.280880    1.621956   -2.077229
   9 H     1.0000    0     1.008   -5.313814    2.239596    1.221554
  10 H     1.0000    0     1.008   -7.225159   -0.191357   -0.027906
  11 H     1.0000    0     1.008   -3.855143   -2.867225   -0.255768
  12 H     1.0000    0     1.008    0.236258   -4.363311   -0.037535
  13 H     1.0000    0     1.008    4.773035   -3.429272   -0.138560
  14 H     1.0000    0     1.008    6.268865    0.997400   -0.100070
  15 H     1.0000    0     1.008    3.150913    4.467048    0.034289
  16 H     1.0000    0     1.008   -1.365825    3.566106    0.134494

------------------------------------------------------------------------------
                   ___                                                        
                  /   \      - P O W E R E D   B Y -                         
                 /     \                                                     
                 |  |  |   _    _      __       _____    __    __             
                 |  |  |  | |  | |    /  \     |  _  \  |  |  /  |          
                  \  \/   | |  | |   /    \    | | | |  |  | /  /          
                 / \  \   | |__| |  /  /\  \   | |_| |  |  |/  /          
                |  |  |   |  __  | /  /__\  \  |    /   |      \           
                |  |  |   | |  | | |   __   |  |    \   |  |\   \          
                \     /   | |  | | |  |  |  |  | |\  \  |  | \   \       
                 \___/    |_|  |_| |__|  |__|  |_| \__\ |__|  \__/        
                                                                              
                      - O R C A' S   B I G   F R I E N D -                    
                                      &                                       
                       - I N T E G R A L  F E E D E R -                       
                                                                              
 v1 FN, 2020, v2 2021, v3 2022-2024                                           
------------------------------------------------------------------------------


----------------------
SHARK INTEGRAL PACKAGE
----------------------

Number of atoms                             ...     17
Number of basis functions                   ...    202
Number of shells                            ...    100
Maximum angular momentum                    ...      2
Integral batch strategy                     ... SHARK/LIBINT Hybrid
RI-J (if used) integral strategy            ... SPLIT-RIJ (Revised 2003 algorithm where possible)
Printlevel                                  ...      1
Contraction scheme used                     ... SEGMENTED contraction
Prescreening option                         ... SCHWARTZ
   Thresh                                   ... 3.000e-11
   Tcut                                     ... 1.000e-12
   Tpresel                                  ... 1.000e-12 
Coulomb Range Separation                    ... NOT USED
Exchange Range Separation                   ... NOT USED
Multipole approximations                    ... NOT USED
Finite Nucleus Model                        ... NOT USED
CABS basis                                  ... NOT available
Auxiliary Coulomb fitting basis             ... AVAILABLE
   # of basis functions in Aux-J            ...    491
   # of shells in Aux-J                     ...    165
   Maximum angular momentum in Aux-J        ...      4
Auxiliary J/K fitting basis                 ... NOT available
Auxiliary Correlation fitting basis         ... NOT available
Auxiliary 'external' fitting basis          ... NOT available

Checking pre-screening integrals            ... done (  0.0 sec) Dimension = 100
Check shell pair data                       ... done (  0.0 sec)
Shell pair information
Shell pair cut-off parameter TPreSel        ...   1.0e-12
Total number of shell pairs                 ...      5050
Shell pairs after pre-screening             ...      4599
Total number of primitive shell pairs       ...     18348
Primitive shell pairs kept                  ...     12084
          la=0 lb=0:   1522 shell pairs
          la=1 lb=0:   1751 shell pairs
          la=1 lb=1:    522 shell pairs
          la=2 lb=0:    481 shell pairs
          la=2 lb=1:    279 shell pairs
          la=2 lb=2:     44 shell pairs

Calculating one electron integrals          ... done (  0.0 sec)
Calculating RI/J V-Matrix + Cholesky decomp.... done (  0.1 sec)
Calculating Nuclear repulsion               ... done (  0.0 sec) ENN=    346.025368993613 Eh

Diagonalization of the overlap matrix:
Smallest eigenvalue                        ... 3.168e-05
Time for diagonalization                   ...    0.003 sec
Threshold for overlap eigenvalues          ... 1.000e-07
Number of eigenvalues below threshold      ... 0
Time for construction of square roots      ...    0.013 sec
Total time needed                          ...    0.024 sec

-------------------
DFT GRID GENERATION
-------------------

General Integration Accuracy     IntAcc      ... 4.388
Radial Grid Type                 RadialGrid  ... OptM3 with GC (2021)
Angular Grid (max. ang.)         AngularGrid ... 4 (Lebedev-302)
Angular grid pruning method      GridPruning ... 4 (adaptive)
Weight generation scheme         WeightScheme... mBecke (2022)
Basis function cutoff            BFCut       ... 1.0000e-11
Integration weight cutoff        WCut        ... 1.0000e-14
Partially contracted basis set               ... off
Rotationally invariant grid construction     ... off
Angular grids for H and He will be reduced by one unit

Total number of grid points                  ...    77038
Total number of batches                      ...     1213
Average number of points per batch           ...       63
Average number of grid points per atom       ...     4532
Initializing property integral containers    ... done (  0.0 sec)

SHARK setup successfully completed in   1.0 seconds

Maximum memory used throughout the entire STARTUP-calculation: 33.9 MB
Occupation numbers will be reassigned to an Aufbau configuration
             **** ENERGY FILE WAS UPDATED (xtb_opt.en.tmp) ****
Finished Guess after   0.2 sec
Maximum memory used throughout the entire GUESS-calculation: 14.0 MB
--------------------
CPCM SOLVATION MODEL
--------------------
CPCM parameters:
  Epsilon                                         ...      78.3550
  Refrac                                          ...       1.3328
  Rsolv                                           ...       1.3000
  Surface type                                    ... GAUSSIAN VDW
  Discretization scheme                           ... Constant charge density
    Threshold for H atoms                         ...       5.0000 (charges/Ang^2)
    Threshold for non-H atoms                     ...       5.0000 (charges/Ang^2)
  Epsilon function type                           ...         CPCM
Solvent:                                          ... WATER
SMD-CDS solvent descriptors:
  Soln                                            ...       1.3328
  Soln25                                          ...       1.3323
  Sola                                            ...       0.0000
  Solb                                            ...       0.0000
  Solg                                            ...       0.0000
  Solc                                            ...       0.0000
  Solh                                            ...       0.0000
Radii:
  Scheme                                          ... Element-dependent radii
  Radius for C  used is    3.4960 Bohr (=   1.8500 Ang.)
  Radius for N  used is    3.5716 Bohr (=   1.8900 Ang.)
  Radius for H  used is    2.2677 Bohr (=   1.2000 Ang.)
Calculating surface                               ...        done! (  0.0s)
Cavity surface points                             ...         1348
Cavity Volume                                     ...     841.3006
Cavity Surface-area                               ...     523.5413
Calculating surface distance matrix               ...        done! (  0.0s)
Performing Cholesky decomposition & store         ...        done! (  0.1s)
Overall time for CPCM initialization              ...                 0.1s

----------------------------------------D-I-I-S--------------------------------------------
Iteration    Energy (Eh)           Delta-E    RMSDP     MaxDP     DIISErr   Damp  Time(sec)
-------------------------------------------------------------------------------------------
               ***  Starting incremental Fock matrix formation  ***
                              *** Initializing SOSCF ***
---------------------------------------S-O-S-C-F--------------------------------------
Iteration    Energy (Eh)           Delta-E    RMSDP     MaxDP     MaxGrad    Time(sec)
--------------------------------------------------------------------------------------
    1    -326.8300160570349817     0.00e+00  1.07e-05  2.22e-04  6.81e-05     2.5
               *** Restarting incremental Fock matrix formation ***
    2    -326.8300161756118314    -1.19e-07  1.28e-05  2.76e-04  1.07e-04     2.5
    3    -326.8300154404853402     7.35e-07  8.81e-06  1.85e-04  2.38e-04     2.0
    4    -326.8300165312094805    -1.09e-06  2.42e-06  4.82e-05  2.17e-05     2.0
                  *** Gradient check signals convergence ***

               *****************************************************
               *                     SUCCESS                       *
               *           SCF CONVERGED AFTER   4 CYCLES          *
               *****************************************************


SMD CDS free energy correction energy :                 2.69836     Kcal/mol
Total Energy after SMD CDS correction =              -326.825716423 Eh
             **** ENERGY FILE WAS UPDATED (xtb_opt.en.tmp) ****

----------------
TOTAL SCF ENERGY
----------------

Total Energy       :       -326.82571642330629 Eh           -8893.37987 eV

Components:
Nuclear Repulsion  :        346.02536899361314 Eh            9415.82898 eV
Electronic Energy  :       -672.84097209277888 Eh          -18308.93366 eV
One Electron Energy:      -1125.94273302985971 Eh          -30638.45939 eV
Two Electron Energy:        453.10176093708077 Eh           12329.52574 eV
CPCM Dielectric    :         -0.01441343204362 Eh              -0.39221 eV
SMD CDS (Gcds)     :          0.00430010790320 Eh               0.11701 eV

Virial components:
Potential Energy   :       -652.33200198681402 Eh          -17750.85621 eV
Kinetic Energy     :        325.50628556350773 Eh            8857.47634 eV
Virial Ratio       :          2.00405347275403

DFT components:
N(Alpha)           :       29.000004976458 electrons
N(Beta)            :       29.000004976458 electrons
N(Total)           :       58.000009952917 electrons
E(X)               :      -46.337214466563 Eh       
E(C)               :       -1.856984015617 Eh       
E(XC)              :      -48.194198482180 Eh       

CPCM Solvation Model Properties:
Surface-charge          :         -0.04344371311821
Corrected charge        :          0.00000000000000
Outlying charge corr.   :          0.00014863376622 Eh               0.00404 eV
Free-energy (cav+disp)  :          0.00430010790320 Eh               0.11701 eV

---------------
SCF CONVERGENCE
---------------

  Last Energy change         ...    1.0907e-06  Tolerance :   1.0000e-07
  Last MAX-Density change    ...    4.8190e-05  Tolerance :   1.0000e-07
  Last RMS-Density change    ...    2.4194e-06  Tolerance :   5.0000e-09
  Last DIIS Error            ...    3.0272e-04  Tolerance :   1.0000e-07
  Last Orbital Gradient      ...    2.1657e-05  Tolerance :   1.0000e-04
  Last Orbital Rotation      ...    8.8820e-05  Tolerance :   1.0000e-04


----------------
ORBITAL ENERGIES
----------------

  NO   OCC          E(Eh)            E(eV) 
   0   2.0000     -14.165638      -385.4666 
   1   2.0000     -10.070041      -274.0197 
   2   2.0000     -10.047797      -273.4144 
   3   2.0000     -10.029004      -272.9031 
   4   2.0000     -10.028937      -272.9012 
   5   2.0000     -10.023159      -272.7440 
   6   2.0000     -10.021969      -272.7116 
   7   2.0000     -10.017847      -272.5995 
   8   2.0000      -0.899643       -24.4805 
   9   2.0000      -0.809488       -22.0273 
  10   2.0000      -0.713270       -19.4091 
  11   2.0000      -0.706206       -19.2168 
  12   2.0000      -0.640502       -17.4289 
  13   2.0000      -0.575584       -15.6624 
  14   2.0000      -0.551554       -15.0086 
  15   2.0000      -0.496679       -13.5153 
  16   2.0000      -0.458777       -12.4840 
  17   2.0000      -0.432690       -11.7741 
  18   2.0000      -0.405220       -11.0266 
  19   2.0000      -0.402127       -10.9424 
  20   2.0000      -0.385052       -10.4778 
  21   2.0000      -0.380950       -10.3662 
  22   2.0000      -0.348444        -9.4817 
  23   2.0000      -0.344452        -9.3730 
  24   2.0000      -0.320070        -8.7096 
  25   2.0000      -0.300339        -8.1726 
  26   2.0000      -0.272716        -7.4210 
  27   2.0000      -0.236041        -6.4230 
  28   2.0000      -0.176488        -4.8025 
  29   0.0000      -0.029180        -0.7940 
  30   0.0000      -0.009935        -0.2704 
  31   0.0000       0.084275         2.2932 
  32   0.0000       0.100609         2.7377 
  33   0.0000       0.113715         3.0944 
  34   0.0000       0.127357         3.4656 
  35   0.0000       0.132786         3.6133 
  36   0.0000       0.137994         3.7550 
  37   0.0000       0.144289         3.9263 
  38   0.0000       0.159744         4.3469 
  39   0.0000       0.175688         4.7807 
*Only the first 10 virtual orbitals were printed.
Total SCF time: 0 days 0 hours 0 min 9 sec 
Finished LeanSCF after   9.5 sec

Maximum memory used throughout the entire LEANSCF-calculation: 26.1 MB


-------------------------------------------------------------------------------
                          DFT DISPERSION CORRECTION                            
                                                                               
                                DFTD4 V3.4.0                                   
-------------------------------------------------------------------------------
-------------------------   ----------------
Dispersion correction           -0.005296492
-------------------------   ----------------

------------------   -----------------
gCP correction             0.008948088
------------------   -----------------

-------------------------   --------------------
FINAL SINGLE POINT ENERGY      -326.822064826837
-------------------------   --------------------

------------------------------------------------------------------------------
                         ORCA SCF GRADIENT CALCULATION
------------------------------------------------------------------------------

Nuc. rep. gradient        (SHARK) ... done (  0.0 sec)
HCore & Overlap gradient  (SHARK) ... done (  0.2 sec)
Split-RIJ-J gradient      (SHARK) ... done (  1.2 sec)
XC gradient                       ... done (  4.7 sec)
CPCM gradient                     ... done (  0.7 sec)
SMD gradient                      ... done (  0.0 sec)
Dispersion correction             ... done (  0.0 sec)

-------------------
DISPERSION GRADIENT
-------------------

   1   C   :   -0.000102364    0.000024162   -0.000007010
   2   N   :   -0.000091914   -0.000039064    0.000002474
   3   C   :   -0.000021880   -0.000014724    0.000002639
   4   C   :    0.000031717   -0.000073025    0.000000941
   5   C   :    0.000078948   -0.000047896   -0.000001577
   6   C   :    0.000088374    0.000014633   -0.000001198
   7   C   :    0.000071354    0.000068677    0.000001469
   8   C   :    0.000006922    0.000055915    0.000003842
   9   H   :   -0.000040462    0.000006049   -0.000009138
  10   H   :   -0.000039198    0.000007381    0.000005091
  11   H   :   -0.000034100   -0.000000091   -0.000000318
  12   H   :   -0.000030953   -0.000011816    0.000001691
  13   H   :    0.000004153   -0.000045315    0.000000422
  14   H   :    0.000030354   -0.000027570   -0.000001197
  15   H   :    0.000036558    0.000007448   -0.000000858
  16   H   :    0.000022639    0.000038656    0.000000405
  17   H   :   -0.000010147    0.000036581    0.000002321

Difference to translation invariance:
           :    0.0000000000    0.0000000000    0.0000000000

Difference to rotation invariance:
           :   -0.0000000000   -0.0000000000   -0.0000000000

Norm of the Dispersion gradient    ...    0.0002681887
RMS gradient                       ...    0.0000375539
MAX gradient                       ...    0.0001023644
gCP correction                   ... done

------------------
CARTESIAN GRADIENT
------------------

   1   C   :   -0.003121494   -0.002888721    0.000141603
   2   N   :    0.001671267    0.007954745   -0.002485005
   3   C   :    0.002629780    0.001048545   -0.001302728
   4   C   :   -0.000017897    0.005689056    0.000642142
   5   C   :   -0.001039829    0.002766028    0.000438921
   6   C   :   -0.007722924   -0.003139266   -0.000077481
   7   C   :   -0.003207496   -0.002387120    0.000049371
   8   C   :    0.006115463   -0.004455007    0.000724340
   9   H   :    0.001030040   -0.002030038    0.002157711
  10   H   :    0.002401099   -0.003415433   -0.001118006
  11   H   :    0.003153402    0.000796869   -0.000091556
  12   H   :   -0.000065952    0.000689432    0.000875648
  13   H   :    0.001780027    0.004127820   -0.000077773
  14   H   :   -0.002167302    0.003263924    0.000150093
  15   H   :   -0.003926698   -0.000884829    0.000064490
  16   H   :   -0.000799686   -0.003790260   -0.000027374
  17   H   :    0.003288199   -0.003345747   -0.000064395

Difference to translation invariance:
           :   -0.0000000000   -0.0000000000   -0.0000000000

Difference to rotation invariance:
           :   -0.0001410357    0.0001407125   -0.0001781033

Norm of the Cartesian gradient     ...    0.0203517821
RMS gradient                       ...    0.0028498195
MAX gradient                       ...    0.0079547453

-------
TIMINGS
-------

Total SCF gradient time     ....        7.365 sec

Densities                   ....       0.000 sec  (  0.0%)
One electron gradient       ....       0.210 sec  (  2.8%)
RI-J Coulomb gradient       ....       1.204 sec  ( 16.3%)
XC gradient                 ....       4.675 sec  ( 63.5%)
CPCM gradient               ....       0.688 sec  (  9.3%)
   A-Matrix (El+Nuc)        ....       0.059 sec  (  0.8%)
   Potential                ....       0.629 sec  (  8.5%)
SMD gradient                ....       0.012 sec  (  0.2%)

Maximum memory used throughout the entire SCFGRAD-calculation: 34.2 MB

------------------------------------------------------------------------------
                              ORCA PROPERTY CALCULATIONS
------------------------------------------------------------------------------

GBWName                                 ... xtb_opt.gbw
Number of atoms                         ...     17
Number of basis functions               ...    202
Max core memory                         ...   1024 MB

Electric properties:
Dipole moment                           ... YES
Quadrupole moment                       ...  NO
Static polarizability (Dipole/Dipole)   ...  NO
Static polarizability (Dipole/Quad.)    ...  NO
Static polarizability (Quad./Quad.)     ...  NO
Static polarizability (Velocity)        ...  NO

Atomic electric properties:
Dipole moment                           ...  NO
Quadrupole moment                       ...  NO
Static polarizability                   ...  NO

Choice of electric origin               ... Center of mass
Position of electric origin             ...    -0.000018    -0.000001    -0.000000

General magnetic properties:
Magnetizability                         ...  NO

EPR properties:
g-Tensor (aka g-matrix)                 ...  NO
Zero-Field splitting spin-orbit         ...  NO
Zero-field splitting spin-spin          ...  NO
Hyperfine couplings                     ...  NO (   0 nuclei)
Quadrupole couplings                    ...  NO (   0 nuclei)
Contact density                         ...  NO (   0 nuclei)

NMR properties:
Chemical shifts                         ...  NO (   0 nuclei)
Spin-rotation constants                 ...  NO (   0 nuclei)
Spin-spin couplings                     ...  NO (   0 nuclei,    0 pairs)

Choice of magnetic origin               ... GIAO
Position of magnetic origin             ...     0.000000     0.000000     0.000000

Properties with geometric perturbations:
SCF Hessian                             ...  NO
IR spectrum                             ...  NO
VCD spectrum                            ...  NO
X-ray spectroscopy properties:
SCF XES/XAS/RIXS spectra                ...  NO


-------------
DIPOLE MOMENT
-------------

Method             : SCF
Type of density    : Electron Density
Multiplicity       :   1
Irrep              :   0
Energy             :  -326.8257164233062895 Eh
Relativity type    : 
Basis              : AO
                                X                 Y                 Z
Electronic contribution:      3.193718695      -1.289497445       0.350329489
Nuclear contribution   :     -4.285326094       1.010115916      -0.618257639
                        -----------------------------------------
Total Dipole Moment    :     -1.091607399      -0.279381529      -0.267928150
                        -----------------------------------------
Magnitude (a.u.)       :      1.158208205
Magnitude (Debye)      :      2.943931298



--------------------
Rotational spectrum 
--------------------
 
Rotational constants in cm-1:             0.168374             0.051088             0.039582 
Rotational constants in MHz :          5047.737627          1531.584673          1186.627243 

Dipole components along the rotational axes: 
x,y,z [a.u.] :    -1.091607     0.279381    -0.267928 
x,y,z [Debye]:    -2.774646     0.710131    -0.681019 

 

Dipole moment calculation done in   0.0 sec 

Maximum memory used throughout the entire PROP-calculation: 12.6 MB

--------------------------------
SUGGESTED CITATIONS FOR THIS RUN
--------------------------------

Below you find a list of papers that are relevant to this ORCA run
We neither can nor want to force you to cite these papers, but we appreciate if you do
You receive ORCA, which is the product of decades of hard work by many enthusiastic individuals, for free
The only thing we kindly ask in return is that you cite our papers,
We deeply appreciate it, if you show your appreciation for ORCA by not just citing the generic ORCA reference.

Please note that relegating all ORCA citations to the supporting information does *not* help us.
SI sections are not indexed - citations you put there will not count into any citation statistics
But we need these citations in order to attract the funding resources that allow us to do what we are doing

Therefore, if you are a happy ORCA user, please consider citing a few of the papers listed below in the main body of your paper

In addition to the list printed below, the program has created the file xtb_opt.bibtex that contains the list in bibtex format
You can import this file easily into all common literature databanks and citation aid programs


List of essential papers. We consider these as the minimum necessary citations

  1. Neese,F.
     Software update: the ORCA program system, version 5.0
     WIRES Comput. Molec. Sci., 2022 12(1)e1606
     doi.org/10.1002/wcms.1606
  2. Grimme,S.; Hansen,A.; Ehlert,S.; Mewes,J.
     r2SCAN-3c: A 'Swiss army knife' composite electronic-structure method
     J. Chem. Phys., 2021 154 064103
     doi.org/10.1063/5.0040021

List of papers to cite with high priority. The work reported in these papers was absolutely
necessary for this run to complete.
Our perspective: the developers of density functionals and basis sets usually get cited in chemistry papers
Good! But without the algorithms to do something with them, the functionals or basis sets would not do anything.
Hence, in our opinion, the algorithm design and method developments papers are equally worthy of getting cited

  1. Neese,F.
     An improvement of the resolution of the identity approximation for the formation of the Coulomb matrix
     J. Comp. Chem., 2003 24(14)1740-1747
     doi.org/10.1002/jcc.10318
  2. Garcia-Rates,M.; Neese,F.
     Effect of the Solute Cavity on the Solvation Energy and its Derivatives within the Framework of the Gaussian Charge Scheme
     J. Comput. Chem., 2020 41 922-939
     doi.org/10.1002/jcc.26139
  3. Neese,F.
     The SHARK Integral Generation and Digestion System
     J. Comp. Chem., 2022  1-16
     doi.org/10.1002/jcc.26942
  4. Lehtola,S.; Steigemann,C.; Oliveira,M.; Marques,M.
     Recent developments in Libxc - A comprehensive library of functionals for density functional theory
     Software X, 2018 7 
     doi.org/10.1016/j.softx.2017.11.002
  5. Caldeweyher,E.; Bannwarth,C.; Grimme,S.
     Extension of the D3 dispersion coefficient model
     J. Chem. Phys., 2017 147 034112-XXXX
     doi.org/10.1063/1.4993215
  6. Caldeweyher,E.; Ehlert,S.; Hansen,A.; Neugebauer,H.; Spicher,S.; Bannwarth,C.; Grimme,S.
     A generally applicable atomic-charge dependent London dispersion correction
     J. Chem. Phys., 2019 150 154122-XXXX
     doi.org/10.1063/1.5090222
  7. Caldeweyher,E.; Mewes,J.; Ehlert,S.; Grimme,S.
     Extension and evaluation of the D4 London-dispersion model for periodic systems
     Phys. Chem. Chem. Phys., 2020 22(16)8499-8512
     doi.org/10.1039/D0CP00502A

List of suggested additional citations. These are papers that are important in the 'surrounding' of 
of this run, or papers that preceded the highly important papers. If you like your results we are grateful for a citation.

  1. Neese,F.
     The ORCA program system
     WIRES Comput. Molec. Sci., 2012 2(1)73-78
     doi.org/10.1002/wcms.81
  2. Neese,F.
     Software update: the ORCA program system, version 4.0
     WIRES Comput. Molec. Sci., 2018 8(1)1-6
     doi.org/10.1002/wcms.1327
  3. Neese,F.; Wennmohs,F.; Becker,U.; Riplinger,C.
     The ORCA quantum chemistry program package
     J. Chem. Phys., 2020 152 Art. No. L224108
     doi.org/10.1063/5.0004608

List of optional additional citations

  1. Neese,F.
     Approximate second-order SCF convergence for spin unrestricted wavefunctions
     Chem. Phys. Lett., 2000 325(1-3)93-98
     doi.org/10.1016/s0009-2614(00)00662-x

Timings for individual modules:

Sum of individual times          ...       18.340 sec (=   0.306 min)
Startup calculation              ...        0.994 sec (=   0.017 min)   5.4 %
SCF iterations                   ...        9.800 sec (=   0.163 min)  53.4 %
Property calculations            ...        0.094 sec (=   0.002 min)   0.5 %
SCF Gradient evaluation          ...        7.452 sec (=   0.124 min)  40.6 %
                             ****ORCA TERMINATED NORMALLY****
TOTAL RUN TIME: 0 days 0 hours 0 minutes 18 seconds 983 msec
  ------------------------------------------------------------------------
          * successful ORCA run, taking over control again...

         :::::::::::::::::::::::::::::::::::::::::::::::::::::
         ::                  ORCA SUMMARY                   ::
         :::::::::::::::::::::::::::::::::::::::::::::::::::::
         :: total energy            -326.822064826837 Eh    ::
         :: gradient norm              0.020351782072 Eh/a0 ::
         :: HOMO-LUMO gap              0.000000000000 eV    ::
         :::::::::::::::::::::::::::::::::::::::::::::::::::::

      ----------------------------------------------------------- 
     |                       L-ANC optimizer                     |
      ----------------------------------------------------------- 
          low memory version by Sebastian Ehlert

          ...................................................
          :                      SETUP                      :
          :.................................................:
          :   energy convergence        0.5000000E-05 Eh    :
          :   grad. convergence         0.1000000E-02 Eh/a0 :
          :   optimization log               true           :
          :   writing optlog all                1     steps :
          :   Hessian reset                     8     steps :
          :   maximium step len.        1.0000000     a0    :
          :   LBFGS images                      8           :
          ...................................................
 * calculating model hessian...
Using Lindh-Hessian (1995)
 Shifting diagonal of input Hessian by   1.000000000000000E-002
 Lowest  eigenvalues of input Hessian
    0.000000    0.000000    0.000000    0.000000    0.000000    0.000000
    0.013653    0.016257    0.019956    0.024822    0.026062    0.034489
    0.038118    0.046215    0.064195    0.073103    0.082870    0.084627
 Highest eigenvalues
    1.510882    1.670239    1.821175    1.914866    2.028252    2.125709
 

........................................................................
.............................. CYCLE    1 ..............................
........................................................................
                         * ORCA takes the control...
  ------------------------------------------------------------------------

                                 *****************
                                 * O   R   C   A *
                                 *****************

                                            #,                                       
                                            ###                                      
                                            ####                                     
                                            #####                                    
                                            ######                                   
                                           ########,                                 
                                     ,,################,,,,,                         
                               ,,#################################,,                 
                          ,,##########################################,,             
                       ,#########################################, ''#####,          
                    ,#############################################,,   '####,        
                  ,##################################################,,,,####,       
                ,###########''''           ''''###############################       
              ,#####''   ,,,,##########,,,,          '''####'''          '####       
            ,##' ,,,,###########################,,,                        '##       
           ' ,,###''''                  '''############,,,                           
         ,,##''                                '''############,,,,        ,,,,,,###''
      ,#''                                            '''#######################'''  
     '                                                          ''''####''''         
             ,#######,   #######,   ,#######,      ##                                
            ,#'     '#,  ##    ##  ,#'     '#,    #''#        ,####,   ,####,        
            ##       ##  ##   ,#'  ##            #'  '#       #'       #'  '#        
            ##       ##  #######   ##           ,######,      #####,   #    #        
            '#,     ,#'  ##    ##  '#,     ,#' ,#      #,     #,   #   #,  ,#        
             '#######'   ##     ##  '#######'  #'      '#     '####' # '####'        



                #########################################################
                #                        -***-                          #
                #          Department of theory and spectroscopy        #
                #                                                       #
                #                      Frank Neese                      #
                #                                                       #
                #     Directorship, Architecture, Infrastructure        #
                #                    SHARK, DRIVERS                     #
                #        Core code/Algorithms in most modules           #
                #                                                       #
                #        Max Planck Institute fuer Kohlenforschung      #
                #                Kaiser Wilhelm Platz 1                 #
                #                 D-45470 Muelheim/Ruhr                 #
                #                      Germany                          #
                #                                                       #
                #                  All rights reserved                  #
                #                        -***-                          #
                #########################################################


                         Program Version 6.0.0  -   RELEASE  -


 With contributions from (in alphabetic order):
   Daniel Aravena         : Magnetic Suceptibility
   Michael Atanasov       : Ab Initio Ligand Field Theory (pilot matlab implementation)
   Alexander A. Auer      : GIAO ZORA, VPT2 properties, NMR spectrum
   Ute Becker             : All parallelization in ORCA, NUMFREQ, NUMCALC
   Giovanni Bistoni       : ED, misc. LED, open-shell LED, HFLD
   Martin Brehm           : Molecular dynamics
   Dmytro Bykov           : pre 5.0 version of the SCF Hessian
   Marcos Casanova-Páez   : Triplet and SCS-CIS(D). UHF-(DLPNO)-IP/EA/STEOM-CCSD. UHF-CVS-IP/STEOM-CCSD
   Vijay G. Chilkuri      : MRCI spin determinant printing, contributions to CSF-ICE
   Pauline Colinet        : FMM embedding
   Dipayan Datta          : RHF DLPNO-CCSD density
   Achintya Kumar Dutta   : EOM-CC, STEOM-CC
   Nicolas Foglia         : Exact transition moments, OPA infrastructure, MCD improvements
   Dmitry Ganyushin       : Spin-Orbit,Spin-Spin,Magnetic field MRCI
   Miquel Garcia          : C-PCM and meta-GGA Hessian, CCSD/C-PCM, Gaussian charge scheme
   Tiago L. C. Gouveia    : GS-ROHF, GS-ROCIS
   Yang Guo               : DLPNO-NEVPT2, F12-NEVPT2, CIM, IAO-localization
   Andreas Hansen         : Spin unrestricted coupled pair/coupled cluster methods
   Ingolf Harden          : AUTO-CI MPn and infrastructure 
   Benjamin Helmich-Paris : MC-RPA, TRAH-(SCF,CASSCF), AVAS, COSX integrals, SCF dyn. polar.
   Lee Huntington         : MR-EOM, pCC
   Robert Izsak           : Overlap fitted RIJCOSX, COSX-SCS-MP3, EOM
   Riya Kayal             : Wick's Theorem for AUTO-CI, AUTO-CI UHF-CCSDT
   Emily Kempfer          : AUTO-CI, RHF CISDT and CCSDT
   Christian Kollmar      : KDIIS, OOCD, Brueckner-CCSD(T), CCSD density, CASPT2, CASPT2-K, improved NEVPT2
   Axel Koslowski         : Symmetry handling
   Simone Kossmann        : Meta GGA functionals, TD-DFT gradient, OOMP2, (MP2 Hessian; deprecated post 5.0)
   Lucas Lang             : DCDCAS
   Marvin Lechner         : AUTO-CI (C++ implementation), FIC-MRCC
   Spencer Leger          : CASSCF response
   Dagmar Lenk            : GEPOL surface, SMD, ORCA-2-JSON
   Dimitrios Liakos       : Extrapolation schemes; Compound Job, initial MDCI parallelization
   Dimitrios Manganas     : Further ROCIS development; embedding schemes. LFT, Crystal Embedding
   Dimitrios Pantazis     : SARC Basis sets
   Anastasios Papadopoulos: AUTO-CI, single reference methods and gradients
   Taras Petrenko         : pre 6.0 DFT Hessian and TD-DFT gradient, (ASA, deprecated), ECA, 1-Electron XAS/XES, NRVS
   Peter Pinski           : DLPNO-MP2, DLPNO-MP2 Gradient
   Christoph Reimann      : Effective Core Potentials
   Marius Retegan         : Local ZFS, SOC
   Christoph Riplinger    : Optimizer, TS searches, QM/MM, DLPNO-CCSD(T), (RO)-DLPNO pert. Triples
   Michael Roemelt        : Original ROCIS implementation
   Masaaki Saitow         : Open-shell DLPNO-CCSD energy and density
   Barbara Sandhoefer     : DKH picture change effects
   Kantharuban Sivalingam : CASSCF convergence/infrastructure, NEVPT2 and variants, FIC-MRCI
   Bernardo de Souza      : ESD, SOC TD-DFT
   Georgi Stoychev        : AutoAux, RI-MP2 NMR, DLPNO-MP2 response, X2C
   Van Anh Tran           : RI-MP2 g-tensors
   Willem Van den Heuvel  : Paramagnetic NMR
   Zikuan Wang            : NOTCH, Electric field optimization 
   Frank Wennmohs         : Technical directorship and infrastructure
   Hang Xu                : AUTO-CI-Response properties 


 We gratefully acknowledge several colleagues who have allowed us to
 interface, adapt or use parts of their codes:
   Stefan Grimme, W. Hujo, H. Kruse, P. Pracht,  : VdW corrections, initial TS optimization,
                  C. Bannwarth, S. Ehlert,         DFT functionals, gCP, sTDA/sTD-DF
                  L. Wittmann, M. Mueller
   Ed Valeev, F. Pavosevic, A. Kumar             : LibInt (2-el integral package), F12 methods
   Garnet Chan, S. Sharma, J. Yang, R. Olivares  : DMRG
   Ulf Ekstrom                                   : XCFun DFT Library
   Mihaly Kallay                                 : mrcc  (arbitrary order and MRCC methods)
   Frank Weinhold                                : gennbo (NPA and NBO analysis)
   Simon Mueller                                 : openCOSMO-RS
   Christopher J. Cramer and Donald G. Truhlar   : smd solvation model
   Lars Goerigk                                  : TD-DFT with DH, B97 family of functionals
   V. Asgeirsson, H. Jonsson                     : NEB implementation
   FAccTs GmbH                                   : IRC, NEB, NEB-TS, DLPNO-Multilevel, CI-OPT
                                                   MM, QMMM, 2- and 3-layer-ONIOM, Crystal-QMMM,
                                                   LR-CPCM, SF, NACMEs, symmetry and pop. for TD-DFT,
                                                   nearIR, NL-DFT gradient (VV10), updates on ESD,
                                                   ML-optimized integration grids, MBIS, APM,
                                                   GOAT, DOCKER, SOLVATOR, interface openCOSMO-RS
   S Lehtola, MJT Oliveira, MAL Marques          : LibXC Library
   Liviu Ungur et al                             : ANISO software


 Your calculation uses the libint2 library for the computation of 2-el integrals
 For citations please refer to: http://libint.valeyev.net

 Your ORCA version has been built with support for libXC version: 6.2.2
 For citations please refer to: https://libxc.gitlab.io

 This ORCA versions uses:
   CBLAS   interface :  Fast vector & matrix operations
   LAPACKE interface :  Fast linear algebra routines
   SCALAPACK package :  Parallel linear algebra routines
   Shared memory     :  Shared parallel matrices
   BLAS/LAPACK       :  OpenBLAS 0.3.27  USE64BITINT DYNAMIC_ARCH NO_AFFINITY SkylakeX SINGLE_THREADED
        Core in use  :  SkylakeX
   Copyright (c) 2011-2014, The OpenBLAS Project




***************************************
The coordinates will be read from file: xtb_opt.xyz
***************************************


Your calculation utilizes the geometrical counterpoise correction gCP
Please cite in your paper:
H.Kruse, S. Grimme J.Chem.Phys., 136, (2012), 154101 
   

Your calculation utilizes the atom-pairwise dispersion correction
based on EEQ partial charges (D4)


Your calculation utilizes the SMD solvation module
Please cite in your paper:
A.V. Marenich, C.J. Cramer, D.G. Truhlar J. Phys. Chem. B, 113, (2009), 6378 

================================================================================

----- Orbital basis set information -----
Your calculation utilizes the basis: def2-mTZVPP
   Stefan Grimme, Andreas Hansen, Sebastian Ehlert, and Jan-Michael Mewes 
   J. Chem. Phys. 154, 064103 (2021). DOI: 10.1063/5.0040021

----- AuxJ basis set information -----
Your calculation utilizes the auxiliary basis: def2/J
   F. Weigend, Phys. Chem. Chem. Phys. 8, 1057 (2006).

================================================================================
                                        WARNINGS
                       Please study these warnings very carefully!
================================================================================

WARNING: Old DensityContainer found on disk!
         Will remove this file - 
         If you want to keep old densities, please start your calculation with a different basename. 

Using LibXC functional ID 497 : Re-regularized SCAN exchange by Furness et al
[ 1]  J. W. Furness, A. D. Kaplan, J. Ning, J. P. Perdew, and J. Sun.,  J. Phys. Chem. Lett. 11, 8208-8215 (2020)
[ 2]  J. W. Furness, A. D. Kaplan, J. Ning, J. P. Perdew, and J. Sun.,  J. Phys. Chem. Lett. 11, 9248-9248 (2020)
Using LibXC functional ID 498 : Re-regularized SCAN correlation by Furness et al
[ 1]  J. W. Furness, A. D. Kaplan, J. Ning, J. P. Perdew, and J. Sun.,  J. Phys. Chem. Lett. 11, 8208-8215 (2020)
[ 2]  J. W. Furness, A. D. Kaplan, J. Ning, J. P. Perdew, and J. Sun.,  J. Phys. Chem. Lett. 11, 9248-9248 (2020)
Using LibXC functional ID 497 : Re-regularized SCAN exchange by Furness et al
[ 1]  J. W. Furness, A. D. Kaplan, J. Ning, J. P. Perdew, and J. Sun.,  J. Phys. Chem. Lett. 11, 8208-8215 (2020)
[ 2]  J. W. Furness, A. D. Kaplan, J. Ning, J. P. Perdew, and J. Sun.,  J. Phys. Chem. Lett. 11, 9248-9248 (2020)
Using LibXC functional ID 498 : Re-regularized SCAN correlation by Furness et al
[ 1]  J. W. Furness, A. D. Kaplan, J. Ning, J. P. Perdew, and J. Sun.,  J. Phys. Chem. Lett. 11, 8208-8215 (2020)
[ 2]  J. W. Furness, A. D. Kaplan, J. Ning, J. P. Perdew, and J. Sun.,  J. Phys. Chem. Lett. 11, 9248-9248 (2020)

================================================================================
                                       INPUT FILE
================================================================================
NAME = xtb_opt.inp
|  1> ! r2scan-3c def2/J RI DEFGRID2 scfconv7 ENGRAD tightSCF miniprint
|  2> %cpcm
|  3>     smd true
|  4>     smdsolvent "water"
|  5> end
|  6> * xyzfile 0 1 xtb_opt.xyz
|  7> 
|  8>                          ****END OF INPUT****
================================================================================

                     *******************************
                     * Energy+Gradient Calculation *
                     *******************************

---------------------------------
CARTESIAN COORDINATES (ANGSTROEM)
---------------------------------
  C     -2.861074    0.403168   -0.104691
  N     -1.822217   -0.580394    0.136191
  C     -0.486842   -0.260910    0.046125
  C      0.467918   -1.293981   -0.008689
  C      1.822154   -1.006906   -0.042178
  C      2.271786    0.313539   -0.028459
  C      1.333955    1.340206    0.011480
  C     -0.029302    1.068186    0.043115
  H     -2.791602    0.868523   -1.098865
  H     -2.828563    1.198155    0.646507
  H     -3.829447   -0.091415   -0.022964
  H     -2.046804   -1.524127   -0.139468
  H      0.127858   -2.325295   -0.017673
  H      2.536821   -1.822343   -0.078074
  H      3.332451    0.534979   -0.053945
  H      1.665494    2.373385    0.015878
  H     -0.735501    1.889316    0.070367

----------------------------
CARTESIAN COORDINATES (A.U.)
----------------------------
  NO LB      ZA    FRAG     MASS         X           Y           Z
   0 C     6.0000    0    12.011   -5.406647    0.761877   -0.197837
   1 N     7.0000    0    14.007   -3.443492   -1.096786    0.257365
   2 C     6.0000    0    12.011   -0.919998   -0.493049    0.087163
   3 C     6.0000    0    12.011    0.884236   -2.445269   -0.016420
   4 C     6.0000    0    12.011    3.443372   -1.902776   -0.079706
   5 C     6.0000    0    12.011    4.293054    0.592503   -0.053780
   6 C     6.0000    0    12.011    2.520810    2.532623    0.021695
   7 C     6.0000    0    12.011   -0.055373    2.018578    0.081475
   8 H     1.0000    0     1.008   -5.275364    1.641270   -2.076553
   9 H     1.0000    0     1.008   -5.345210    2.264185    1.221721
  10 H     1.0000    0     1.008   -7.236605   -0.172749   -0.043395
  11 H     1.0000    0     1.008   -3.867900   -2.880183   -0.263556
  12 H     1.0000    0     1.008    0.241616   -4.394170   -0.033396
  13 H     1.0000    0     1.008    4.793897   -3.443729   -0.147538
  14 H     1.0000    0     1.008    6.297419    1.010965   -0.101941
  15 H     1.0000    0     1.008    3.147327    4.485047    0.030005
  16 H     1.0000    0     1.008   -1.389895    3.570290    0.132975

------------------------------------------------------------------------------
                   ___                                                        
                  /   \      - P O W E R E D   B Y -                         
                 /     \                                                     
                 |  |  |   _    _      __       _____    __    __             
                 |  |  |  | |  | |    /  \     |  _  \  |  |  /  |          
                  \  \/   | |  | |   /    \    | | | |  |  | /  /          
                 / \  \   | |__| |  /  /\  \   | |_| |  |  |/  /          
                |  |  |   |  __  | /  /__\  \  |    /   |      \           
                |  |  |   | |  | | |   __   |  |    \   |  |\   \          
                \     /   | |  | | |  |  |  |  | |\  \  |  | \   \       
                 \___/    |_|  |_| |__|  |__|  |_| \__\ |__|  \__/        
                                                                              
                      - O R C A' S   B I G   F R I E N D -                    
                                      &                                       
                       - I N T E G R A L  F E E D E R -                       
                                                                              
 v1 FN, 2020, v2 2021, v3 2022-2024                                           
------------------------------------------------------------------------------


----------------------
SHARK INTEGRAL PACKAGE
----------------------

Number of atoms                             ...     17
Number of basis functions                   ...    202
Number of shells                            ...    100
Maximum angular momentum                    ...      2
Integral batch strategy                     ... SHARK/LIBINT Hybrid
RI-J (if used) integral strategy            ... SPLIT-RIJ (Revised 2003 algorithm where possible)
Printlevel                                  ...      1
Contraction scheme used                     ... SEGMENTED contraction
Prescreening option                         ... SCHWARTZ
   Thresh                                   ... 3.000e-11
   Tcut                                     ... 1.000e-12
   Tpresel                                  ... 1.000e-12 
Coulomb Range Separation                    ... NOT USED
Exchange Range Separation                   ... NOT USED
Multipole approximations                    ... NOT USED
Finite Nucleus Model                        ... NOT USED
CABS basis                                  ... NOT available
Auxiliary Coulomb fitting basis             ... AVAILABLE
   # of basis functions in Aux-J            ...    491
   # of shells in Aux-J                     ...    165
   Maximum angular momentum in Aux-J        ...      4
Auxiliary J/K fitting basis                 ... NOT available
Auxiliary Correlation fitting basis         ... NOT available
Auxiliary 'external' fitting basis          ... NOT available

Checking pre-screening integrals            ... done (  0.0 sec) Dimension = 100
Check shell pair data                       ... done (  0.0 sec)
Shell pair information
Shell pair cut-off parameter TPreSel        ...   1.0e-12
Total number of shell pairs                 ...      5050
Shell pairs after pre-screening             ...      4597
Total number of primitive shell pairs       ...     18348
Primitive shell pairs kept                  ...     12067
          la=0 lb=0:   1522 shell pairs
          la=1 lb=0:   1749 shell pairs
          la=1 lb=1:    522 shell pairs
          la=2 lb=0:    481 shell pairs
          la=2 lb=1:    279 shell pairs
          la=2 lb=2:     44 shell pairs

Calculating one electron integrals          ... done (  0.0 sec)
Calculating RI/J V-Matrix + Cholesky decomp.... done (  0.1 sec)
Calculating Nuclear repulsion               ... done (  0.0 sec) ENN=    344.598946053552 Eh

Diagonalization of the overlap matrix:
Smallest eigenvalue                        ... 3.311e-05
Time for diagonalization                   ...    0.003 sec
Threshold for overlap eigenvalues          ... 1.000e-07
Number of eigenvalues below threshold      ... 0
Time for construction of square roots      ...    0.013 sec
Total time needed                          ...    0.024 sec

-------------------
DFT GRID GENERATION
-------------------

General Integration Accuracy     IntAcc      ... 4.388
Radial Grid Type                 RadialGrid  ... OptM3 with GC (2021)
Angular Grid (max. ang.)         AngularGrid ... 4 (Lebedev-302)
Angular grid pruning method      GridPruning ... 4 (adaptive)
Weight generation scheme         WeightScheme... mBecke (2022)
Basis function cutoff            BFCut       ... 1.0000e-11
Integration weight cutoff        WCut        ... 1.0000e-14
Partially contracted basis set               ... off
Rotationally invariant grid construction     ... off
Angular grids for H and He will be reduced by one unit

Total number of grid points                  ...    77057
Total number of batches                      ...     1213
Average number of points per batch           ...       63
Average number of grid points per atom       ...     4533
Initializing property integral containers    ... done (  0.0 sec)

SHARK setup successfully completed in   1.0 seconds

Maximum memory used throughout the entire STARTUP-calculation: 33.9 MB
Occupation numbers will be reassigned to an Aufbau configuration
             **** ENERGY FILE WAS UPDATED (xtb_opt.en.tmp) ****
Finished Guess after   0.2 sec
Maximum memory used throughout the entire GUESS-calculation: 14.0 MB
--------------------
CPCM SOLVATION MODEL
--------------------
CPCM parameters:
  Epsilon                                         ...      78.3550
  Refrac                                          ...       1.3328
  Rsolv                                           ...       1.3000
  Surface type                                    ... GAUSSIAN VDW
  Discretization scheme                           ... Constant charge density
    Threshold for H atoms                         ...       5.0000 (charges/Ang^2)
    Threshold for non-H atoms                     ...       5.0000 (charges/Ang^2)
  Epsilon function type                           ...         CPCM
Solvent:                                          ... WATER
SMD-CDS solvent descriptors:
  Soln                                            ...       1.3328
  Soln25                                          ...       1.3323
  Sola                                            ...       0.0000
  Solb                                            ...       0.0000
  Solg                                            ...       0.0000
  Solc                                            ...       0.0000
  Solh                                            ...       0.0000
Radii:
  Scheme                                          ... Element-dependent radii
  Radius for C  used is    3.4960 Bohr (=   1.8500 Ang.)
  Radius for N  used is    3.5716 Bohr (=   1.8900 Ang.)
  Radius for H  used is    2.2677 Bohr (=   1.2000 Ang.)
Calculating surface                               ...        done! (  0.0s)
Cavity surface points                             ...         1349
Cavity Volume                                     ...     845.4837
Cavity Surface-area                               ...     525.7524
Calculating surface distance matrix               ...        done! (  0.0s)
Performing Cholesky decomposition & store         ...        done! (  0.1s)
Overall time for CPCM initialization              ...                 0.1s

----------------------------------------D-I-I-S--------------------------------------------
Iteration    Energy (Eh)           Delta-E    RMSDP     MaxDP     DIISErr   Damp  Time(sec)
-------------------------------------------------------------------------------------------
               ***  Starting incremental Fock matrix formation  ***
    1    -326.8305767661513528     0.00e+00  1.02e-04  2.22e-03  3.70e-03  0.700   2.5
                              *** Initializing SOSCF ***
---------------------------------------S-O-S-C-F--------------------------------------
Iteration    Energy (Eh)           Delta-E    RMSDP     MaxDP     MaxGrad    Time(sec)
--------------------------------------------------------------------------------------
    2    -326.8306547531709612    -7.80e-05  3.02e-04  6.90e-03  2.83e-03     2.1
               *** Restarting incremental Fock matrix formation ***
    3    -326.8308252066836985    -1.70e-04  8.14e-05  1.04e-03  4.15e-04     2.6
    4    -326.8308206218159739     4.58e-06  3.47e-05  6.60e-04  5.45e-04     2.2
    5    -326.8308334465181133    -1.28e-05  1.97e-05  4.54e-04  1.65e-04     2.1
    6    -326.8308326296877340     8.17e-07  1.24e-05  2.47e-04  2.13e-04     2.1
    7    -326.8308340104745184    -1.38e-06  1.86e-06  4.07e-05  1.72e-05     2.0
                  *** Gradient check signals convergence ***

               *****************************************************
               *                     SUCCESS                       *
               *           SCF CONVERGED AFTER   7 CYCLES          *
               *****************************************************


SMD CDS free energy correction energy :                 2.70908     Kcal/mol
Total Energy after SMD CDS correction =              -326.826516812 Eh
             **** ENERGY FILE WAS UPDATED (xtb_opt.en.tmp) ****

----------------
TOTAL SCF ENERGY
----------------

Total Energy       :       -326.82651681186422 Eh           -8893.40165 eV

Components:
Nuclear Repulsion  :        344.59894605355180 Eh            9377.01404 eV
Electronic Energy  :       -671.41502536075325 Eh          -18270.13168 eV
One Electron Energy:      -1123.12469457804400 Eh          -30561.77667 eV
Two Electron Energy:        451.70966921729075 Eh           12291.64499 eV
CPCM Dielectric    :         -0.01475470327307 Eh              -0.40150 eV
SMD CDS (Gcds)     :          0.00431719861027 Eh               0.11748 eV

Virial components:
Potential Energy   :       -652.15262215390976 Eh          -17745.97504 eV
Kinetic Energy     :        325.32610534204554 Eh            8852.57338 eV
Virial Ratio       :          2.00461202296767

DFT components:
N(Alpha)           :       29.000004244979 electrons
N(Beta)            :       29.000004244979 electrons
N(Total)           :       58.000008489958 electrons
E(X)               :      -46.294690450992 Eh       
E(C)               :       -1.854882385535 Eh       
E(XC)              :      -48.149572836527 Eh       

CPCM Solvation Model Properties:
Surface-charge          :         -0.04366036957412
Corrected charge        :          0.00000000000000
Outlying charge corr.   :          0.00014983379067 Eh               0.00408 eV
Free-energy (cav+disp)  :          0.00431719861027 Eh               0.11748 eV

---------------
SCF CONVERGENCE
---------------

  Last Energy change         ...    1.3808e-06  Tolerance :   1.0000e-07
  Last MAX-Density change    ...    4.0707e-05  Tolerance :   1.0000e-07
  Last RMS-Density change    ...    1.8628e-06  Tolerance :   5.0000e-09
  Last DIIS Error            ...    2.8252e-03  Tolerance :   1.0000e-07
  Last Orbital Gradient      ...    1.7196e-05  Tolerance :   1.0000e-04
  Last Orbital Rotation      ...    6.3442e-05  Tolerance :   1.0000e-04


----------------
ORBITAL ENERGIES
----------------

  NO   OCC          E(Eh)            E(eV) 
   0   2.0000     -14.167481      -385.5167 
   1   2.0000     -10.072478      -274.0861 
   2   2.0000     -10.049522      -273.4614 
   3   2.0000     -10.031953      -272.9833 
   4   2.0000     -10.031849      -272.9805 
   5   2.0000     -10.026123      -272.8247 
   6   2.0000     -10.025034      -272.7950 
   7   2.0000     -10.021162      -272.6897 
   8   2.0000      -0.898028       -24.4366 
   9   2.0000      -0.806447       -21.9445 
  10   2.0000      -0.711627       -19.3643 
  11   2.0000      -0.704280       -19.1644 
  12   2.0000      -0.640037       -17.4163 
  13   2.0000      -0.574400       -15.6302 
  14   2.0000      -0.551087       -14.9958 
  15   2.0000      -0.494901       -13.4669 
  16   2.0000      -0.458081       -12.4650 
  17   2.0000      -0.432525       -11.7696 
  18   2.0000      -0.403742       -10.9864 
  19   2.0000      -0.401396       -10.9225 
  20   2.0000      -0.384014       -10.4495 
  21   2.0000      -0.380327       -10.3492 
  22   2.0000      -0.347303        -9.4506 
  23   2.0000      -0.343075        -9.3355 
  24   2.0000      -0.320683        -8.7262 
  25   2.0000      -0.300614        -8.1801 
  26   2.0000      -0.272485        -7.4147 
  27   2.0000      -0.235496        -6.4082 
  28   2.0000      -0.177596        -4.8326 
  29   0.0000      -0.030998        -0.8435 
  30   0.0000      -0.012147        -0.3305 
  31   0.0000       0.083968         2.2849 
  32   0.0000       0.099449         2.7062 
  33   0.0000       0.112425         3.0592 
  34   0.0000       0.126080         3.4308 
  35   0.0000       0.131147         3.5687 
  36   0.0000       0.136567         3.7162 
  37   0.0000       0.143185         3.8963 
  38   0.0000       0.158899         4.3239 
  39   0.0000       0.174464         4.7474 
*Only the first 10 virtual orbitals were printed.
Total SCF time: 0 days 0 hours 0 min 16 sec 
Finished LeanSCF after  16.1 sec

Maximum memory used throughout the entire LEANSCF-calculation: 26.1 MB


-------------------------------------------------------------------------------
                          DFT DISPERSION CORRECTION                            
                                                                               
                                DFTD4 V3.4.0                                   
-------------------------------------------------------------------------------
-------------------------   ----------------
Dispersion correction           -0.005281235
-------------------------   ----------------

------------------   -----------------
gCP correction             0.008810326
------------------   -----------------

-------------------------   --------------------
FINAL SINGLE POINT ENERGY      -326.822987720703
-------------------------   --------------------

------------------------------------------------------------------------------
                         ORCA SCF GRADIENT CALCULATION
------------------------------------------------------------------------------

Nuc. rep. gradient        (SHARK) ... done (  0.0 sec)
HCore & Overlap gradient  (SHARK) ... done (  0.2 sec)
Split-RIJ-J gradient      (SHARK) ... done (  1.2 sec)
XC gradient                       ... done (  4.8 sec)
CPCM gradient                     ... done (  0.7 sec)
SMD gradient                      ... done (  0.0 sec)
Dispersion correction             ... done (  0.0 sec)

-------------------
DISPERSION GRADIENT
-------------------

   1   C   :   -0.000102002    0.000024583   -0.000007174
   2   N   :   -0.000091860   -0.000039333    0.000002677
   3   C   :   -0.000022071   -0.000015172    0.000003007
   4   C   :    0.000031630   -0.000073538    0.000000989
   5   C   :    0.000078930   -0.000047904   -0.000001765
   6   C   :    0.000088281    0.000014862   -0.000001297
   7   C   :    0.000071227    0.000068912    0.000001367
   8   C   :    0.000006476    0.000056094    0.000003835
   9   H   :   -0.000040327    0.000006111   -0.000008916
  10   H   :   -0.000038913    0.000007397    0.000004953
  11   H   :   -0.000033681    0.000000084   -0.000000395
[...]
Surface-charge          :         -0.04356878350242
Corrected charge        :          0.00000000000000
Outlying charge corr.   :          0.00014915988835 Eh               0.00406 eV
Free-energy (cav+disp)  :          0.00408749087870 Eh               0.11123 eV

---------------
SCF CONVERGENCE
---------------

  Last Energy change         ...    4.9238e-10  Tolerance :   1.0000e-07
  Last MAX-Density change    ...    1.3452e-05  Tolerance :   1.0000e-07
  Last RMS-Density change    ...    4.6873e-07  Tolerance :   5.0000e-09
  Last DIIS Error            ...    1.8682e-05  Tolerance :   1.0000e-07
  Last Orbital Gradient      ...    2.5834e-06  Tolerance :   1.0000e-04
  Last Orbital Rotation      ...    8.9945e-06  Tolerance :   1.0000e-04


----------------
ORBITAL ENERGIES
----------------

  NO   OCC          E(Eh)            E(eV) 
   0   2.0000     -14.167596      -385.5199 
   1   2.0000     -10.072841      -274.0959 
   2   2.0000     -10.049010      -273.4475 
   3   2.0000     -10.033128      -273.0153 
   4   2.0000     -10.033053      -273.0132 
   5   2.0000     -10.027794      -272.8701 
   6   2.0000     -10.026422      -272.8328 
   7   2.0000     -10.023093      -272.7422 
   8   2.0000      -0.895973       -24.3807 
   9   2.0000      -0.806160       -21.9367 
  10   2.0000      -0.711465       -19.3600 
  11   2.0000      -0.703402       -19.1405 
  12   2.0000      -0.638924       -17.3860 
  13   2.0000      -0.573795       -15.6138 
  14   2.0000      -0.550934       -14.9917 
  15   2.0000      -0.493352       -13.4248 
  16   2.0000      -0.456943       -12.4340 
  17   2.0000      -0.431273       -11.7355 
  18   2.0000      -0.404082       -10.9956 
  19   2.0000      -0.401444       -10.9238 
  20   2.0000      -0.382764       -10.4155 
  21   2.0000      -0.379398       -10.3239 
  22   2.0000      -0.347279        -9.4499 
  23   2.0000      -0.341419        -9.2905 
  24   2.0000      -0.320884        -8.7317 
  25   2.0000      -0.300984        -8.1902 
  26   2.0000      -0.272106        -7.4044 
  27   2.0000      -0.235737        -6.4147 
  28   2.0000      -0.180927        -4.9233 
  29   0.0000      -0.031949        -0.8694 
  30   0.0000      -0.014496        -0.3945 
  31   0.0000       0.082952         2.2572 
  32   0.0000       0.098815         2.6889 
  33   0.0000       0.112284         3.0554 
  34   0.0000       0.124857         3.3975 
  35   0.0000       0.131262         3.5718 
  36   0.0000       0.136941         3.7264 
  37   0.0000       0.142798         3.8857 
  38   0.0000       0.158289         4.3073 
  39   0.0000       0.174934         4.7602 
*Only the first 10 virtual orbitals were printed.
Total SCF time: 0 days 0 hours 0 min 5 sec 
Finished LeanSCF after   6.0 sec

Maximum memory used throughout the entire LEANSCF-calculation: 26.1 MB


-------------------------------------------------------------------------------
                          DFT DISPERSION CORRECTION                            
                                                                               
                                DFTD4 V3.4.0                                   
-------------------------------------------------------------------------------
-------------------------   ----------------
Dispersion correction           -0.005284776
-------------------------   ----------------

------------------   -----------------
gCP correction             0.008775413
------------------   -----------------

-------------------------   --------------------
FINAL SINGLE POINT ENERGY      -326.823238374895
-------------------------   --------------------

------------------------------------------------------------------------------
                         ORCA SCF GRADIENT CALCULATION
------------------------------------------------------------------------------

Nuc. rep. gradient        (SHARK) ... done (  0.0 sec)
HCore & Overlap gradient  (SHARK) ... done (  0.2 sec)
Split-RIJ-J gradient      (SHARK) ... done (  1.2 sec)
XC gradient                       ... done (  4.9 sec)
CPCM gradient                     ... done (  0.7 sec)
SMD gradient                      ... done (  0.0 sec)
Dispersion correction             ... done (  0.0 sec)

-------------------
DISPERSION GRADIENT
-------------------

   1   C   :   -0.000101175    0.000024758   -0.000008678
   2   N   :   -0.000091954   -0.000039458    0.000003719
   3   C   :   -0.000022640   -0.000015378    0.000004210
   4   C   :    0.000031783   -0.000073911    0.000001830
   5   C   :    0.000079410   -0.000047947   -0.000002459
   6   C   :    0.000088631    0.000015079   -0.000002501
   7   C   :    0.000071589    0.000069155    0.000001013
   8   C   :    0.000005592    0.000055782    0.000004672
   9   H   :   -0.000041042    0.000006366   -0.000009005
  10   H   :   -0.000038602    0.000007306    0.000004857
  11   H   :   -0.000033678    0.000000187   -0.000000961
  12   H   :   -0.000030912   -0.000011867    0.000002561
  13   H   :    0.000004150   -0.000045582    0.000001012
  14   H   :    0.000030364   -0.000027505   -0.000001771
  15   H   :    0.000036632    0.000007719   -0.000001609
  16   H   :    0.000022603    0.000038944    0.000000087
  17   H   :   -0.000010750    0.000036351    0.000003024

Difference to translation invariance:
           :   -0.0000000000    0.0000000000   -0.0000000000

Difference to rotation invariance:
           :   -0.0000000000   -0.0000000000    0.0000000000

Norm of the Dispersion gradient    ...    0.0002687629
RMS gradient                       ...    0.0000376343
MAX gradient                       ...    0.0001011747
gCP correction                   ... done

------------------
CARTESIAN GRADIENT
------------------

   1   C   :   -0.000082312   -0.000006430   -0.000008785
   2   N   :    0.000121554   -0.000177794    0.000034910
   3   C   :    0.000091739    0.000067395    0.000020978
   4   C   :   -0.000132036    0.000134213    0.000001445
   5   C   :    0.000022761    0.000017351    0.000016431
   6   C   :   -0.000135065   -0.000068378    0.000005570
   7   C   :   -0.000001343    0.000038990   -0.000005600
   8   C   :    0.000018550   -0.000186568   -0.000057140
   9   H   :    0.000015194   -0.000002724    0.000033786
  10   H   :    0.000042794    0.000012132    0.000044560
  11   H   :    0.000029338    0.000018754    0.000020880
  12   H   :   -0.000020905    0.000145125   -0.000074049
  13   H   :    0.000045575    0.000025906   -0.000001068
  14   H   :   -0.000003366    0.000046125    0.000020865
  15   H   :   -0.000008197   -0.000008003    0.000019618
  16   H   :   -0.000029966   -0.000045301   -0.000027473
  17   H   :    0.000025683   -0.000010794   -0.000044927

Difference to translation invariance:
           :   -0.0000000000    0.0000000000   -0.0000000000

Difference to rotation invariance:
           :   -0.0000755657    0.0002131491   -0.0000381248

Norm of the Cartesian gradient     ...    0.0004622412
RMS gradient                       ...    0.0000647267
MAX gradient                       ...    0.0001865682

-------
TIMINGS
-------

Total SCF gradient time     ....        7.607 sec

Densities                   ....       0.000 sec  (  0.0%)
One electron gradient       ....       0.211 sec  (  2.8%)
RI-J Coulomb gradient       ....       1.212 sec  ( 15.9%)
XC gradient                 ....       4.896 sec  ( 64.4%)
CPCM gradient               ....       0.691 sec  (  9.1%)
   A-Matrix (El+Nuc)        ....       0.056 sec  (  0.7%)
   Potential                ....       0.635 sec  (  8.3%)
SMD gradient                ....       0.011 sec  (  0.1%)

Maximum memory used throughout the entire SCFGRAD-calculation: 34.2 MB

------------------------------------------------------------------------------
                              ORCA PROPERTY CALCULATIONS
------------------------------------------------------------------------------

GBWName                                 ... xtb_opt.gbw
Number of atoms                         ...     17
Number of basis functions               ...    202
Max core memory                         ...   1024 MB

Electric properties:
Dipole moment                           ... YES
Quadrupole moment                       ...  NO
Static polarizability (Dipole/Dipole)   ...  NO
Static polarizability (Dipole/Quad.)    ...  NO
Static polarizability (Quad./Quad.)     ...  NO
Static polarizability (Velocity)        ...  NO

Atomic electric properties:
Dipole moment                           ...  NO
Quadrupole moment                       ...  NO
Static polarizability                   ...  NO

Choice of electric origin               ... Center of mass
Position of electric origin             ...    -0.002902    -0.010096     0.025384

General magnetic properties:
Magnetizability                         ...  NO

EPR properties:
g-Tensor (aka g-matrix)                 ...  NO
Zero-Field splitting spin-orbit         ...  NO
Zero-field splitting spin-spin          ...  NO
Hyperfine couplings                     ...  NO (   0 nuclei)
Quadrupole couplings                    ...  NO (   0 nuclei)
Contact density                         ...  NO (   0 nuclei)

NMR properties:
Chemical shifts                         ...  NO (   0 nuclei)
Spin-rotation constants                 ...  NO (   0 nuclei)
Spin-spin couplings                     ...  NO (   0 nuclei,    0 pairs)

Choice of magnetic origin               ... GIAO
Position of magnetic origin             ...     0.000000     0.000000     0.000000

Properties with geometric perturbations:
SCF Hessian                             ...  NO
IR spectrum                             ...  NO
VCD spectrum                            ...  NO
X-ray spectroscopy properties:
SCF XES/XAS/RIXS spectra                ...  NO


-------------
DIPOLE MOMENT
-------------

Method             : SCF
Type of density    : Electron Density
Multiplicity       :   1
Irrep              :   0
Energy             :  -326.8267290122252575 Eh
Relativity type    : 
Basis              : AO
                                X                 Y                 Z
Electronic contribution:      3.272721505      -1.328593370       0.472818195
Nuclear contribution   :     -4.261303672       1.100159073      -0.842332868
                        -----------------------------------------
Total Dipole Moment    :     -0.988582167      -0.228434297      -0.369514673
                        -----------------------------------------
Magnitude (a.u.)       :      1.079823144
Magnitude (Debye)      :      2.744692308



--------------------
Rotational spectrum 
--------------------
 
Rotational constants in cm-1:             0.165222             0.050926             0.039384 
Rotational constants in MHz :          4953.218469          1526.736200          1180.703886 

Dipole components along the rotational axes: 
x,y,z [a.u.] :    -0.985295     0.225674    -0.379846 
x,y,z [Debye]:    -2.504421     0.573618    -0.965491 

 

Dipole moment calculation done in   0.0 sec 

Maximum memory used throughout the entire PROP-calculation: 12.6 MB

--------------------------------
SUGGESTED CITATIONS FOR THIS RUN
--------------------------------

Below you find a list of papers that are relevant to this ORCA run
We neither can nor want to force you to cite these papers, but we appreciate if you do
You receive ORCA, which is the product of decades of hard work by many enthusiastic individuals, for free
The only thing we kindly ask in return is that you cite our papers,
We deeply appreciate it, if you show your appreciation for ORCA by not just citing the generic ORCA reference.

Please note that relegating all ORCA citations to the supporting information does *not* help us.
SI sections are not indexed - citations you put there will not count into any citation statistics
But we need these citations in order to attract the funding resources that allow us to do what we are doing

Therefore, if you are a happy ORCA user, please consider citing a few of the papers listed below in the main body of your paper

In addition to the list printed below, the program has created the file xtb_opt.bibtex that contains the list in bibtex format
You can import this file easily into all common literature databanks and citation aid programs


List of essential papers. We consider these as the minimum necessary citations

  1. Neese,F.
     Software update: the ORCA program system, version 5.0
     WIRES Comput. Molec. Sci., 2022 12(1)e1606
     doi.org/10.1002/wcms.1606
  2. Grimme,S.; Hansen,A.; Ehlert,S.; Mewes,J.
     r2SCAN-3c: A 'Swiss army knife' composite electronic-structure method
     J. Chem. Phys., 2021 154 064103
     doi.org/10.1063/5.0040021

List of papers to cite with high priority. The work reported in these papers was absolutely
necessary for this run to complete.
Our perspective: the developers of density functionals and basis sets usually get cited in chemistry papers
Good! But without the algorithms to do something with them, the functionals or basis sets would not do anything.
Hence, in our opinion, the algorithm design and method developments papers are equally worthy of getting cited

  1. Neese,F.
     An improvement of the resolution of the identity approximation for the formation of the Coulomb matrix
     J. Comp. Chem., 2003 24(14)1740-1747
     doi.org/10.1002/jcc.10318
  2. Garcia-Rates,M.; Neese,F.
     Effect of the Solute Cavity on the Solvation Energy and its Derivatives within the Framework of the Gaussian Charge Scheme
     J. Comput. Chem., 2020 41 922-939
     doi.org/10.1002/jcc.26139
  3. Neese,F.
     The SHARK Integral Generation and Digestion System
     J. Comp. Chem., 2022  1-16
     doi.org/10.1002/jcc.26942
  4. Lehtola,S.; Steigemann,C.; Oliveira,M.; Marques,M.
     Recent developments in Libxc - A comprehensive library of functionals for density functional theory
     Software X, 2018 7 
     doi.org/10.1016/j.softx.2017.11.002
  5. Caldeweyher,E.; Bannwarth,C.; Grimme,S.
     Extension of the D3 dispersion coefficient model
     J. Chem. Phys., 2017 147 034112-XXXX
     doi.org/10.1063/1.4993215
  6. Caldeweyher,E.; Ehlert,S.; Hansen,A.; Neugebauer,H.; Spicher,S.; Bannwarth,C.; Grimme,S.
     A generally applicable atomic-charge dependent London dispersion correction
     J. Chem. Phys., 2019 150 154122-XXXX
     doi.org/10.1063/1.5090222
  7. Caldeweyher,E.; Mewes,J.; Ehlert,S.; Grimme,S.
     Extension and evaluation of the D4 London-dispersion model for periodic systems
     Phys. Chem. Chem. Phys., 2020 22(16)8499-8512
     doi.org/10.1039/D0CP00502A

List of suggested additional citations. These are papers that are important in the 'surrounding' of 
of this run, or papers that preceded the highly important papers. If you like your results we are grateful for a citation.

  1. Neese,F.
     The ORCA program system
     WIRES Comput. Molec. Sci., 2012 2(1)73-78
     doi.org/10.1002/wcms.81
  2. Neese,F.
     Software update: the ORCA program system, version 4.0
     WIRES Comput. Molec. Sci., 2018 8(1)1-6
     doi.org/10.1002/wcms.1327
  3. Neese,F.; Wennmohs,F.; Becker,U.; Riplinger,C.
     The ORCA quantum chemistry program package
     J. Chem. Phys., 2020 152 Art. No. L224108
     doi.org/10.1063/5.0004608

List of optional additional citations

  1. Neese,F.
     Approximate second-order SCF convergence for spin unrestricted wavefunctions
     Chem. Phys. Lett., 2000 325(1-3)93-98
     doi.org/10.1016/s0009-2614(00)00662-x

Timings for individual modules:

Sum of individual times          ...       15.336 sec (=   0.256 min)
Startup calculation              ...        1.027 sec (=   0.017 min)   6.7 %
SCF iterations                   ...        6.307 sec (=   0.105 min)  41.1 %
Property calculations            ...        0.306 sec (=   0.005 min)   2.0 %
SCF Gradient evaluation          ...        7.696 sec (=   0.128 min)  50.2 %
                             ****ORCA TERMINATED NORMALLY****
TOTAL RUN TIME: 0 days 0 hours 0 minutes 16 seconds 20 msec
  ------------------------------------------------------------------------
          * successful ORCA run, taking over control again...

         :::::::::::::::::::::::::::::::::::::::::::::::::::::
         ::                  ORCA SUMMARY                   ::
         :::::::::::::::::::::::::::::::::::::::::::::::::::::
         :: total energy            -326.823238374895 Eh    ::
         :: gradient norm              0.000462241203 Eh/a0 ::
         :: HOMO-LUMO gap              0.000000000000 eV    ::
         :::::::::::::::::::::::::::::::::::::::::::::::::::::

           -------------------------------------------------
          |                Property Printout                |
           -------------------------------------------------
           -------------------------------------------------
          |                Geometry Summary                 |
           -------------------------------------------------

      molecular mass/u    :      107.1533213
   center of mass at/Å    :       -0.0015345      -0.0053431       0.0134332
  moments of inertia/u·Å² :        0.1020274E+03   0.3310102E+03   0.4280202E+03
rotational constants/cm⁻¹ :        0.1652265E+00   0.5092783E-01   0.3938513E-01

 * 17 selected distances

     #   Z          #   Z                                           value/Å
     1   6 C        2   7 N                                       1.4580710 (max)
     2   7 N        3   6 C                                       1.3858038
     3   6 C        4   6 C                                       1.4090285
     4   6 C        5   6 C                                       1.3866928
     5   6 C        6   6 C                                       1.3972416
     6   6 C        7   6 C                                       1.3920510
     3   6 C        8   6 C                                       1.4058678
     7   6 C        8   6 C                                       1.3931978
     1   6 C        9   1 H                                       1.1003478
     1   6 C       10   1 H                                       1.0946196
     1   6 C       11   1 H                                       1.0916706
     2   7 N       12   1 H                                       1.0102820 (min)
     4   6 C       13   1 H                                       1.0871685
     5   6 C       14   1 H                                       1.0862330
     6   6 C       15   1 H                                       1.0848590
     7   6 C       16   1 H                                       1.0862732
     8   6 C       17   1 H                                       1.0841165

 * 4 distinct bonds (by element types)

   Z      Z             #   av. dist./Å        max./Å        min./Å
   1 H    6 C           8     1.0894110     1.1003478     1.0841165
   6 C    6 C           6     1.3973466     1.4090285     1.3866928
   1 H    7 N           1     1.0102820     1.0102820     1.0102820
   6 C    7 N           2     1.4219374     1.4580710     1.3858038


optimized geometry written to: xtbopt.coord


           -------------------------------------------------
          | TOTAL ENERGY             -326.823238374895 Eh   |
          | GRADIENT NORM               0.000462241203 Eh/α |
           -------------------------------------------------

------------------------------------------------------------------------
 * finished run on 2025/04/05 at 00:04:23.733     
------------------------------------------------------------------------
 total:
 * wall-time:     0 d,  0 h,  3 min, 18.645 sec
 *  cpu-time:     0 d,  0 h,  0 min,  0.351 sec
 * ratio c/w:     0.002 speedup
 SCF:
 * wall-time:     0 d,  0 h,  0 min, 19.028 sec
 *  cpu-time:     0 d,  0 h,  0 min,  0.130 sec
 * ratio c/w:     0.007 speedup
 ANC optimizer:
 * wall-time:     0 d,  0 h,  2 min, 59.589 sec
 *  cpu-time:     0 d,  0 h,  0 min,  0.216 sec
 * ratio c/w:     0.001 speedup

