
                                 *****************
                                 * O   R   C   A *
                                 *****************

                                            #,                                       
                                            ###                                      
                                            ####                                     
                                            #####                                    
                                            ######                                   
                                           ########,                                 
                                     ,,################,,,,,                         
                               ,,#################################,,                 
                          ,,##########################################,,             
                       ,#########################################, ''#####,          
                    ,#############################################,,   '####,        
                  ,##################################################,,,,####,       
                ,###########''''           ''''###############################       
              ,#####''   ,,,,##########,,,,          '''####'''          '####       
            ,##' ,,,,###########################,,,                        '##       
           ' ,,###''''                  '''############,,,                           
         ,,##''                                '''############,,,,        ,,,,,,###''
      ,#''                                            '''#######################'''  
     '                                                          ''''####''''         
             ,#######,   #######,   ,#######,      ##                                
            ,#'     '#,  ##    ##  ,#'     '#,    #''#        ,####,   ,####,        
            ##       ##  ##   ,#'  ##            #'  '#       #'       #'  '#        
            ##       ##  #######   ##           ,######,      #####,   #    #        
            '#,     ,#'  ##    ##  '#,     ,#' ,#      #,     #,   #   #,  ,#        
             '#######'   ##     ##  '#######'  #'      '#     '####' # '####'        



                #########################################################
                #                        -***-                          #
                #          Department of theory and spectroscopy        #
                #                                                       #
                #                      Frank Neese                      #
                #                                                       #
                #     Directorship, Architecture, Infrastructure        #
                #                    SHARK, DRIVERS                     #
                #        Core code/Algorithms in most modules           #
                #                                                       #
                #        Max Planck Institute fuer Kohlenforschung      #
                #                Kaiser Wilhelm Platz 1                 #
                #                 D-45470 Muelheim/Ruhr                 #
                #                      Germany                          #
                #                                                       #
                #                  All rights reserved                  #
                #                        -***-                          #
                #########################################################


                         Program Version 6.0.0  -   RELEASE  -


 With contributions from (in alphabetic order):
   Daniel Aravena         : Magnetic Suceptibility
   Michael Atanasov       : Ab Initio Ligand Field Theory (pilot matlab implementation)
   Alexander A. Auer      : GIAO ZORA, VPT2 properties, NMR spectrum
   Ute Becker             : All parallelization in ORCA, NUMFREQ, NUMCALC
   Giovanni Bistoni       : ED, misc. LED, open-shell LED, HFLD
   Martin Brehm           : Molecular dynamics
   Dmytro Bykov           : pre 5.0 version of the SCF Hessian
   Marcos Casanova-Páez   : Triplet and SCS-CIS(D). UHF-(DLPNO)-IP/EA/STEOM-CCSD. UHF-CVS-IP/STEOM-CCSD
   Vijay G. Chilkuri      : MRCI spin determinant printing, contributions to CSF-ICE
   Pauline Colinet        : FMM embedding
   Dipayan Datta          : RHF DLPNO-CCSD density
   Achintya Kumar Dutta   : EOM-CC, STEOM-CC
   Nicolas Foglia         : Exact transition moments, OPA infrastructure, MCD improvements
   Dmitry Ganyushin       : Spin-Orbit,Spin-Spin,Magnetic field MRCI
   Miquel Garcia          : C-PCM and meta-GGA Hessian, CCSD/C-PCM, Gaussian charge scheme
   Tiago L. C. Gouveia    : GS-ROHF, GS-ROCIS
   Yang Guo               : DLPNO-NEVPT2, F12-NEVPT2, CIM, IAO-localization
   Andreas Hansen         : Spin unrestricted coupled pair/coupled cluster methods
   Ingolf Harden          : AUTO-CI MPn and infrastructure 
   Benjamin Helmich-Paris : MC-RPA, TRAH-(SCF,CASSCF), AVAS, COSX integrals, SCF dyn. polar.
   Lee Huntington         : MR-EOM, pCC
   Robert Izsak           : Overlap fitted RIJCOSX, COSX-SCS-MP3, EOM
   Riya Kayal             : Wick's Theorem for AUTO-CI, AUTO-CI UHF-CCSDT
   Emily Kempfer          : AUTO-CI, RHF CISDT and CCSDT
   Christian Kollmar      : KDIIS, OOCD, Brueckner-CCSD(T), CCSD density, CASPT2, CASPT2-K, improved NEVPT2
   Axel Koslowski         : Symmetry handling
   Simone Kossmann        : Meta GGA functionals, TD-DFT gradient, OOMP2, (MP2 Hessian; deprecated post 5.0)
   Lucas Lang             : DCDCAS
   Marvin Lechner         : AUTO-CI (C++ implementation), FIC-MRCC
   Spencer Leger          : CASSCF response
   Dagmar Lenk            : GEPOL surface, SMD, ORCA-2-JSON
   Dimitrios Liakos       : Extrapolation schemes; Compound Job, initial MDCI parallelization
   Dimitrios Manganas     : Further ROCIS development; embedding schemes. LFT, Crystal Embedding
   Dimitrios Pantazis     : SARC Basis sets
   Anastasios Papadopoulos: AUTO-CI, single reference methods and gradients
   Taras Petrenko         : pre 6.0 DFT Hessian and TD-DFT gradient, (ASA, deprecated), ECA, 1-Electron XAS/XES, NRVS
   Peter Pinski           : DLPNO-MP2, DLPNO-MP2 Gradient
   Christoph Reimann      : Effective Core Potentials
   Marius Retegan         : Local ZFS, SOC
   Christoph Riplinger    : Optimizer, TS searches, QM/MM, DLPNO-CCSD(T), (RO)-DLPNO pert. Triples
   Michael Roemelt        : Original ROCIS implementation
   Masaaki Saitow         : Open-shell DLPNO-CCSD energy and density
   Barbara Sandhoefer     : DKH picture change effects
   Kantharuban Sivalingam : CASSCF convergence/infrastructure, NEVPT2 and variants, FIC-MRCI
   Bernardo de Souza      : ESD, SOC TD-DFT
   Georgi Stoychev        : AutoAux, RI-MP2 NMR, DLPNO-MP2 response, X2C
   Van Anh Tran           : RI-MP2 g-tensors
   Willem Van den Heuvel  : Paramagnetic NMR
   Zikuan Wang            : NOTCH, Electric field optimization 
   Frank Wennmohs         : Technical directorship and infrastructure
   Hang Xu                : AUTO-CI-Response properties 


 We gratefully acknowledge several colleagues who have allowed us to
 interface, adapt or use parts of their codes:
   Stefan Grimme, W. Hujo, H. Kruse, P. Pracht,  : VdW corrections, initial TS optimization,
                  C. Bannwarth, S. Ehlert,         DFT functionals, gCP, sTDA/sTD-DF
                  L. Wittmann, M. Mueller
   Ed Valeev, F. Pavosevic, A. Kumar             : LibInt (2-el integral package), F12 methods
   Garnet Chan, S. Sharma, J. Yang, R. Olivares  : DMRG
   Ulf Ekstrom                                   : XCFun DFT Library
   Mihaly Kallay                                 : mrcc  (arbitrary order and MRCC methods)
   Frank Weinhold                                : gennbo (NPA and NBO analysis)
   Simon Mueller                                 : openCOSMO-RS
   Christopher J. Cramer and Donald G. Truhlar   : smd solvation model
   Lars Goerigk                                  : TD-DFT with DH, B97 family of functionals
   V. Asgeirsson, H. Jonsson                     : NEB implementation
   FAccTs GmbH                                   : IRC, NEB, NEB-TS, DLPNO-Multilevel, CI-OPT
                                                   MM, QMMM, 2- and 3-layer-ONIOM, Crystal-QMMM,
                                                   LR-CPCM, SF, NACMEs, symmetry and pop. for TD-DFT,
                                                   nearIR, NL-DFT gradient (VV10), updates on ESD,
                                                   ML-optimized integration grids, MBIS, APM,
                                                   GOAT, DOCKER, SOLVATOR, interface openCOSMO-RS
   S Lehtola, MJT Oliveira, MAL Marques          : LibXC Library
   Liviu Ungur et al                             : ANISO software


 Your calculation uses the libint2 library for the computation of 2-el integrals
 For citations please refer to: http://libint.valeyev.net

 Your ORCA version has been built with support for libXC version: 6.2.2
 For citations please refer to: https://libxc.gitlab.io

 This ORCA versions uses:
   CBLAS   interface :  Fast vector & matrix operations
   LAPACKE interface :  Fast linear algebra routines
   SCALAPACK package :  Parallel linear algebra routines
   Shared memory     :  Shared parallel matrices
   BLAS/LAPACK       :  OpenBLAS 0.3.27  USE64BITINT DYNAMIC_ARCH NO_AFFINITY SkylakeX SINGLE_THREADED
        Core in use  :  SkylakeX
   Copyright (c) 2011-2014, The OpenBLAS Project


Your calculation utilizes the geometrical counterpoise correction gCP
Please cite in your paper:
H.Kruse, S. Grimme J.Chem.Phys., 136, (2012), 154101 
   

Your calculation utilizes the atom-pairwise dispersion correction
based on EEQ partial charges (D4)


================================================================================

----- Orbital basis set information -----
Your calculation utilizes the basis: def2-mTZVPP
   Stefan Grimme, Andreas Hansen, Sebastian Ehlert, and Jan-Michael Mewes 
   J. Chem. Phys. 154, 064103 (2021). DOI: 10.1063/5.0040021

----- AuxJ basis set information -----
Your calculation utilizes the auxiliary basis: def2/J
   F. Weigend, Phys. Chem. Chem. Phys. 8, 1057 (2006).

================================================================================
                                        WARNINGS
                       Please study these warnings very carefully!
================================================================================

Using LibXC functional ID 497 : Re-regularized SCAN exchange by Furness et al
[ 1]  J. W. Furness, A. D. Kaplan, J. Ning, J. P. Perdew, and J. Sun.,  J. Phys. Chem. Lett. 11, 8208-8215 (2020)
[ 2]  J. W. Furness, A. D. Kaplan, J. Ning, J. P. Perdew, and J. Sun.,  J. Phys. Chem. Lett. 11, 9248-9248 (2020)
Using LibXC functional ID 498 : Re-regularized SCAN correlation by Furness et al
[ 1]  J. W. Furness, A. D. Kaplan, J. Ning, J. P. Perdew, and J. Sun.,  J. Phys. Chem. Lett. 11, 8208-8215 (2020)
[ 2]  J. W. Furness, A. D. Kaplan, J. Ning, J. P. Perdew, and J. Sun.,  J. Phys. Chem. Lett. 11, 9248-9248 (2020)
Using LibXC functional ID 497 : Re-regularized SCAN exchange by Furness et al
[ 1]  J. W. Furness, A. D. Kaplan, J. Ning, J. P. Perdew, and J. Sun.,  J. Phys. Chem. Lett. 11, 8208-8215 (2020)
[ 2]  J. W. Furness, A. D. Kaplan, J. Ning, J. P. Perdew, and J. Sun.,  J. Phys. Chem. Lett. 11, 9248-9248 (2020)
Using LibXC functional ID 498 : Re-regularized SCAN correlation by Furness et al
[ 1]  J. W. Furness, A. D. Kaplan, J. Ning, J. P. Perdew, and J. Sun.,  J. Phys. Chem. Lett. 11, 8208-8215 (2020)
[ 2]  J. W. Furness, A. D. Kaplan, J. Ning, J. P. Perdew, and J. Sun.,  J. Phys. Chem. Lett. 11, 9248-9248 (2020)

================================================================================
                                       INPUT FILE
================================================================================
NAME = sp_gas.inp
|  1> ! r2scan-3c def2/J RI DEFGRID2 scfconv6 printgap
|  2> %output
|  3>     printlevel normal
|  4> end
|  5> * xyz 0 1
|  6> C 4.4557115458 -0.274247275 -0.0027895838
|  7> C 4.2484679379 1.0930272397 -0.0003811004
|  8> C 2.9591296932 1.6017722035 0.001479519
|  9> C 1.877230697 0.7386659152 0.0011000221
| 10> C 2.0857267378 -0.6392915871 -0.0003423879
| 11> C 3.3754072483 -1.14244604 -0.0026239663
| 12> O 1.0372966882 -1.5383822822 0.0006369093
| 13> C -0.2222949859 -0.9910494604 0.0013009035
| 14> C -1.3081835485 -1.85017163 0.0018653343
| 15> C -2.600764965 -1.3504018034 0.0012994031
| 16> C -2.7918369212 0.0184285803 -7.4463e-06
| 17> C -1.7191043004 0.8970986921 0.0002192753
| 18> C -0.4303964044 0.3909291031 0.0011970463
| 19> O 0.6077398025 1.287322776 0.0020010809
| 20> Cl -4.4016113984 0.6644162432 -0.0019295025
| 21> H 5.4566937022 -0.6734417787 -0.0047985681
| 22> H 5.0858729048 1.7712391101 -0.0001500811
| 23> H 2.7685040081 2.6623015696 0.0033364388
| 24> H 3.5078130426 -2.2117226808 -0.0041519748
| 25> H -1.1233087712 -2.9112274366 0.0027738324
| 26> H -3.443475861 -2.020391134 0.0017128437
| 27> H -1.8617832793 1.9645199424 -0.0003390407
| 28> *
| 29> 
| 30>                          ****END OF INPUT****
================================================================================

                       ****************************
                       * Single Point Calculation *
                       ****************************

---------------------------------
CARTESIAN COORDINATES (ANGSTROEM)
---------------------------------
  C      4.455712   -0.274247   -0.002790
  C      4.248468    1.093027   -0.000381
  C      2.959130    1.601772    0.001480
  C      1.877231    0.738666    0.001100
  C      2.085727   -0.639292   -0.000342
  C      3.375407   -1.142446   -0.002624
  O      1.037297   -1.538382    0.000637
  C     -0.222295   -0.991049    0.001301
  C     -1.308184   -1.850172    0.001865
  C     -2.600765   -1.350402    0.001299
  C     -2.791837    0.018429   -0.000007
  C     -1.719104    0.897099    0.000219
  C     -0.430396    0.390929    0.001197
  O      0.607740    1.287323    0.002001
  Cl    -4.401611    0.664416   -0.001930
  H      5.456694   -0.673442   -0.004799
  H      5.085873    1.771239   -0.000150
  H      2.768504    2.662302    0.003336
  H      3.507813   -2.211723   -0.004152
  H     -1.123309   -2.911227    0.002774
  H     -3.443476   -2.020391    0.001713
  H     -1.861783    1.964520   -0.000339

----------------------------
CARTESIAN COORDINATES (A.U.)
----------------------------
  NO LB      ZA    FRAG     MASS         X           Y           Z
   0 C     6.0000    0    12.011    8.420075   -0.518252   -0.005272
   1 C     6.0000    0    12.011    8.028441    2.065522   -0.000720
   2 C     6.0000    0    12.011    5.591945    3.026911    0.002796
   3 C     6.0000    0    12.011    3.547452    1.395876    0.002079
   4 C     6.0000    0    12.011    3.941452   -1.208086   -0.000647
   5 C     6.0000    0    12.011    6.378595   -2.158910   -0.004959
   6 O     8.0000    0    15.999    1.960207   -2.907121    0.001204
   7 C     6.0000    0    12.011   -0.420077   -1.872812    0.002458
   8 C     6.0000    0    12.011   -2.472109   -3.496318    0.003525
   9 C     6.0000    0    12.011   -4.914734   -2.551890    0.002456
  10 C     6.0000    0    12.011   -5.275807    0.034825   -0.000014
  11 C     6.0000    0    12.011   -3.248636    1.695271    0.000414
  12 C     6.0000    0    12.011   -0.813331    0.738749    0.002262
  13 O     8.0000    0    15.999    1.148462    2.432687    0.003781
  14 Cl   17.0000    0    35.453   -8.317840    1.255565   -0.003646
  15 H     1.0000    0     1.008   10.311657   -1.272621   -0.009068
  16 H     1.0000    0     1.008    9.610907    3.347157   -0.000284
  17 H     1.0000    0     1.008    5.231714    5.031021    0.006305
  18 H     1.0000    0     1.008    6.628806   -4.179550   -0.007846
  19 H     1.0000    0     1.008   -2.122746   -5.501423    0.005242
  20 H     1.0000    0     1.008   -6.507226   -3.817986    0.003237
  21 H     1.0000    0     1.008   -3.518261    3.712405   -0.000641

--------------------------------
INTERNAL COORDINATES (ANGSTROEM)
--------------------------------
 C      0   0   0     0.000000000000     0.00000000     0.00000000
 C      1   0   0     1.382893818178     0.00000000     0.00000000
 C      2   1   0     1.386080087637   120.15215169     0.00000000
 C      3   2   1     1.384000739487   119.88501943     0.00000000
 C      4   3   2     1.393642550197   119.97775895     0.03833907
 C      5   4   3     1.384357406249   119.91678534   359.94124496
 O      5   4   3     1.381148292524   122.01091398   179.93108837
 C      7   5   4     1.373369886145   115.89848667     0.08426217
 C      8   7   5     1.384646233254   118.16354204   179.97995102
 C      9   8   7     1.385834376157   120.51127193   180.05983954
 C     10   9   8     1.382102318803   119.08518418     0.00000000
 C     11  10   9     1.386656587805   121.37427032   359.95263015
 C     12  11  10     1.384549258812   119.23570253     0.02804089
 O     13  12  11     1.371586325159   117.74701693   180.02857683
 Cl    11  10   9     1.734554012524   119.81161413   179.95450720
 H      1   2   3     1.077648163935   120.36131731   179.96564510
 H      2   1   3     1.077598474902   120.38492790   180.01329068
 H      3   2   1     1.077526861072   121.72305520   180.00218767
 H      6   5   4     1.077444274074   118.37162483   180.02726969
 H      9   8   7     1.077041750987   118.46618621     0.06123041
 H     10   9   8     1.076590696731   120.37512874   179.99831953
 H     12  11  10     1.076914912297   121.70730352   180.02846331

---------------------------
INTERNAL COORDINATES (A.U.)
---------------------------
 C      0   0   0     0.000000000000     0.00000000     0.00000000
 C      1   0   0     2.613290588650     0.00000000     0.00000000
 C      2   1   0     2.619311765315   120.15215169     0.00000000
 C      3   2   1     2.615382366774   119.88501943     0.00000000
 C      4   3   2     2.633602748453   119.97775895     0.03833907
 C      5   4   3     2.616056369276   119.91678534   359.94124496
 O      5   4   3     2.609992023204   122.01091398   179.93108837
 C      7   5   4     2.595292965389   115.89848667     0.08426217
 C      8   7   5     2.616602173217   118.16354204   179.97995102
 C      9   8   7     2.618847437911   120.51127193   180.05983954
 C     10   9   8     2.611794871596   119.08518418     0.00000000
 C     11  10   9     2.620401192748   121.37427032   359.95263015
 C     12  11  10     2.616418918079   119.23570253     0.02804089
 O     13  12  11     2.591922523582   117.74701693   180.02857683
 Cl    11  10   9     3.277832048165   119.81161413   179.95450720
 H      1   2   3     2.036459898561   120.36131731   179.96564510
 H      2   1   3     2.036365999895   120.38492790   180.01329068
 H      3   2   1     2.036230669370   121.72305520   180.00218767
 H      6   5   4     2.036074602561   118.37162483   180.02726969
 H      9   8   7     2.035313944165   118.46618621     0.06123041
 H     10   9   8     2.034461575149   120.37512874   179.99831953
 H     12  11  10     2.035074253778   121.70730352   180.02846331

---------------------
BASIS SET INFORMATION
---------------------
There are 4 groups of distinct atoms

 Group   1 Type C   : 11s6p1d contracted to 5s3p1d pattern {62111/411/1}
 Group   2 Type O   : 11s6p2d contracted to 5s3p2d pattern {62111/411/11}
 Group   3 Type Cl  : 14s9p2d contracted to 5s4p2d pattern {73211/6111/11}
 Group   4 Type H   : 4s1p contracted to 2s1p pattern {31/1}

Atom   0C    basis set group =>   1
Atom   1C    basis set group =>   1
Atom   2C    basis set group =>   1
Atom   3C    basis set group =>   1
Atom   4C    basis set group =>   1
Atom   5C    basis set group =>   1
Atom   6O    basis set group =>   2
Atom   7C    basis set group =>   1
Atom   8C    basis set group =>   1
Atom   9C    basis set group =>   1
Atom  10C    basis set group =>   1
Atom  11C    basis set group =>   1
Atom  12C    basis set group =>   1
Atom  13O    basis set group =>   2
Atom  14Cl   basis set group =>   3
Atom  15H    basis set group =>   4
Atom  16H    basis set group =>   4
Atom  17H    basis set group =>   4
Atom  18H    basis set group =>   4
Atom  19H    basis set group =>   4
Atom  20H    basis set group =>   4
Atom  21H    basis set group =>   4
---------------------------------
AUXILIARY/J BASIS SET INFORMATION
---------------------------------
There are 4 groups of distinct atoms

 Group   1 Type C   : 12s5p4d2f1g contracted to 6s4p3d1f1g pattern {711111/2111/211/2/1}
 Group   2 Type O   : 12s5p4d2f1g contracted to 6s4p3d1f1g pattern {711111/2111/211/2/1}
 Group   3 Type Cl  : 14s5p5d2f1g contracted to 8s4p3d1f1g pattern {71111111/2111/311/2/1}
 Group   4 Type H   : 5s2p1d contracted to 3s1p1d pattern {311/2/1}

Atom   0C    basis set group =>   1
Atom   1C    basis set group =>   1
Atom   2C    basis set group =>   1
Atom   3C    basis set group =>   1
Atom   4C    basis set group =>   1
Atom   5C    basis set group =>   1
Atom   6O    basis set group =>   2
Atom   7C    basis set group =>   1
Atom   8C    basis set group =>   1
Atom   9C    basis set group =>   1
Atom  10C    basis set group =>   1
Atom  11C    basis set group =>   1
Atom  12C    basis set group =>   1
Atom  13O    basis set group =>   2
Atom  14Cl   basis set group =>   3
Atom  15H    basis set group =>   4
Atom  16H    basis set group =>   4
Atom  17H    basis set group =>   4
Atom  18H    basis set group =>   4
Atom  19H    basis set group =>   4
Atom  20H    basis set group =>   4
Atom  21H    basis set group =>   4

Checking for AutoStart:
The File: sp_gas.gbw exists
Trying to determine its content:
     ... Fine, the file contains calculation information
     ... Fine, the calculation information was read
     ... Fine, the file contains a basis set
     ... Fine, the basis set was read
     ... Fine, the file contains a geometry
     ... Fine, the geometry was read
     ... Fine, the file contains a set of orbitals
     ... Fine, the orbitals can be read
     => possible old guess file was deleted
     => GBW file was renamed to GES file
     => GES file is set as startup file
     => Guess is set to MORead
     ... now leaving AutoStart

------------------------------------------------------------------------------
                             ORCA STARTUP CALCULATIONS
                           -- RI-GTO INTEGRALS CHOSEN --
------------------------------------------------------------------------------
------------------------------------------------------------------------------
                   ___                                                        
                  /   \      - P O W E R E D   B Y -                         
                 /     \                                                     
                 |  |  |   _    _      __       _____    __    __             
                 |  |  |  | |  | |    /  \     |  _  \  |  |  /  |          
                  \  \/   | |  | |   /    \    | | | |  |  | /  /          
                 / \  \   | |__| |  /  /\  \   | |_| |  |  |/  /          
                |  |  |   |  __  | /  /__\  \  |    /   |      \           
                |  |  |   | |  | | |   __   |  |    \   |  |\   \          
                \     /   | |  | | |  |  |  |  | |\  \  |  | \   \       
                 \___/    |_|  |_| |__|  |__|  |_| \__\ |__|  \__/        
                                                                              
                      - O R C A' S   B I G   F R I E N D -                    
                                      &                                       
                       - I N T E G R A L  F E E D E R -                       
                                                                              
 v1 FN, 2020, v2 2021, v3 2022-2024                                           
------------------------------------------------------------------------------


----------------------
SHARK INTEGRAL PACKAGE
----------------------

Number of atoms                             ...     22
Number of basis functions                   ...    338
Number of shells                            ...    160
Maximum angular momentum                    ...      2
Integral batch strategy                     ... SHARK/LIBINT Hybrid
RI-J (if used) integral strategy            ... SPLIT-RIJ (Revised 2003 algorithm where possible)
Printlevel                                  ...      1
Contraction scheme used                     ... SEGMENTED contraction
Prescreening option                         ... SCHWARTZ
   Thresh                                   ... 1.000e-10
   Tcut                                     ... 1.000e-11
   Tpresel                                  ... 1.000e-11 
Coulomb Range Separation                    ... NOT USED
Exchange Range Separation                   ... NOT USED
Multipole approximations                    ... NOT USED
Finite Nucleus Model                        ... NOT USED
CABS basis                                  ... NOT available
Auxiliary Coulomb fitting basis             ... AVAILABLE
   # of basis functions in Aux-J            ...    814
   # of shells in Aux-J                     ...    262
   Maximum angular momentum in Aux-J        ...      4
Auxiliary J/K fitting basis                 ... NOT available
Auxiliary Correlation fitting basis         ... NOT available
Auxiliary 'external' fitting basis          ... NOT available

Checking pre-screening integrals            ... done (  0.0 sec) Dimension = 160
Check shell pair data                       ... done (  0.0 sec)
Shell pair information
Shell pair cut-off parameter TPreSel        ...   1.0e-11
Total number of shell pairs                 ...     12880
Shell pairs after pre-screening             ...     10075
Total number of primitive shell pairs       ...     49824
Primitive shell pairs kept                  ...     25377
          la=0 lb=0:   2931 shell pairs
          la=1 lb=0:   3801 shell pairs
          la=1 lb=1:   1226 shell pairs
          la=2 lb=0:   1197 shell pairs
          la=2 lb=1:    780 shell pairs
          la=2 lb=2:    140 shell pairs

Calculating one electron integrals          ... done (  0.1 sec)
Calculating RI/J V-Matrix + Cholesky decomp.... done (  0.2 sec)
Calculating Nuclear repulsion               ... done (  0.0 sec) ENN=    997.104100342618 Eh

Diagonalization of the overlap matrix:
Smallest eigenvalue                        ... 1.742e-05
Time for diagonalization                   ...    0.012 sec
Threshold for overlap eigenvalues          ... 1.000e-07
Number of eigenvalues below threshold      ... 0
Time for construction of square roots      ...    0.021 sec
Total time needed                          ...    0.132 sec

-------------------
DFT GRID GENERATION
-------------------

General Integration Accuracy     IntAcc      ... 4.388
Radial Grid Type                 RadialGrid  ... OptM3 with GC (2021)
Angular Grid (max. ang.)         AngularGrid ... 4 (Lebedev-302)
Angular grid pruning method      GridPruning ... 4 (adaptive)
Weight generation scheme         WeightScheme... mBecke (2022)
Basis function cutoff            BFCut       ... 1.0000e-10
Integration weight cutoff        WCut        ... 1.0000e-14
Partially contracted basis set               ... off
Rotationally invariant grid construction     ... off
Angular grids for H and He will be reduced by one unit
Diffuse basis detected: some atoms will have their outermost
                        angular grid increased by 1.

Total number of grid points                  ...   114225
Total number of batches                      ...     1797
Average number of points per batch           ...       63
Average number of grid points per atom       ...     5192
Initializing property integral containers    ... done (  0.0 sec)

SHARK setup successfully completed in   2.2 seconds

Maximum memory used throughout the entire STARTUP-calculation: 56.8 MB
-------------------------------------------------------------------------------
                                 ORCA GUESS
                   Start orbitals & Density for SCF / CASSCF
-------------------------------------------------------------------------------

------------
SCF SETTINGS
------------
Hamiltonian:
 Density Functional     Method          .... DFT(GTOs)
  Functional kind                       .... Exchange
  Functional name                       .... Re-regularized SCAN exchange by Furness et al
  Functional family                     .... MGGA
  Functional refs                              
    [ 0] J. W. Furness, A. D. Kaplan, J. Ning, J. P. Perdew, and J. Sun.,  J. Phys. Chem. Lett. 11, 8208-8215 (2020), doi: 10.1021/acs.jpclett.0c02405
    [ 1] J. W. Furness, A. D. Kaplan, J. Ning, J. P. Perdew, and J. Sun.,  J. Phys. Chem. Lett. 11, 9248-9248 (2020), doi: 10.1021/acs.jpclett.0c03077
  Functional external parameters        .... 6
    Parameter  0 _c1        =  6.670000e-01 : c1 parameter        
    Parameter  1 _c2        =  8.000000e-01 : c2 parameter        
    Parameter  2 _d         =  1.240000e+00 : d parameter         
    Parameter  3 _k1        =  6.500000e-02 : k1 parameter        
    Parameter  4 _eta       =  1.000000e-03 : eta parameter       
    Parameter  5 _dp2       =  3.610000e-01 : dp2 parameter       
  Functional kind                       .... Correlation
  Functional name                       .... Re-regularized SCAN correlation by Furness et al
  Functional family                     .... MGGA
  Functional refs                              
    [ 0] J. W. Furness, A. D. Kaplan, J. Ning, J. P. Perdew, and J. Sun.,  J. Phys. Chem. Lett. 11, 8208-8215 (2020), doi: 10.1021/acs.jpclett.0c02405
    [ 1] J. W. Furness, A. D. Kaplan, J. Ning, J. P. Perdew, and J. Sun.,  J. Phys. Chem. Lett. 11, 9248-9248 (2020), doi: 10.1021/acs.jpclett.0c03077
  Functional external parameters        .... 1
    Parameter  0 _eta       =  1.000000e-03 : Regularization parameter
 Gradients option       PostSCFGGA      .... off
 RI-approximation to the Coulomb term is turned on
   Number of AuxJ basis functions       .... 814


General Settings:
 Integral files         IntName         .... sp_gas
 Hartree-Fock type      HFTyp           .... RHF
 Total Charge           Charge          ....    0
 Multiplicity           Mult            ....    1
 Number of Electrons    NEL             ....  112
 Basis Dimension        Dim             ....  338
 Nuclear Repulsion      ENuc            ....    997.1041003426 Eh

Convergence Acceleration:
 AO-DIIS                CNVDIIS         .... on
   Start iteration      DIISMaxIt       ....    12
   Startup error        DIISStart       ....  0.200000
   # of expansion vecs  DIISMaxEq       ....     5
   Bias factor          DIISBfac        ....   1.050
   Max. coefficient     DIISMaxC        ....  10.000
 MO-DIIS                CNVKDIIS        .... off
 Trust-Rad. Augm. Hess. CNVTRAH         .... auto
   Auto Start mean grad. ratio tolernc. ....  1.125000
   Auto Start start iteration           ....     1
   Auto Start num. interpolation iter.  ....    10
   Max. Number of Micro iterations      ....    24
   Max. Number of Macro iterations      .... Maxiter - #DIIS iter
   Number of Davidson start vectors     ....     2
   Converg. threshold    (grad. norm)   ....   3.330e-04
   Grad. Scal. Fac. for Micro threshold ....   0.100
   Minimum threshold for Micro iter.    ....   1.000e-02
   NR start threshold (gradient norm)   ....   1.000e-04
   Initial trust radius                 ....   0.400
   Minimum AH scaling param. (alpha)    ....   1.000
   Maximum AH scaling param. (alpha)    .... 1000.000
   Quad. conv. algorithm                .... NR
   White noise on init. David. guess    .... on
   Maximum white noise                  ....   0.010
   Pseudo random numbers                .... off
   Inactive MOs                         .... canonical
   Orbital update algorithm             .... Taylor
   Preconditioner                       .... Diag
   Full preconditioner red. dimension   ....   250
   COSX micro iterations for RIJONX calc.... off
 SOSCF                  CNVSOSCF        .... on
   Start iteration      SOSCFMaxIt      ....   150
   Startup grad/error   SOSCFStart      ....  0.003300
   Hessian update       SOSCFHessUp     .... L-BFGS
 Level Shifting         CNVShift        .... on
   Level shift para.    LevelShift      ....    0.2500
   Turn off err/grad.   ShiftErr        ....    0.0010
 Zerner damping         CNVZerner       .... off
 Static damping         CNVDamp         .... on
   Fraction old density DampFac         ....    0.7000
   Max. Damping (<1)    DampMax         ....    0.9800
   Min. Damping (>=0)   DampMin         ....    0.0000
   Turn off err/grad.   DampErr         ....    0.1000

SCF Procedure:
 Maximum # iterations   MaxIter         ....   125
 SCF integral mode      SCFMode         .... Direct
   Integral package                     .... SHARK and LIBINT hybrid scheme
 Reset frequency        DirectResetFreq ....    20
 Integral Threshold     Thresh          ....  1.000e-10 Eh
 Primitive CutOff       TCut            ....  1.000e-11 Eh

Convergence Tolerance:
 Convergence Check Mode ConvCheckMode   .... Total+1el-Energy
 Convergence forced     ConvForced      .... 0
 Energy Change          TolE            ....  1.000e-06 Eh
 1-El. energy change                    ....  1.000e-03 Eh
 Orbital Gradient       TolG            ....  3.330e-04
 Orbital Rotation angle TolX            ....  3.330e-04
 DIIS Error             TolErr          ....  1.000e-06

---------------------
INITIAL GUESS: MOREAD
---------------------
Guess MOs are being read from file: sp_gas.ges
Input Geometry matches current geometry (good)
Atom 0: N(Shells)= 9 and 6 - projection required
Input basis set needs projection
NBasis(read)= 228
NBasis(calc)= 338
Basis set overlap was calculated
Using GuessMode=FMatrix for the initial guess
C*T matrix was formed
Effective Fockian was calculated
Effective Fockian was diagonalized
Initial density was built
                      ------------------
                      INITIAL GUESS DONE (   0.1 sec)
                      ------------------
             **** ENERGY FILE WAS UPDATED (sp_gas.en.tmp) ****
Finished Guess after   0.7 sec
Maximum memory used throughout the entire GUESS-calculation: 28.7 MB

-------------------------------------------------------------------------------------------
                                      ORCA LEAN-SCF
                              memory conserving SCF solver
-------------------------------------------------------------------------------------------

----------------------------------------D-I-I-S--------------------------------------------
Iteration    Energy (Eh)           Delta-E    RMSDP     MaxDP     DIISErr   Damp  Time(sec)
-------------------------------------------------------------------------------------------
               ***  Starting incremental Fock matrix formation  ***
    1    -1071.6813934168189917     0.00e+00  1.95e-02  9.18e-01  6.23e-01  0.700   6.6
    2    -1071.7684004398556681    -8.70e-02  1.46e-02  6.88e-01  4.38e-01  0.700   6.3
    3    -1071.8296894369332222    -6.13e-02  1.03e-02  4.88e-01  3.07e-01  0.700   5.5
    4    -1071.8726722882061040    -4.30e-02  7.27e-03  3.43e-01  2.15e-01  0.700   5.9
                               ***Turning on AO-DIIS***
    5    -1071.9027985323218672    -3.01e-02  5.11e-03  2.41e-01  1.50e-01  0.700   5.5
    6    -1071.9239034413853915    -2.11e-02  3.58e-03  1.69e-01  1.05e-01  0.700   4.9
    7    -1071.9386911954329662    -1.48e-02  2.50e-03  1.18e-01  7.37e-02  0.700   5.3
    8    -1071.9490481922043728    -1.04e-02  5.84e-03  2.75e-01  5.16e-02  0.000   5.3
                              *** Initializing SOSCF ***
---------------------------------------S-O-S-C-F--------------------------------------
Iteration    Energy (Eh)           Delta-E    RMSDP     MaxDP     MaxGrad    Time(sec)
--------------------------------------------------------------------------------------
    9    -1071.9732337690384156    -2.42e-02  5.19e-06  2.23e-04  9.90e-05     5.4
               *** Restarting incremental Fock matrix formation ***
   10    -1071.9732338049757345    -3.59e-08  1.25e-05  7.70e-04  2.35e-05     6.0
                  *** Gradient check signals convergence ***

               *****************************************************
               *                     SUCCESS                       *
               *           SCF CONVERGED AFTER  10 CYCLES          *
               *****************************************************

             **** ENERGY FILE WAS UPDATED (sp_gas.en.tmp) ****

----------------
TOTAL SCF ENERGY
----------------

Total Energy       :      -1071.97323380497573 Eh          -29169.87466 eV

Components:
Nuclear Repulsion  :        997.10410034261804 Eh           27132.58196 eV
Electronic Energy  :      -2069.07733414759332 Eh          -56302.45662 eV
One Electron Energy:      -3445.08337499998879 Eh          -93745.48456 eV
Two Electron Energy:       1376.00604085239524 Eh           37443.02794 eV

Virial components:
Potential Energy   :      -2140.50255322006797 Eh          -58246.03564 eV
Kinetic Energy     :       1068.52931941509223 Eh           29076.16098 eV
Virial Ratio       :          2.00322304154627

DFT components:
N(Alpha)           :       55.999898503685 electrons
N(Beta)            :       55.999898503685 electrons
N(Total)           :      111.999797007370 electrons
E(X)               :     -109.185223652666 Eh       
E(C)               :       -3.813290019306 Eh       
E(XC)              :     -112.998513671972 Eh       

---------------
SCF CONVERGENCE
---------------

  Last Energy change         ...    3.5937e-08  Tolerance :   1.0000e-06
  Last MAX-Density change    ...    7.6991e-04  Tolerance :   1.0000e-05
  Last RMS-Density change    ...    1.2489e-05  Tolerance :   1.0000e-06
  Last DIIS Error            ...    9.9007e-05  Tolerance :   1.0000e-06
  Last Orbital Gradient      ...    2.3505e-05  Tolerance :   3.3300e-04
  Last Orbital Rotation      ...    6.7846e-05  Tolerance :   3.3300e-04


----------------
ORBITAL ENERGIES
----------------

  NO   OCC          E(Eh)            E(eV) 
   0   2.0000    -101.222150     -2754.3947 
   1   2.0000     -19.022857      -517.6383 
   2   2.0000     -19.021213      -517.5935 
   3   2.0000     -10.122349      -275.4431 
   4   2.0000     -10.117999      -275.3248 
   5   2.0000     -10.116613      -275.2870 
   6   2.0000     -10.116179      -275.2752 
   7   2.0000     -10.106497      -275.0118 
   8   2.0000     -10.057125      -273.6683 
   9   2.0000     -10.056695      -273.6566 
  10   2.0000     -10.053793      -273.5776 
  11   2.0000     -10.050697      -273.4934 
  12   2.0000     -10.050485      -273.4876 
  13   2.0000     -10.046898      -273.3900 
  14   2.0000     -10.046404      -273.3766 
  15   2.0000      -9.378090      -255.1908 
  16   2.0000      -7.124331      -193.8629 
  17   2.0000      -7.114297      -193.5899 
  18   2.0000      -7.113914      -193.5794 
  19   2.0000      -1.090244       -29.6670 
  20   2.0000      -1.056792       -28.7568 
  21   2.0000      -0.872830       -23.7509 
  22   2.0000      -0.845595       -23.0098 
  23   2.0000      -0.810583       -22.0571 
  24   2.0000      -0.759254       -20.6603 
  25   2.0000      -0.741097       -20.1663 
  26   2.0000      -0.723547       -19.6887 
  27   2.0000      -0.697344       -18.9757 
  28   2.0000      -0.639475       -17.4010 
  29   2.0000      -0.622131       -16.9290 
  30   2.0000      -0.590994       -16.0818 
  31   2.0000      -0.570603       -15.5269 
  32   2.0000      -0.550072       -14.9682 
  33   2.0000      -0.501576       -13.6486 
  34   2.0000      -0.488898       -13.3036 
  35   2.0000      -0.463272       -12.6063 
  36   2.0000      -0.457544       -12.4504 
  37   2.0000      -0.456592       -12.4245 
  38   2.0000      -0.430411       -11.7121 
  39   2.0000      -0.427653       -11.6370 
  40   2.0000      -0.419548       -11.4165 
  41   2.0000      -0.395530       -10.7629 
  42   2.0000      -0.392496       -10.6804 
  43   2.0000      -0.382964       -10.4210 
  44   2.0000      -0.380278       -10.3479 
  45   2.0000      -0.376990       -10.2584 
  46   2.0000      -0.350965        -9.5503 
  47   2.0000      -0.349104        -9.4996 
  48   2.0000      -0.345534        -9.4025 
  49   2.0000      -0.312883        -8.5140 
  50   2.0000      -0.300815        -8.1856 
  51   2.0000      -0.289879        -7.8880 
  52   2.0000      -0.261043        -7.1033 
  53   2.0000      -0.248312        -6.7569 
  54   2.0000      -0.231766        -6.3067 
  55   2.0000      -0.190053        -5.1716 
  56   0.0000      -0.054266        -1.4766 
  57   0.0000      -0.049856        -1.3566 
  58   0.0000      -0.043979        -1.1967 
  59   0.0000      -0.011273        -0.3068 
  60   0.0000       0.003183         0.0866 
  61   0.0000       0.032384         0.8812 
  62   0.0000       0.082936         2.2568 
  63   0.0000       0.097377         2.6498 
  64   0.0000       0.104855         2.8532 
  65   0.0000       0.112446         3.0598 
  66   0.0000       0.116872         3.1803 
*Only the first 10 virtual orbitals were printed.

                    ********************************
                    * MULLIKEN POPULATION ANALYSIS *
                    ********************************

-----------------------
MULLIKEN ATOMIC CHARGES
-----------------------
   0 C :   -0.129558
   1 C :   -0.130309
   2 C :   -0.329344
   3 C :    0.205957
   4 C :    0.214651
   5 C :   -0.330403
   6 O :   -0.099028
   7 C :    0.198059
   8 C :   -0.312555
   9 C :   -0.216836
  10 C :    0.265127
  11 C :   -0.461784
  12 C :    0.260690
  13 O :   -0.101351
  14 Cl:   -0.144955
  15 H :    0.150963
  16 H :    0.151050
  17 H :    0.157943
  18 H :    0.157855
  19 H :    0.159253
  20 H :    0.164312
  21 H :    0.170266
Sum of atomic charges:   -0.0000000

--------------------------------
MULLIKEN REDUCED ORBITAL CHARGES
--------------------------------
  0 C s       :     3.173878  s :     3.173878
      pz      :     1.000727  p :     2.917796
      px      :     1.001070
      py      :     0.915998
      dz2     :     0.003328  d :     0.037885
      dxz     :     0.003117
      dyz     :     0.006622
      dx2y2   :     0.012109
      dxy     :     0.012709

  1 C s       :     3.173997  s :     3.173997
      pz      :     1.001917  p :     2.918463
      px      :     0.966081
      py      :     0.950464
      dz2     :     0.003328  d :     0.037849
      dxz     :     0.004409
      dyz     :     0.005297
      dx2y2   :     0.011596
      dxy     :     0.013218

  2 C s       :     3.303494  s :     3.303494
      pz      :     1.022967  p :     2.989686
      px      :     0.947055
      py      :     1.019664
      dz2     :     0.003465  d :     0.036164
      dxz     :     0.007116
      dyz     :     0.002622
      dx2y2   :     0.010262
      dxy     :     0.012699

  3 C s       :     3.165812  s :     3.165812
      pz      :     1.022036  p :     2.559398
      px      :     0.779079
      py      :     0.758284
      dz2     :     0.004943  d :     0.068833
      dxz     :     0.013762
      dyz     :     0.008406
      dx2y2   :     0.021784
      dxy     :     0.019938

  4 C s       :     3.162277  s :     3.162277
      pz      :     1.019226  p :     2.553932
      px      :     0.772902
      py      :     0.761805
      dz2     :     0.004948  d :     0.069140
      dxz     :     0.011914
      dyz     :     0.010444
      dx2y2   :     0.020382
      dxy     :     0.021451

  5 C s       :     3.302903  s :     3.302903
      pz      :     1.024178  p :     2.991372
      px      :     0.947756
      py      :     1.019438
      dz2     :     0.003464  d :     0.036127
      dxz     :     0.007167
      dyz     :     0.002526
      dx2y2   :     0.012970
      dxy     :     0.010000

  6 O s       :     3.699150  s :     3.699150
      pz      :     1.784997  p :     4.343654
      px      :     0.989198
      py      :     1.569459
      dz2     :     0.005292  d :     0.056224
      dxz     :     0.007678
      dyz     :     0.007643
      dx2y2   :     0.017705
      dxy     :     0.017906

  7 C s       :     3.165060  s :     3.165060
      pz      :     1.021976  p :     2.567199
      px      :     0.803980
      py      :     0.741242
      dz2     :     0.004973  d :     0.069682
      dxz     :     0.014349
      dyz     :     0.008152
      dx2y2   :     0.021938
      dxy     :     0.020270

  8 C s       :     3.299695  s :     3.299695
      pz      :     1.023849  p :     2.976555
      px      :     0.951691
      py      :     1.001015
      dz2     :     0.003500  d :     0.036304
      dxz     :     0.007517
      dyz     :     0.002595
      dx2y2   :     0.010257
      dxy     :     0.012435

  9 C s       :     3.200700  s :     3.200700
      pz      :     1.018839  p :     2.979249
      px      :     1.013215
      py      :     0.947196
      dz2     :     0.003442  d :     0.036887
      dxz     :     0.004506
      dyz     :     0.005479
      dx2y2   :     0.012024
      dxy     :     0.011437

 10 C s       :     3.069781  s :     3.069781
      pz      :     1.033259  p :     2.610329
      px      :     0.733092
      py      :     0.843977
      dz2     :     0.003946  d :     0.054763
      dxz     :     0.008025
      dyz     :     0.008235
      dx2y2   :     0.016970
      dxy     :     0.017587

 11 C s       :     3.376404  s :     3.376404
      pz      :     1.038988  p :     3.050505
      px      :     0.975022
      py      :     1.036495
      dz2     :     0.003575  d :     0.034875
      dxz     :     0.007134
      dyz     :     0.002729
      dx2y2   :     0.010927
      dxy     :     0.010509

 12 C s       :     3.146134  s :     3.146134
      pz      :     1.014619  p :     2.522715
      px      :     0.742821
      py      :     0.765276
      dz2     :     0.005004  d :     0.070461
      dxz     :     0.012502
      dyz     :     0.010726
      dx2y2   :     0.020749
      dxy     :     0.021480

 13 O s       :     3.700973  s :     3.700973
      pz      :     1.783484  p :     4.344126
      px      :     0.990787
      py      :     1.569855
      dz2     :     0.005373  d :     0.056253
      dxz     :     0.007502
      dyz     :     0.007497
      dx2y2   :     0.017289
      dxy     :     0.018593

 14 Cls       :     5.945097  s :     5.945097
      pz      :     3.932435  p :    11.145546
      px      :     3.346838
      py      :     3.866272
      dz2     :     0.005501  d :     0.054312
      dxz     :     0.017296
      dyz     :     0.003412
      dx2y2   :     0.014271
      dxy     :     0.013833

 15 H s       :     0.829337  s :     0.829337
      pz      :     0.004308  p :     0.019700
      px      :     0.011040
      py      :     0.004351

 16 H s       :     0.829242  s :     0.829242
      pz      :     0.004318  p :     0.019708
      px      :     0.008671
      py      :     0.006719

 17 H s       :     0.822255  s :     0.822255
      pz      :     0.004288  p :     0.019802
      px      :     0.003293
      py      :     0.012221

 18 H s       :     0.822339  s :     0.822339
      pz      :     0.004297  p :     0.019806
      px      :     0.003164
      py      :     0.012345

 19 H s       :     0.820902  s :     0.820902
      pz      :     0.004271  p :     0.019846
      px      :     0.003270
      py      :     0.012304

 20 H s       :     0.815754  s :     0.815754
      pz      :     0.004332  p :     0.019934
      px      :     0.008978
      py      :     0.006623

 21 H s       :     0.809720  s :     0.809720
      pz      :     0.004303  p :     0.020014
      px      :     0.003098
      py      :     0.012614


------------------------
MULLIKEN OVERLAP CHARGES
------------------------
B(  0-C ,  1-C ) :   0.9568 B(  0-C ,  2-C ) :  -0.1293 B(  0-C ,  4-C ) :  -0.0971 
B(  0-C ,  5-C ) :   0.6987 B(  0-C , 15-H ) :   0.8060 B(  0-C , 16-H ) :  -0.0509 
B(  0-C , 18-H ) :  -0.0504 B(  1-C ,  2-C ) :   0.6991 B(  1-C ,  3-C ) :  -0.0974 
B(  1-C ,  5-C ) :  -0.1312 B(  1-C , 15-H ) :  -0.0506 B(  1-C , 16-H ) :   0.8063 
B(  1-C , 17-H ) :  -0.0516 B(  2-C ,  3-C ) :   0.5744 B(  2-C ,  4-C ) :  -0.2243 
B(  2-C ,  5-C ) :  -0.1368 B(  2-C , 13-O ) :  -0.0659 B(  2-C , 16-H ) :  -0.0628 
B(  2-C , 17-H ) :   0.8054 B(  3-C ,  4-C ) :   1.0493 B(  3-C ,  5-C ) :  -0.2209 
B(  3-C ,  6-O ) :  -0.1056 B(  3-C ,  7-C ) :  -0.0718 B(  3-C , 12-C ) :  -0.3136 
B(  3-C , 13-O ) :   0.3928 B(  4-C ,  5-C ) :   0.5707 B(  4-C ,  6-O ) :   0.3857 
B(  4-C ,  7-C ) :  -0.3234 B(  4-C , 12-C ) :  -0.0924 B(  4-C , 13-O ) :  -0.1054 
B(  5-C ,  6-O ) :  -0.0669 B(  5-C , 15-H ) :  -0.0628 B(  5-C , 18-H ) :   0.8043 
B(  6-O ,  7-C ) :   0.4079 B(  6-O ,  8-C ) :  -0.0753 B(  6-O , 12-C ) :  -0.1144 
B(  7-C ,  8-C ) :   0.6313 B(  7-C ,  9-C ) :  -0.1220 B(  7-C , 11-C ) :  -0.2919 
B(  7-C , 12-C ) :   1.0795 B(  7-C , 13-O ) :  -0.1098 B(  8-C ,  9-C ) :   0.5435 
B(  8-C , 10-C ) :  -0.1307 B(  8-C , 11-C ) :  -0.0914 B(  8-C , 12-C ) :  -0.3561 
B(  8-C , 19-H ) :   0.8192 B(  9-C , 10-C ) :   0.9660 B(  9-C , 11-C ) :  -0.1659 
B(  9-C , 12-C ) :   0.0648 B(  9-C , 14-Cl) :  -0.0813 B(  9-C , 19-H ) :  -0.0623 
B(  9-C , 20-H ) :   0.7929 B( 10-C , 11-C ) :   0.6592 B( 10-C , 14-Cl) :   0.4214 
B( 11-C , 12-C ) :   0.1728 B( 11-C , 13-O ) :  -0.0519 B( 11-C , 14-Cl) :  -0.0550 
B( 11-C , 21-H ) :   0.7731 B( 12-C , 13-O ) :   0.3716 


                     *******************************
                     * LOEWDIN POPULATION ANALYSIS *
                     *******************************

----------------------
LOEWDIN ATOMIC CHARGES
----------------------
   0 C :   -0.163547
   1 C :   -0.164298
   2 C :   -0.119940
   3 C :    0.218757
   4 C :    0.219265
   5 C :   -0.120731
   6 O :   -0.562276
   7 C :    0.215644
   8 C :   -0.111829
   9 C :   -0.176625
  10 C :   -0.168159
  11 C :   -0.131413
  12 C :    0.225719
  13 O :   -0.558961
  14 Cl:    0.128425
  15 H :    0.170559
  16 H :    0.170587
  17 H :    0.184293
  18 H :    0.184095
  19 H :    0.186537
  20 H :    0.180362
  21 H :    0.193536

-------------------------------
LOEWDIN REDUCED ORBITAL CHARGES
-------------------------------
  0 C s       :     2.899019  s :     2.899019
      pz      :     0.989261  p :     3.181868
      px      :     1.096841
      py      :     1.095765
      dz2     :     0.005598  d :     0.082661
      dxz     :     0.005001
      dyz     :     0.012197
      dx2y2   :     0.029376
      dxy     :     0.030488

  1 C s       :     2.898967  s :     2.898967
      pz      :     0.990471  p :     3.182728
      px      :     1.092517
      py      :     1.099740
      dz2     :     0.005599  d :     0.082603
      dxz     :     0.007686
      dyz     :     0.009451
      dx2y2   :     0.027659
      dxy     :     0.032208

  2 C s       :     2.889110  s :     2.889110
      pz      :     1.001239  p :     3.152389
      px      :     1.059225
      py      :     1.091925
      dz2     :     0.005666  d :     0.078442
      dxz     :     0.012985
      dyz     :     0.004050
      dx2y2   :     0.026176
      dxy     :     0.029564

  3 C s       :     2.765094  s :     2.765094
      pz      :     0.956874  p :     2.865772
      px      :     0.894909
      py      :     1.013989
      dz2     :     0.010749  d :     0.150377
      dxz     :     0.026740
      dyz     :     0.014871
      dx2y2   :     0.049174
      dxy     :     0.048844

  4 C s       :     2.764831  s :     2.764831
      pz      :     0.954600  p :     2.864869
      px      :     0.947708
      py      :     0.962562
      dz2     :     0.010770  d :     0.151034
      dxz     :     0.022772
      dyz     :     0.019165
      dx2y2   :     0.048141
      dxy     :     0.050186

  5 C s       :     2.889097  s :     2.889097
      pz      :     1.002326  p :     3.153261
      px      :     1.047710
      py      :     1.103225
      dz2     :     0.005667  d :     0.078372
      dxz     :     0.013149
      dyz     :     0.003795
      dx2y2   :     0.030782
      dxy     :     0.024978

  6 O s       :     3.446367  s :     3.446367
      pz      :     1.765301  p :     4.659959
      px      :     1.295615
      py      :     1.599043
      dz2     :     0.049601  d :     0.455951
      dxz     :     0.106478
      dyz     :     0.036966
      dx2y2   :     0.133927
      dxy     :     0.128978

  7 C s       :     2.762695  s :     2.762695
      pz      :     0.958454  p :     2.868983
      px      :     0.900405
      py      :     1.010124
      dz2     :     0.010903  d :     0.152679
      dxz     :     0.027897
      dyz     :     0.014422
      dx2y2   :     0.049687
      dxy     :     0.049771

  8 C s       :     2.887322  s :     2.887322
      pz      :     0.999280  p :     3.145815
      px      :     1.054158
      py      :     1.092377
      dz2     :     0.005685  d :     0.078691
      dxz     :     0.013832
      dyz     :     0.003994
      dx2y2   :     0.026201
      dxy     :     0.028980

  9 C s       :     2.898960  s :     2.898960
      pz      :     1.012081  p :     3.195883
      px      :     1.104201
      py      :     1.079601
      dz2     :     0.005984  d :     0.081782
      dxz     :     0.007753
      dyz     :     0.010062
      dx2y2   :     0.028991
      dxy     :     0.028991

 10 C s       :     2.890422  s :     2.890422
      pz      :     1.025488  p :     3.161051
      px      :     1.014475
      py      :     1.121088
      dz2     :     0.007679  d :     0.116686
      dxz     :     0.014574
      dyz     :     0.014855
      dx2y2   :     0.039119
      dxy     :     0.040459

 11 C s       :     2.889110  s :     2.889110
      pz      :     1.022568  p :     3.165395
      px      :     1.039994
      py      :     1.102833
      dz2     :     0.006043  d :     0.076907
      dxz     :     0.013173
      dyz     :     0.004216
      dx2y2   :     0.026997
      dxy     :     0.026479

 12 C s       :     2.762508  s :     2.762508
      pz      :     0.946340  p :     2.857782
      px      :     0.946848
      py      :     0.964594
      dz2     :     0.010946  d :     0.153991
      dxz     :     0.024019
      dyz     :     0.019643
      dx2y2   :     0.048999
      dxy     :     0.050384

 13 O s       :     3.446627  s :     3.446627
      pz      :     1.763609  p :     4.657721
      px      :     1.295342
      py      :     1.598770
      dz2     :     0.049669  d :     0.454613
      dxz     :     0.105047
      dyz     :     0.037097
      dx2y2   :     0.134168
      dxy     :     0.128633

 14 Cls       :     5.646712  s :     5.646712
      pz      :     3.904458  p :    11.112223
      px      :     3.376977
      py      :     3.830788
      dz2     :     0.014328  d :     0.112639
      dxz     :     0.029563
      dyz     :     0.005559
      dx2y2   :     0.031665
      dxy     :     0.031523

 15 H s       :     0.784431  s :     0.784431
      pz      :     0.009359  p :     0.045010
      px      :     0.025740
      py      :     0.009911

 16 H s       :     0.784378  s :     0.784378
      pz      :     0.009386  p :     0.045035
      px      :     0.020041
      py      :     0.015608

 17 H s       :     0.770319  s :     0.770319
      pz      :     0.009489  p :     0.045388
      px      :     0.007252
      py      :     0.028647

 18 H s       :     0.770512  s :     0.770512
      pz      :     0.009513  p :     0.045393
      px      :     0.006710
      py      :     0.029169

 19 H s       :     0.767987  s :     0.767987
      pz      :     0.009473  p :     0.045476
      px      :     0.007140
      py      :     0.028863

 20 H s       :     0.773750  s :     0.773750
      pz      :     0.009677  p :     0.045889
      px      :     0.020748
      py      :     0.015464

 21 H s       :     0.760321  s :     0.760321
      pz      :     0.009743  p :     0.046143
      px      :     0.006348
      py      :     0.030052


---------------------------------
LOEWDIN BOND ORDERS (THRESH 0.050000)
---------------------------------
B(  0-C ,  1-C ) :   1.5052 B(  0-C ,  2-C ) :   0.0891 B(  0-C ,  3-C ) :   0.1079 
B(  0-C ,  4-C ) :   0.0958 B(  0-C ,  5-C ) :   1.4906 B(  0-C , 15-H ) :   0.8727 
B(  0-C , 16-H ) :   0.0539 B(  0-C , 18-H ) :   0.0521 B(  1-C ,  2-C ) :   1.4897 
B(  1-C ,  3-C ) :   0.0960 B(  1-C ,  4-C ) :   0.1078 B(  1-C ,  5-C ) :   0.0891 
B(  1-C , 15-H ) :   0.0539 B(  1-C , 16-H ) :   0.8727 B(  1-C , 17-H ) :   0.0520 
B(  2-C ,  3-C ) :   1.3439 B(  2-C ,  4-C ) :   0.0885 B(  2-C ,  5-C ) :   0.1179 
B(  2-C , 13-O ) :   0.2118 B(  2-C , 16-H ) :   0.0550 B(  2-C , 17-H ) :   0.8577 
B(  3-C ,  4-C ) :   1.1696 B(  3-C ,  5-C ) :   0.0887 B(  3-C ,  6-O ) :   0.1714 
B(  3-C , 12-C ) :   0.0745 B(  3-C , 13-O ) :   1.3558 B(  3-C , 17-H ) :   0.0563 
B(  4-C ,  5-C ) :   1.3422 B(  4-C ,  6-O ) :   1.3610 B(  4-C ,  7-C ) :   0.0745 
B(  4-C , 13-O ) :   0.1703 B(  4-C , 18-H ) :   0.0563 B(  5-C ,  6-O ) :   0.2126 
B(  5-C , 15-H ) :   0.0550 B(  5-C , 18-H ) :   0.8578 B(  6-O ,  7-C ) :   1.3772 
B(  6-O ,  8-C ) :   0.2154 B(  6-O , 12-C ) :   0.1710 B(  7-C ,  8-C ) :   1.3381 
B(  7-C ,  9-C ) :   0.0960 B(  7-C , 10-C ) :   0.0985 B(  7-C , 11-C ) :   0.0881 
B(  7-C , 12-C ) :   1.1540 B(  7-C , 13-O ) :   0.1717 B(  7-C , 19-H ) :   0.0557 
B(  8-C ,  9-C ) :   1.4837 B(  8-C , 10-C ) :   0.0959 B(  8-C , 11-C ) :   0.1117 
B(  8-C , 12-C ) :   0.0896 B(  8-C , 19-H ) :   0.8554 B(  8-C , 20-H ) :   0.0542 
B(  9-C , 10-C ) :   1.4362 B(  9-C , 11-C ) :   0.0888 B(  9-C , 12-C ) :   0.1033 
B(  9-C , 14-Cl) :   0.1552 B(  9-C , 19-H ) :   0.0527 B(  9-C , 20-H ) :   0.8666 
B( 10-C , 11-C ) :   1.4180 B( 10-C , 12-C ) :   0.0987 B( 10-C , 14-Cl) :   1.4094 
B( 10-C , 20-H ) :   0.0530 B( 10-C , 21-H ) :   0.0505 B( 11-C , 12-C ) :   1.3374 
B( 11-C , 13-O ) :   0.2175 B( 11-C , 14-Cl) :   0.1558 B( 11-C , 21-H ) :   0.8521 
B( 12-C , 13-O ) :   1.3805 B( 12-C , 21-H ) :   0.0552 

------------------------------------------
LOEWDIN REDUCED ORBITAL POPULATIONS PER MO
-------------------------------------------
THRESHOLD FOR PRINTING IS 0.1%%
                      0         1         2         3         4         5   
                 -101.22215 -19.02286 -19.02121 -10.12235 -10.11800 -10.11661
                   2.00000   2.00000   2.00000   2.00000   2.00000   2.00000
                  --------  --------  --------  --------  --------  --------
 3 C  s               0.0       0.0       0.0       0.0       0.0      58.7
 4 C  s               0.0       0.0       0.0       0.0       0.0      40.5
 6 O  s               0.0       0.0      99.9       0.0       0.0       0.0
 6 O  px              0.0       0.0       0.0       0.0       0.1       0.0
 6 O  dx2y2           0.0       0.0       0.0       0.0       0.1       0.0
 6 O  dxy             0.0       0.0       0.0       0.0       0.1       0.1
 7 C  s               0.0       0.0       0.0       0.2      99.0       0.0
 7 C  py              0.0       0.0       0.0       0.1       0.0       0.0
11 C  px              0.0       0.0       0.0       0.1       0.0       0.0
12 C  s               0.0       0.0       0.0      99.0       0.2       0.0
12 C  py              0.0       0.0       0.0       0.0       0.1       0.0
13 O  s               0.0      99.9       0.0       0.0       0.0       0.0
13 O  dxy             0.0       0.0       0.0       0.2       0.0       0.1
14 Cl s             100.0       0.0       0.0       0.0       0.0       0.0

                      6         7         8         9        10        11   
                 -10.11618 -10.10650 -10.05712 -10.05669 -10.05379 -10.05070
                   2.00000   2.00000   2.00000   2.00000   2.00000   2.00000
                  --------  --------  --------  --------  --------  --------
 1 C  s               0.0       0.0       0.0       0.0       0.0       0.3
 1 C  px              0.0       0.0       0.0       0.0       0.0       0.1
 2 C  s               0.0       0.0       0.0       0.0       0.0      99.2
 3 C  s              40.6       0.0       0.0       0.0       0.0       0.0
 4 C  s              58.7       0.0       0.0       0.0       0.0       0.0
 6 O  dxy             0.1       0.0       0.0       0.0       0.0       0.0
 8 C  s               0.0       0.0       0.0      98.9       0.7       0.0
 8 C  px              0.0       0.0       0.0       0.0       0.1       0.0
 9 C  s               0.0       0.0       0.0       0.7      98.9       0.0
 9 C  px              0.0       0.0       0.0       0.1       0.0       0.0
 9 C  py              0.0       0.1       0.0       0.0       0.0       0.0
10 C  s               0.0      99.5       0.0       0.0       0.0       0.0
10 C  py              0.0       0.0       0.1       0.0       0.1       0.0
11 C  s               0.0       0.0      99.6       0.0       0.0       0.0
12 C  px              0.0       0.0       0.1       0.0       0.0       0.0

                     12        13        14        15        16        17   
                 -10.05049 -10.04690 -10.04640  -9.37809  -7.12433  -7.11430
                   2.00000   2.00000   2.00000   2.00000   2.00000   2.00000
                  --------  --------  --------  --------  --------  --------
 0 C  s               0.4      64.8      34.4       0.0       0.0       0.0
 1 C  s               0.0      34.3      65.0       0.0       0.0       0.0
 2 C  s               0.1       0.1       0.2       0.0       0.0       0.0
 4 C  px              0.1       0.0       0.0       0.0       0.0       0.0
 5 C  s              99.1       0.3       0.1       0.0       0.0       0.0
10 C  px              0.0       0.0       0.0       0.1       0.0       0.0
14 Cl s               0.0       0.0       0.0      99.8       0.0       0.0
14 Cl pz              0.0       0.0       0.0       0.0       0.0     100.0
14 Cl px              0.0       0.0       0.0       0.0      86.2       0.0
14 Cl py              0.0       0.0       0.0       0.0      13.7       0.0

                     18        19        20        21        22        23   
                  -7.11391  -1.09024  -1.05679  -0.87283  -0.84560  -0.81058
                   2.00000   2.00000   2.00000   2.00000   2.00000   2.00000
                  --------  --------  --------  --------  --------  --------
 0 C  s               0.0       0.0       0.0       0.5       8.2       3.5
 0 C  px              0.0       0.1       0.0       0.2       1.9       0.3
 0 C  py              0.0       0.0       0.0       0.0       0.2       0.2
 1 C  s               0.0       0.0       0.0       0.6       8.1       3.7
 1 C  px              0.0       0.1       0.0       0.2       1.3       0.2
 1 C  py              0.0       0.0       0.0       0.0       0.8       0.3
 2 C  s               0.0       0.4       0.2       1.0       8.7       2.0
 2 C  px              0.0       0.6       0.4       0.0       0.0       0.5
 2 C  py              0.0       0.2       0.0       0.2       2.0       0.3
 2 C  dz2             0.0       0.0       0.0       0.0       0.1       0.0
 3 C  s               0.0       5.5       2.1       1.8       7.5       0.2
 3 C  px              0.0       3.9       3.4       0.3       3.6       1.3
 3 C  py              0.0       0.1       2.2       0.0       0.2       0.0
 3 C  dz2             0.0       0.2       0.1       0.0       0.1       0.0
 3 C  dx2y2           0.0       0.1       0.3       0.0       0.0       0.0
 3 C  dxy             0.0       0.1       0.1       0.0       0.0       0.0
 4 C  s               0.0       5.2       2.5       1.6       7.7       0.1
 4 C  px              0.0       3.4       2.1       0.3       2.8       1.1
 4 C  py              0.0       0.3       3.9       0.1       1.0       0.5
 4 C  dz2             0.0       0.2       0.1       0.0       0.1       0.0
 4 C  dxy             0.0       0.2       0.4       0.0       0.0       0.0
 5 C  s               0.0       0.4       0.2       0.9       8.9       1.5
 5 C  px              0.0       0.7       0.4       0.1       0.1       0.4
 5 C  py              0.0       0.0       0.0       0.2       2.0       0.6
 5 C  dz2             0.0       0.0       0.0       0.0       0.1       0.0
 6 O  s               0.0      24.6      31.0       0.1       0.4       1.2
 6 O  px              0.0       0.0       0.0       1.5       2.3       1.2
 6 O  py              0.0       1.5       1.2       0.0       0.1       0.1
 6 O  dz2             0.0       0.4       0.1       0.0       0.1       0.2
 6 O  dx2y2           0.0       0.0       0.2       0.1       0.0       0.3
 6 O  dxy             0.0       0.0       0.0       0.3       0.7       0.1
 7 C  s               0.0       5.4       2.6       4.3       1.1       6.2
 7 C  px              0.0       3.6       3.9       2.5       0.1       3.3
 7 C  py              0.0       0.2       2.3       0.1       0.0       0.1
 7 C  dz2             0.0       0.2       0.1       0.1       0.0       0.1
 7 C  dx2y2           0.0       0.1       0.3       0.0       0.0       0.0
 7 C  dxy             0.0       0.1       0.2       0.0       0.0       0.0
 8 C  s               0.0       0.4       0.2       5.6       0.0       7.6
 8 C  px              0.0       0.5       0.4       0.2       0.6       0.1
 8 C  py              0.0       0.2       0.0       1.6       0.0       1.1
 9 C  s               0.0       0.1       0.0       9.1       0.9       1.9
 9 C  px              0.0       0.1       0.0       0.3       0.2       3.1
 9 C  py              0.0       0.0       0.0       2.4       0.7       0.5
 9 C  dz2             0.0       0.0       0.0       0.1       0.0       0.0
10 C  s               0.0       0.1       0.0      19.3       4.5       0.9
10 C  px              0.0       0.1       0.0       0.1       1.6      10.5
10 C  py              0.0       0.0       0.0       0.0       0.1       2.0
10 C  dz2             0.0       0.0       0.0       0.3       0.1       0.0
10 C  dx2y2           0.0       0.0       0.0       0.0       0.0       0.1
11 C  s               0.0       0.4       0.2       9.8       0.3       1.2
11 C  px              0.0       0.8       0.4       0.5       1.6       2.2
11 C  py              0.0       0.0       0.0       2.3       0.1       0.5
11 C  dz2             0.0       0.0       0.0       0.1       0.0       0.0
12 C  s               0.0       5.8       2.3       5.1       0.8       3.9
12 C  px              0.0       3.7       1.9       2.8       0.2       1.0
12 C  py              0.0       0.4       4.0       0.4       0.0       1.7
12 C  dz2             0.0       0.2       0.1       0.1       0.0       0.0
12 C  dxy             0.0       0.2       0.4       0.0       0.0       0.0
13 O  s               0.0      27.2      28.4       0.1       0.4       0.9
13 O  px              0.0       0.0       0.0       1.8       2.1       0.4
13 O  py              0.0       1.7       1.1       0.1       0.0       0.2
13 O  dz2             0.0       0.4       0.0       0.0       0.1       0.2
13 O  dx2y2           0.0       0.0       0.2       0.0       0.3       0.0
13 O  dxy             0.0       0.0       0.0       0.5       0.4       0.3
14 Cl s               0.0       0.0       0.0      15.2       9.8      26.8
14 Cl px             13.7       0.0       0.0       1.5       0.5       0.4
14 Cl py             86.3       0.0       0.0       0.2       0.1       0.1
14 Cl dz2             0.0       0.0       0.0       0.1       0.0       0.0
14 Cl dx2y2           0.0       0.0       0.0       0.2       0.1       0.0
14 Cl dxy             0.0       0.0       0.0       0.2       0.1       0.0
15 H  s               0.0       0.0       0.0       0.0       0.7       0.4
16 H  s               0.0       0.0       0.0       0.0       0.7       0.4
17 H  s               0.0       0.0       0.0       0.1       0.8       0.2
18 H  s               0.0       0.0       0.0       0.1       0.8       0.1
19 H  s               0.0       0.0       0.0       0.5       0.0       0.8
20 H  s               0.0       0.0       0.0       0.8       0.1       0.1
21 H  s               0.0       0.0       0.0       0.9       0.0       0.1

                     24        25        26        27        28        29   
                  -0.75925  -0.74110  -0.72355  -0.69734  -0.63948  -0.62213
                   2.00000   2.00000   2.00000   2.00000   2.00000   2.00000
                  --------  --------  --------  --------  --------  --------
 0 C  s               3.2       4.2       8.6       2.0       3.1       2.4
 0 C  px              0.4       0.3       0.3       0.5       0.1       1.0
 0 C  py              0.9       3.6       1.4       1.7       3.4       0.9
 1 C  s               0.0      12.9       0.0       5.5       3.2       0.4
 1 C  px              0.9       0.1       2.3       0.3       0.4       2.1
 1 C  py              1.5       0.1       3.6       0.1       2.4       2.0
 1 C  dx2y2           0.1       0.0       0.2       0.0       0.1       0.1
 2 C  s               4.9       4.0       8.0       0.3       1.1       3.7
 2 C  px              1.0       4.0       0.6       2.3       4.6       0.1
 2 C  py              0.1       0.0       0.2       0.3       0.0       0.8
 3 C  s               4.8       1.6       4.3       2.7       1.3       0.7
 3 C  px              0.1       0.4       2.5       0.6       1.3       1.6
 3 C  py              3.0       2.9       0.4       3.2       2.7       4.4
 3 C  dx2y2           0.0       0.1       0.0       0.1       0.0       0.0
 3 C  dxy             0.0       0.1       0.2       0.0       0.1       0.0
 4 C  s               1.5       8.6       0.1       2.7       2.0       0.0
 4 C  px              1.4       0.2       2.3       1.2       0.7       2.8
 4 C  py              2.7       0.0       2.1       4.0       0.4       5.3
 4 C  dx2y2           0.1       0.0       0.1       0.0       0.0       0.0
 4 C  dxy             0.0       0.0       0.0       0.2       0.1       0.0
 5 C  s               6.9       1.7       8.3       0.8       2.0       2.3
 5 C  px              0.0       4.5       1.8       1.2       3.9       1.4
 5 C  py              0.1       0.3       0.2       0.1       0.0       1.2
 5 C  dxy             0.0       0.1       0.1       0.1       0.1       0.0
 6 O  s               0.0       0.3       0.0       4.1       0.2       0.9
 6 O  px              3.1       8.4       0.3       1.2       8.2       0.8
 6 O  py              0.1       0.3       0.2       1.1       1.0       3.7
 6 O  dz2             0.0       0.1       0.0       0.7       0.0       0.0
 6 O  dx2y2           0.0       0.0       0.6       0.2       0.1       1.4
 6 O  dxy             0.0       1.3       0.0       0.0       0.1       0.3
 7 C  s               1.2       2.7       0.5       7.5       0.6       0.5
 7 C  px              0.4       1.0       0.5       1.6       0.5       1.8
 7 C  py              4.8       0.0       2.2       1.7       3.3       7.0
 7 C  dx2y2           0.1       0.0       0.0       0.2       0.0       0.0
 8 C  s               8.1       1.0       5.6       0.5       0.4       5.9
 8 C  px              0.1       4.2       0.1       5.0       3.5       0.5
 8 C  py              0.1       0.0       0.1       0.3       0.0       1.3
 8 C  dxy             0.0       0.1       0.0       0.2       0.0       0.0
 9 C  s               4.7       7.1       2.1       6.7       2.9       0.9
 9 C  px              0.7       0.2       0.4       0.6       0.1       2.4
 9 C  py              0.6       0.1       1.2       0.8       1.4       2.7
 9 C  dx2y2           0.0       0.0       0.1       0.1       0.0       0.1
10 C  s               0.0       1.6       1.0       4.5       2.0       1.9
10 C  px              1.1       1.9       3.5       1.7       2.0       0.0
10 C  py              3.3       2.7       2.3       2.1       3.7       2.8
10 C  dx2y2           0.0       0.1       0.0       0.2       0.0       0.0
10 C  dxy             0.1       0.0       0.2       0.0       0.1       0.0
11 C  s               7.9       0.1       9.8       0.8       3.6       2.1
11 C  px              1.4       0.6       0.0       1.6       4.3       0.6
11 C  py              0.1       0.3       0.3       0.0       0.1       1.9
11 C  dxy             0.0       0.0       0.0       0.1       0.1       0.0
12 C  s               6.5       1.1       1.1       2.7       3.0       0.1
12 C  px              1.4       0.2       4.2       0.3       1.7       1.9
12 C  py              2.2       0.1       0.2       6.3       0.4       6.3
12 C  dx2y2           0.0       0.0       0.1       0.1       0.0       0.0
12 C  dxy             0.0       0.0       0.2       0.1       0.1       0.0
13 O  s               0.0       0.0       1.9       2.3       0.2       1.2
13 O  px              9.8       1.6       0.5       0.1      13.1       1.4
13 O  py              0.3       0.0       0.1       1.4       1.2       3.5
13 O  dz2             0.0       0.0       0.5       0.3       0.0       0.0
13 O  dx2y2           0.0       0.0       0.9       0.0       0.2       1.1
13 O  dxy             0.6       0.7       0.0       0.0       0.3       0.1
14 Cl s               0.2       6.0       2.7       7.8       1.9       1.4
14 Cl px              0.0       0.2       0.2       0.8       0.8       0.4
14 Cl py              0.0       0.1       0.0       0.2       0.0       0.4
14 Cl dx2y2           0.0       0.0       0.0       0.0       0.1       0.0
14 Cl dxy             0.0       0.0       0.0       0.1       0.0       0.1
15 H  s               0.5       0.7       1.6       0.5       1.1       0.9
15 H  px              0.0       0.0       0.1       0.0       0.1       0.1
16 H  s               0.0       2.0       0.0       1.2       1.1       0.2
16 H  px              0.0       0.1       0.0       0.1       0.1       0.0
17 H  s               0.9       0.6       1.4       0.1       0.1       1.7
17 H  py              0.1       0.0       0.1       0.0       0.0       0.1
18 H  s               1.1       0.4       1.5       0.1       0.5       1.2
18 H  py              0.1       0.0       0.1       0.0       0.0       0.1
19 H  s               1.3       0.1       1.1       0.1       0.0       2.9
19 H  py              0.1       0.0       0.1       0.0       0.0       0.2
20 H  s               0.7       1.0       0.5       1.4       1.2       0.3
21 H  s               1.3       0.0       1.6       0.2       0.9       1.5
21 H  py              0.1       0.0       0.1       0.0       0.1       0.1

                     30        31        32        33        34        35   
                  -0.59099  -0.57060  -0.55007  -0.50158  -0.48890  -0.46327
                   2.00000   2.00000   2.00000   2.00000   2.00000   2.00000
                  --------  --------  --------  --------  --------  --------
 0 C  s               0.9       0.1       4.5       0.1       2.1       0.4
 0 C  px              2.0       1.0       1.8       0.1       1.6      13.5
 0 C  py              5.3       0.1       2.3       4.3       2.2       1.4
 1 C  s               2.3       1.1       3.1       0.1       2.5       0.3
 1 C  px              4.0       1.2       0.1       0.0       2.1       9.3
 1 C  py              1.6       0.7       3.3       5.8       1.3       4.5
 2 C  s               5.2       0.1       0.3       0.9       2.1       0.2
 2 C  px              0.6       0.1       7.6       1.7       1.3       0.8
 2 C  py              1.2       2.8       0.0       4.8       0.2       4.3
 2 C  dx2y2           0.0       0.1       0.0       0.0       0.1       0.0
 2 C  dxy             0.0       0.0       0.1       0.0       0.0       0.1
 3 C  s               0.5       0.3       1.3       0.1       0.1       0.9
 3 C  px              1.8       5.2       0.6       2.0       3.3       0.0
 3 C  py              5.0       4.9       2.4       0.7       0.1       1.7
 3 C  dx2y2           0.0       0.0       0.0       0.0       0.0       0.3
 3 C  dxy             0.1       0.0       0.2       0.0       0.5       0.0
 4 C  s               1.4       0.0       1.0       0.1       0.0       1.0
 4 C  px              3.3       1.2       3.6       1.3       3.9       0.3
 4 C  py              1.8      10.4       0.1       0.2       0.1       1.4
 4 C  dx2y2           0.1       0.0       0.0       0.0       0.1       0.2
 4 C  dxy             0.0       0.0       0.2       0.1       0.4       0.1
 5 C  s               5.5       0.2       0.5       1.5       1.3       0.2
 5 C  px              0.1       0.1       6.7       2.3       3.0       0.1
 5 C  py              1.4       2.8       0.0       3.5       0.4       4.5
 5 C  dxy             0.0       0.0       0.2       0.0       0.1       0.1
 6 O  s               0.1       0.0       0.8       1.2       0.0       0.3
 6 O  px              2.5      15.5       1.0       0.6       6.8       0.1
 6 O  py              0.2       0.3       0.2       5.3       0.5       0.1
 6 O  dz2             0.0       0.0       0.2       0.0       0.0       0.1
 6 O  dx2y2           0.1       0.2       0.7       0.4       0.1       0.1
 6 O  dxy             1.0       0.4       0.1       0.1       0.1       0.5
 7 C  s               0.7       0.2       1.0       0.0       0.1       0.1
 7 C  px              1.8       6.2       0.2       3.2       2.0       0.8
 7 C  py              2.3       5.0       2.1       1.8       0.1       3.7
 7 C  dxy             0.2       0.1       0.1       0.0       0.4       0.0
 8 C  s               5.7       0.0       0.0       0.5       1.6       0.0
 8 C  px              0.0       0.1       5.8       2.8       0.9       6.9
 8 C  py              1.4       2.4       0.2       5.0       0.1       0.0
 9 C  s               1.2       1.2       2.1       0.3       2.0       0.1
 9 C  px              3.9       1.6       0.1       0.0       3.1       3.8
 9 C  py              2.6       0.3       4.6       7.4       2.2       2.9
 9 C  dx2y2           0.1       0.0       0.1       0.0       0.0       0.0
10 C  s               0.8       0.1       4.5       0.0       2.4       0.1
10 C  px              0.6       0.4       0.0       0.0       0.1       2.6
10 C  py              5.6       0.2       0.8       5.7       1.1       4.0
11 C  s               3.0       0.3       0.5       1.0       1.7       0.0
11 C  px              0.3       0.1       7.8       4.7       3.5       4.7
11 C  py              1.2       2.6       0.4       3.2       1.1       0.4
11 C  dxy             0.0       0.0       0.3       0.0       0.2       0.0
12 C  s               0.8       0.0       1.6       0.0       0.1       0.0
12 C  px              1.1       0.9       3.6       3.4       5.2       1.4
12 C  py              1.1       9.2       0.2       0.8       0.3       2.5
12 C  dxy             0.0       0.0       0.3       0.1       0.5       0.0
13 O  s               0.0       0.1       1.0       1.1       0.0       0.2
13 O  px              1.0      12.1       0.4       0.3      10.3       0.4
13 O  py              0.0       0.3       0.2       5.7       0.8       0.0
13 O  dz2             0.0       0.0       0.3       0.0       0.0       0.1
[...]
10 C  s               0.0       0.0       0.0       0.1       0.1      29.4
10 C  dx2y2           0.0       0.1       0.0       0.2       0.1       0.0
10 C  dxy             0.0       0.0       0.0       0.1       0.1       0.0
11 C  s               0.0       0.0       0.0       0.1       0.0      13.9
11 C  py              0.2       0.0       0.0       0.4       0.2       0.0
11 C  dx2y2           0.1       0.2       0.0       0.9       0.6       0.0
12 C  s               0.8       0.0       1.6       0.6       0.4       8.4
12 C  px              1.1       0.0       1.6       1.7       1.4       0.0
12 C  py              0.5       0.1       1.0       0.5       1.8       0.0
12 C  dz2             0.6       0.0       0.6       0.6       0.3       0.0
12 C  dx2y2           0.0       0.0       0.0       0.1       0.2       0.0
12 C  dxy             1.6       0.0       2.4       2.8       4.2       0.0
13 O  s              17.8       1.2       0.0      13.2       0.0       0.1
13 O  px              0.4       2.2      18.5       0.0      14.0       0.0
13 O  py              5.9       0.3       0.6       6.1       0.3       0.0
13 O  dz2            11.0       0.6       0.0       6.2       0.0       0.0
13 O  dx2y2           6.5       0.3       1.2       1.9       1.2       0.0
13 O  dxy             0.3       0.5      15.9       0.4      12.4       0.0
15 H  s               0.1       3.3       0.0       0.4       0.1       0.0
15 H  px              0.1       6.1       0.0       0.5       0.1       0.0
15 H  py              0.1       0.6       0.0       0.1       0.1       0.0
16 H  s               0.0       3.3       0.0       0.4       0.1       0.0
16 H  px              0.0       4.5       0.0       0.3       0.1       0.0
16 H  py              0.0       2.4       0.0       0.3       0.1       0.0
17 H  s               0.1       1.7       0.0       0.5       0.3       0.0
17 H  py              0.2       3.7       0.0       0.8       0.3       0.0
18 H  s               0.3       1.5       0.0       0.5       0.3       0.0
18 H  py              0.6       3.2       0.0       0.8       0.3       0.0
19 H  s               0.3       0.1       0.0       0.4       0.2       0.0
19 H  py              0.5       0.4       0.0       0.6       0.2       0.0
20 H  s               0.1       0.1       0.0       0.2       0.1       0.0
20 H  px              0.0       0.2       0.0       0.2       0.0       0.0
20 H  py              0.1       0.1       0.0       0.2       0.1       0.0
21 H  s               0.1       0.1       0.0       0.3       0.2       0.0
21 H  py              0.2       0.2       0.0       0.5       0.2       0.0

                    324       325       326       327       328       329   
                  21.46283  21.90718  22.00003  22.02124  22.07975  22.15829
                   0.00000   0.00000   0.00000   0.00000   0.00000   0.00000
                  --------  --------  --------  --------  --------  --------
 0 C  s              18.8       5.8      14.0       5.1      13.7       0.1
 1 C  s              18.7       7.0       0.5      21.0       7.5      13.1
 2 C  s              14.8       0.2      14.1       0.6      18.1      12.4
 3 C  s               9.8       6.9      12.1       5.3       2.2       0.5
 4 C  s               9.8       7.0       1.3      17.7       1.2       7.0
 5 C  s              15.0       0.0       6.0      13.1      11.3      15.8
 6 O  s               0.0       0.1       0.0       0.0       0.0       0.0
 7 C  s               0.3      20.8       1.6       1.6       1.0      14.2
 8 C  s               1.4       6.8      23.7       0.1       5.4       6.8
 9 C  s               2.8       3.4       8.3       7.9      25.1       0.0
10 C  s               5.7      24.9       7.6       4.9       6.6       5.9
11 C  s               2.0       0.1       8.3      13.6       6.0      22.8
12 C  s               0.4      16.2       1.5       8.4       1.2       0.9
13 O  s               0.0       0.1       0.1       0.0       0.0       0.0

                    330       331       332       333       334       335   
                  22.17401  22.25323  22.28171  22.33743  22.44328  25.35565
                   0.00000   0.00000   0.00000   0.00000   0.00000   0.00000
                  --------  --------  --------  --------  --------  --------
 0 C  s              19.4       0.8      10.7       8.1       1.1       0.0
 1 C  s               8.5       1.5      10.5       8.0       1.1       0.0
 2 C  s               2.2      14.7       7.7       8.2       4.4       0.0
 3 C  s              13.8       9.4       7.0       9.7      20.4       0.0
 3 C  px              0.0       0.0       0.1       0.0       0.0       0.0
 4 C  s               3.9      13.1       6.3       8.8      21.0       0.0
 4 C  px              0.0       0.0       0.2       0.0       0.0       0.0
 5 C  s               3.1      12.5       8.1       8.0       4.5       0.0
 7 C  s               5.8      10.8       1.5      14.9      19.0       0.0
 7 C  px              0.0       0.0       0.1       0.0       0.0       0.0
 8 C  s               8.9       9.6      15.1       6.7       3.6       0.0
 9 C  s              16.3       0.5      12.7       5.2       0.8       0.1
10 C  s               3.2       0.9       7.0       3.1       0.4       0.0
10 C  px              0.0       0.0       0.0       0.0       0.0       0.4
11 C  s               0.1      14.1       9.3       5.5       3.6       0.0
12 C  s              14.4      11.4       3.3      13.5      19.5       0.0
12 C  px              0.1       0.0       0.1       0.0       0.0       0.0
14 Cl s               0.0       0.0       0.0       0.0       0.0      99.1

                    336       337   
                  43.67290  43.82158
                   0.00000   0.00000
                  --------  --------
 6 O  s              49.7      50.2
13 O  s              50.2      49.7


                      *****************************
                      * MAYER POPULATION ANALYSIS *
                      *****************************

  NA   - Mulliken gross atomic population
  ZA   - Total nuclear charge
  QA   - Mulliken gross atomic charge
  VA   - Mayer's total valence
  BVA  - Mayer's bonded valence
  FA   - Mayer's free valence

  ATOM       NA         ZA         QA         VA         BVA        FA
  0 C      6.1296     6.0000    -0.1296     3.7907     3.7907     0.0000
  1 C      6.1303     6.0000    -0.1303     3.7901     3.7901    -0.0000
  2 C      6.3293     6.0000    -0.3293     3.7345     3.7345     0.0000
  3 C      5.7940     6.0000     0.2060     3.7946     3.7946    -0.0000
  4 C      5.7853     6.0000     0.2147     3.7840     3.7840    -0.0000
  5 C      6.3304     6.0000    -0.3304     3.7342     3.7342    -0.0000
  6 O      8.0990     8.0000    -0.0990     2.0882     2.0882     0.0000
  7 C      5.8019     6.0000     0.1981     3.8226     3.8226     0.0000
  8 C      6.3126     6.0000    -0.3126     3.6948     3.6948    -0.0000
  9 C      6.2168     6.0000    -0.2168     3.8136     3.8136    -0.0000
 10 C      5.7349     6.0000     0.2651     3.6589     3.6589    -0.0000
 11 C      6.4618     6.0000    -0.4618     3.7568     3.7568     0.0000
 12 C      5.7393     6.0000     0.2607     3.7171     3.7171    -0.0000
 13 O      8.1014     8.0000    -0.1014     2.0875     2.0875     0.0000
 14 Cl    17.1450    17.0000    -0.1450     1.1166     1.1166     0.0000
 15 H      0.8490     1.0000     0.1510     0.9679     0.9679     0.0000
 16 H      0.8490     1.0000     0.1510     0.9679     0.9679    -0.0000
 17 H      0.8421     1.0000     0.1579     0.9698     0.9698    -0.0000
 18 H      0.8421     1.0000     0.1579     0.9698     0.9698    -0.0000
 19 H      0.8407     1.0000     0.1593     0.9693     0.9693     0.0000
 20 H      0.8357     1.0000     0.1643     0.9656     0.9656    -0.0000
 21 H      0.8297     1.0000     0.1703     0.9678     0.9678     0.0000

  Mayer bond orders larger than 0.100000
B(  0-C ,  1-C ) :   1.4147 B(  0-C ,  5-C ) :   1.3395 B(  0-C , 15-H ) :   0.9508 
B(  1-C ,  2-C ) :   1.3385 B(  1-C , 16-H ) :   0.9509 B(  2-C ,  3-C ) :   1.3573 
B(  2-C , 17-H ) :   0.9631 B(  3-C ,  4-C ) :   1.4359 B(  3-C , 13-O ) :   0.9271 
B(  4-C ,  5-C ) :   1.3550 B(  4-C ,  6-O ) :   0.9268 B(  5-C , 18-H ) :   0.9630 
B(  6-O ,  7-C ) :   0.9536 B(  7-C ,  8-C ) :   1.3636 B(  7-C , 12-C ) :   1.4138 
B(  8-C ,  9-C ) :   1.3113 B(  8-C , 19-H ) :   0.9710 B(  9-C , 10-C ) :   1.3897 
B(  9-C , 20-H ) :   0.9393 B( 10-C , 11-C ) :   1.3196 B( 10-C , 14-Cl) :   0.9003 
B( 11-C , 12-C ) :   1.3141 B( 11-C , 21-H ) :   0.9463 B( 12-C , 13-O ) :   0.9437 


-------
TIMINGS
-------

Total SCF time: 0 days 0 hours 0 min 57 sec 

Total time                  ....      57.705 sec
Sum of individual times     ....      54.350 sec  ( 94.2%)

SCF preparation             ....       0.233 sec  (  0.4%)
Fock matrix formation       ....      50.064 sec  ( 86.8%)
  Startup                   ....       0.073 sec  (  0.1% of F)
  Split-RI-J                ....      12.516 sec  ( 25.0% of F)
  XC integration            ....      36.851 sec  ( 73.6% of F)
    XC Preparation          ....       0.000 sec  (  0.0% of XC)
    Basis function eval.    ....       5.150 sec  ( 14.0% of XC)
    Density eval.           ....      11.692 sec  ( 31.7% of XC)
    XC-Functional eval.     ....       2.824 sec  (  7.7% of XC)
    XC-Potential eval.      ....      12.478 sec  ( 33.9% of XC)
Diagonalization             ....       0.000 sec  (  0.0%)
Density matrix formation    ....       0.311 sec  (  0.5%)
Total Energy calculation    ....       0.039 sec  (  0.1%)
Population analysis         ....       0.194 sec  (  0.3%)
Orbital Transformation      ....       0.093 sec  (  0.2%)
Orbital Orthonormalization  ....       0.000 sec  (  0.0%)
DIIS solution               ....       3.333 sec  (  5.8%)
  MO trafo                  ....       0.000 sec  (  0.0 % of DIIS)
  Orb grad                  ....       0.000 sec  (  0.0 % of DIIS)
  Energy W gradient         ....       0.000 sec  (  0.0 % of DIIS)
  DIIS error                ....       0.044 sec  (  1.3 % of DIIS)
  DIIS work                 ....       3.220 sec  ( 96.6 % of DIIS)
  Form Q                    ....       0.000 sec  (  0.0 % of DIIS)
  Form QpQm                 ....       0.000 sec  (  0.0 % of DIIS)
  Exp/Cayley                ....       0.000 sec  (  0.0 % of DIIS)
  Orb update                ....       0.000 sec  (  0.0 % of DIIS)
  Wake-sleep                ....       0.023 sec  (  0.7 % of DIIS)
SOSCF solution              ....       0.083 sec  (  0.1%)
  MO trafo                  ....       0.057 sec  ( 68.4 % of SOSCF)
  Orb grad                  ....       0.001 sec  (  0.8 % of SOSCF)
  Rot update                ....       0.000 sec  (  0.1 % of SOSCF)
  Step                      ....       0.025 sec  ( 30.5 % of SOSCF)
Finished LeanSCF after  57.8 sec

Maximum memory used throughout the entire LEANSCF-calculation: 39.2 MB


-------------------------------------------------------------------------------
                          DFT DISPERSION CORRECTION                            
                                                                               
                                DFTD4 V3.4.0                                   
-------------------------------------------------------------------------------
The R2SCAN3C composite method is recognized
Using three-body term ABC
Active option DFTDOPT                   ...         5   

-------------------------   ----------------
Dispersion correction           -0.009967815
-------------------------   ----------------

------------------   -----------------
gCP correction             0.007706590
------------------   -----------------

-------------------------   --------------------
FINAL SINGLE POINT ENERGY     -1071.975495029378
-------------------------   --------------------


------------------------------------------------------------------------------
                              ORCA PROPERTY CALCULATIONS
------------------------------------------------------------------------------

GBWName                                 ... sp_gas.gbw
Number of atoms                         ...     22
Number of basis functions               ...    338
Max core memory                         ...   1024 MB

Electric properties:
Dipole moment                           ... YES
Quadrupole moment                       ...  NO
Static polarizability (Dipole/Dipole)   ...  NO
Static polarizability (Dipole/Quad.)    ...  NO
Static polarizability (Quad./Quad.)     ...  NO
Static polarizability (Velocity)        ...  NO

Atomic electric properties:
Dipole moment                           ...  NO
Quadrupole moment                       ...  NO
Static polarizability                   ...  NO

Choice of electric origin               ... Center of mass
Position of electric origin             ...     0.000003    -0.000000    -0.000000

General magnetic properties:
Magnetizability                         ...  NO

EPR properties:
g-Tensor (aka g-matrix)                 ...  NO
Zero-Field splitting spin-orbit         ...  NO
Zero-field splitting spin-spin          ...  NO
Hyperfine couplings                     ...  NO (   0 nuclei)
Quadrupole couplings                    ...  NO (   0 nuclei)
Contact density                         ...  NO (   0 nuclei)

NMR properties:
Chemical shifts                         ...  NO (   0 nuclei)
Spin-rotation constants                 ...  NO (   0 nuclei)
Spin-spin couplings                     ...  NO (   0 nuclei,    0 pairs)

Choice of magnetic origin               ... GIAO
Position of magnetic origin             ...     0.000000     0.000000     0.000000

Properties with geometric perturbations:
SCF Hessian                             ...  NO
IR spectrum                             ...  NO
VCD spectrum                            ...  NO
X-ray spectroscopy properties:
SCF XES/XAS/RIXS spectra                ...  NO


-------------
DIPOLE MOMENT
-------------

Method             : SCF
Type of density    : Electron Density
Multiplicity       :   1
Irrep              :   0
Energy             : -1071.9732338049757345 Eh
Relativity type    : 
Basis              : AO
                                X                 Y                 Z
Electronic contribution:    -14.902018572       1.999575000      -0.001027932
Nuclear contribution   :     15.680144568      -2.226508332       0.001112227
                        -----------------------------------------
Total Dipole Moment    :      0.778125995      -0.226933332       0.000084295
                        -----------------------------------------
Magnitude (a.u.)       :      0.810542293
Magnitude (Debye)      :      2.060234780



--------------------
Rotational spectrum 
--------------------
 
Rotational constants in cm-1:             0.062022             0.009219             0.008026 
Rotational constants in MHz :          1859.375231           276.388749           240.621476 

Dipole components along the rotational axes: 
x,y,z [a.u.] :    -0.778126    -0.226934     0.000084 
x,y,z [Debye]:    -1.977839    -0.576821     0.000214 

 

Dipole moment calculation done in   0.0 sec 

Maximum memory used throughout the entire PROP-calculation: 25.6 MB

--------------------------------
SUGGESTED CITATIONS FOR THIS RUN
--------------------------------

Below you find a list of papers that are relevant to this ORCA run
We neither can nor want to force you to cite these papers, but we appreciate if you do
You receive ORCA, which is the product of decades of hard work by many enthusiastic individuals, for free
The only thing we kindly ask in return is that you cite our papers,
We deeply appreciate it, if you show your appreciation for ORCA by not just citing the generic ORCA reference.

Please note that relegating all ORCA citations to the supporting information does *not* help us.
SI sections are not indexed - citations you put there will not count into any citation statistics
But we need these citations in order to attract the funding resources that allow us to do what we are doing

Therefore, if you are a happy ORCA user, please consider citing a few of the papers listed below in the main body of your paper

In addition to the list printed below, the program has created the file sp_gas.bibtex that contains the list in bibtex format
You can import this file easily into all common literature databanks and citation aid programs


List of essential papers. We consider these as the minimum necessary citations

  1. Neese,F.
     Software update: the ORCA program system, version 5.0
     WIRES Comput. Molec. Sci., 2022 12(1)e1606
     doi.org/10.1002/wcms.1606
  2. Grimme,S.; Hansen,A.; Ehlert,S.; Mewes,J.
     r2SCAN-3c: A 'Swiss army knife' composite electronic-structure method
     J. Chem. Phys., 2021 154 064103
     doi.org/10.1063/5.0040021

List of papers to cite with high priority. The work reported in these papers was absolutely
necessary for this run to complete.
Our perspective: the developers of density functionals and basis sets usually get cited in chemistry papers
Good! But without the algorithms to do something with them, the functionals or basis sets would not do anything.
Hence, in our opinion, the algorithm design and method developments papers are equally worthy of getting cited

  1. Neese,F.
     An improvement of the resolution of the identity approximation for the formation of the Coulomb matrix
     J. Comp. Chem., 2003 24(14)1740-1747
     doi.org/10.1002/jcc.10318
  2. Neese,F.
     The SHARK Integral Generation and Digestion System
     J. Comp. Chem., 2022  1-16
     doi.org/10.1002/jcc.26942
  3. Lehtola,S.; Steigemann,C.; Oliveira,M.; Marques,M.
     Recent developments in Libxc - A comprehensive library of functionals for density functional theory
     Software X, 2018 7 
     doi.org/10.1016/j.softx.2017.11.002
  4. Caldeweyher,E.; Bannwarth,C.; Grimme,S.
     Extension of the D3 dispersion coefficient model
     J. Chem. Phys., 2017 147 034112-XXXX
     doi.org/10.1063/1.4993215
  5. Caldeweyher,E.; Ehlert,S.; Hansen,A.; Neugebauer,H.; Spicher,S.; Bannwarth,C.; Grimme,S.
     A generally applicable atomic-charge dependent London dispersion correction
     J. Chem. Phys., 2019 150 154122-XXXX
     doi.org/10.1063/1.5090222
  6. Caldeweyher,E.; Mewes,J.; Ehlert,S.; Grimme,S.
     Extension and evaluation of the D4 London-dispersion model for periodic systems
     Phys. Chem. Chem. Phys., 2020 22(16)8499-8512
     doi.org/10.1039/D0CP00502A

List of suggested additional citations. These are papers that are important in the 'surrounding' of 
of this run, or papers that preceded the highly important papers. If you like your results we are grateful for a citation.

  1. Neese,F.
     The ORCA program system
     WIRES Comput. Molec. Sci., 2012 2(1)73-78
     doi.org/10.1002/wcms.81
  2. Neese,F.
     Software update: the ORCA program system, version 4.0
     WIRES Comput. Molec. Sci., 2018 8(1)1-6
     doi.org/10.1002/wcms.1327
  3. Neese,F.; Wennmohs,F.; Becker,U.; Riplinger,C.
     The ORCA quantum chemistry program package
     J. Chem. Phys., 2020 152 Art. No. L224108
     doi.org/10.1063/5.0004608

List of optional additional citations

  1. Neese,F.
     Approximate second-order SCF convergence for spin unrestricted wavefunctions
     Chem. Phys. Lett., 2000 325(1-3)93-98
     doi.org/10.1016/s0009-2614(00)00662-x

Timings for individual modules:

Sum of individual times          ...       60.925 sec (=   1.015 min)
Startup calculation              ...        2.203 sec (=   0.037 min)   3.6 %
SCF iterations                   ...       58.589 sec (=   0.976 min)  96.2 %
Property calculations            ...        0.133 sec (=   0.002 min)   0.2 %
                             ****ORCA TERMINATED NORMALLY****
TOTAL RUN TIME: 0 days 0 hours 1 minutes 2 seconds 124 msec
