      -----------------------------------------------------------      
     |                   =====================                   |     
     |                           x T B                           |     
     |                   =====================                   |     
     |                         S. Grimme                         |     
     |          Mulliken Center for Theoretical Chemistry        |     
     |                    University of Bonn                     |     
      -----------------------------------------------------------      

   * xtb version 6.7.1 (edcfbbe) compiled by 'albert@albert-system' on 2024-07-22

   xtb is free software: you can redistribute it and/or modify it under
   the terms of the GNU Lesser General Public License as published by
   the Free Software Foundation, either version 3 of the License, or
   (at your option) any later version.
   
   xtb is distributed in the hope that it will be useful,
   but WITHOUT ANY WARRANTY; without even the implied warranty of
   MERCHANTABILITY or FITNESS FOR A PARTICULAR PURPOSE.  See the
   GNU Lesser General Public License for more details.
   
   Cite this work as:
   * C. Bannwarth, E. Caldeweyher, S. Ehlert, A. Hansen, P. Pracht,
     J. Seibert, S. Spicher, S. Grimme, WIREs Comput. Mol. Sci., 2020, 11,
     e01493. DOI: 10.1002/wcms.1493
   
   for GFN2-xTB:
   * C. Bannwarth, S. Ehlert and S. Grimme., J. Chem. Theory Comput., 2019,
     15, 1652-1671. DOI: 10.1021/acs.jctc.8b01176
   for GFN1-xTB:
   * S. Grimme, C. Bannwarth, P. Shushkov, J. Chem. Theory Comput., 2017,
     13, 1989-2009. DOI: 10.1021/acs.jctc.7b00118
   for GFN0-xTB:
   * P. Pracht, E. Caldeweyher, S. Ehlert, S. Grimme, ChemRxiv, 2019, preprint.
     DOI: 10.26434/chemrxiv.8326202.v1
   for GFN-FF:
   * S. Spicher and S. Grimme, Angew. Chem. Int. Ed., 2020, 59, 15665-15673.
     DOI: 10.1002/anie.202004239
   
   for ALPB and GBSA implicit solvation:
   * S. Ehlert, M. Stahn, S. Spicher, S. Grimme, J. Chem. Theory Comput.,
     2021, 17, 4250-4261. DOI: 10.1021/acs.jctc.1c00471
   
   for ddCOSMO and CPCM-X implicit solvation:
   * M. Stahn, S. Ehlert, S. Grimme, J. Phys. Chem. A,
     2023, XX, XXXX-XXXX. DOI: 10.1021/acs.jpca.3c04382
   
   for DFT-D4:
   * E. Caldeweyher, C. Bannwarth and S. Grimme, J. Chem. Phys., 2017,
     147, 034112. DOI: 10.1063/1.4993215
   * E. Caldeweyher, S. Ehlert, A. Hansen, H. Neugebauer, S. Spicher,
     C. Bannwarth and S. Grimme, J. Chem. Phys., 2019, 150, 154122.
     DOI: 10.1063/1.5090222
   * E. Caldeweyher, J.-M. Mewes, S. Ehlert and S. Grimme, Phys. Chem. Chem. Phys.
     2020, 22, 8499-8512. DOI: 10.1039/D0CP00502A
   
   for sTDA-xTB:
   * S. Grimme and C. Bannwarth, J. Chem. Phys., 2016, 145, 054103.
     DOI: 10.1063/1.4959605
   
   in the mass-spec context:
   * V. Asgeirsson, C. Bauer and S. Grimme, Chem. Sci., 2017, 8, 4879.
     DOI: 10.1039/c7sc00601b
   * J. Koopman and S. Grimme, ACS Omega 2019, 4, 12, 15120-15133.
     DOI: 10.1021/acsomega.9b02011
   
   for metadynamics refer to:
   * S. Grimme, J. Chem. Theory Comput., 2019, 155, 2847-2862
     DOI: 10.1021/acs.jctc.9b00143
   
   for SPH calculations refer to:
   * S. Spicher and S. Grimme, J. Chem. Theory Comput., 2021, 17, 1701-1714
     DOI: 10.1021/acs.jctc.0c01306
   
   for ONIOM refer to:
   * C. Plett, A. Katbashev, S. Ehlert, S. Grimme, M. Bursch,
     Phys. Chem. Chem. Phys., 2023, 25, 17860-17868. DOI: 10.1039/D3CP02178E
   
   for DIPRO refer to:
   * J. Kohn, N. Gildemeister, S. Grimme, D. Fazzi, A. Hansen,
     J. Chem. Phys., 2023, just accepted.
   
   for PTB refer to:
   * S. Grimme, M. Mueller, A. Hansen, J. Chem. Phys., 2023, 158, 124111.
     DOI: 10.1063/5.0137838
   
   with help from (in alphabetical order)
   P. Atkinson, C. Bannwarth, F. Bohle, G. Brandenburg, E. Caldeweyher
   M. Checinski, S. Dohm, S. Ehlert, S. Ehrlich, I. Gerasimov, C. Hölzer
   A. Katbashev, J. Kohn, J. Koopman, C. Lavigne, S. Lehtola, F. März, M. Müller,
   F. Musil, H. Neugebauer, J. Pisarek, C. Plett, P. Pracht, F. Pultar,
   J. Seibert, P. Shushkov, S. Spicher, M. Stahn, M. Steiner, T. Strunk,
   J. Stückrath, T. Rose, and J. Unsleber
   
 * started run on 2025/04/04 at 21:54:30.342     
   ID    Z sym.   atoms
    1    6 C      1-6
    2    1 H      7-16

           -------------------------------------------------
          |                Calculation Setup                |
           -------------------------------------------------

          program call               : /srv/scratch/z5358697/.xtb/bin/xtb solv.coord --gfn2 --sp --chrg 0 --norestart --parallel 1 --alpb water reference -I xtb_sp-xcontrol-inp
          hostname                   : k157
          coordinate file            : solv.coord
          omp threads                :                     1


           -------------------------------------------------
          |                 G F N 2 - x T B                 |
           -------------------------------------------------

        Reference                      10.1021/acs.jctc.8b01176
      * Hamiltonian:
        H0-scaling (s, p, d)           1.850000    2.230000    2.230000
        zeta-weighting                 0.500000
      * Dispersion:
        s8                             2.700000
        a1                             0.520000
        a2                             5.000000
        s9                             5.000000
      * Repulsion:
        kExp                           1.500000    1.000000
        rExp                           1.000000
      * Coulomb:
        alpha                          2.000000
        third order                    shell-resolved
        anisotropic                    true
        a3                             3.000000
        a5                             4.000000
        cn-shift                       1.200000
        cn-exp                         4.000000
        max-rad                        5.000000

      * Solvation model:               ALPB
        Solvent                        water
        Parameter file                 internal GFN2-xTB/ALPB
        Dielectric constant                8.0200E+01
        Reference state                gsolv=reference [X=1]
        Free energy shift                  2.8945E-03 Eh       1.8164E+00 kcal/mol
        Temperature                        2.9815E+02 K
        Density                            1.0000E+00 kg/L
        Solvent mass                       1.8000E+01 g/mol
        Interaction kernel             P16
        Born radius scaling (c1)           1.4744E+00
        Born radii integrator          GBOBC
        Born offset                        0.0000E+00 a0       0.0000E+00 AA
        H-bond correction              true
        Ion screening                  false
        Surface tension                    1.0000E-05 Eh       1.5569E+01 dyn/cm
        Grid points                               974 per atom

          ...................................................
          :                      SETUP                      :
          :.................................................:
          :  # basis functions                  34          :
          :  # atomic orbitals                  34          :
          :  # shells                           22          :
          :  # electrons                        34          :
          :  max. iterations                   250          :
          :  Hamiltonian                  GFN2-xTB          :
          :  restarted?                      false          :
          :  GBSA solvation                   true          :
          :  PC potential                    false          :
          :  electronic temp.          300.0000000     K    :
          :  accuracy                    1.0000000          :
          :  -> integral cutoff          0.2500000E+02      :
          :  -> integral neglect         0.1000000E-07      :
          :  -> SCF convergence          0.1000000E-05 Eh   :
          :  -> wf. convergence          0.1000000E-03 e    :
          :  Broyden damping             0.4000000          :
          :  net charge                          0          :
          :  unpaired electrons                  0          :
          ...................................................

 iter      E             dE          RMSdq      gap      omega  full diag
   1    -18.2032143 -0.182032E+02  0.353E+00    4.13       0.0  T
   2    -18.2150244 -0.118101E-01  0.214E+00    4.08       1.0  T
   3    -18.2077825  0.724187E-02  0.983E-01    4.11       1.0  T
   4    -18.2174974 -0.971490E-02  0.291E-01    4.05       1.0  T
   5    -18.2179899 -0.492525E-03  0.517E-02    4.06       1.0  T
   6    -18.2179914 -0.149276E-05  0.293E-02    4.06       1.0  T
   7    -18.2179923 -0.851319E-06  0.202E-03    4.06      12.4  T
   8    -18.2179923 -0.199459E-07  0.541E-04    4.06      46.2  T
   9    -18.2179923 -0.734520E-09  0.106E-04    4.06     235.6  T

   *** convergence criteria satisfied after 9 iterations ***

         #    Occupation            Energy/Eh            Energy/eV
      -------------------------------------------------------------
         1        2.0000           -0.6278057             -17.0835
       ...           ...                  ...                  ...
        11        2.0000           -0.4686865             -12.7536
        12        2.0000           -0.4571178             -12.4388
        13        2.0000           -0.4467316             -12.1562
        14        2.0000           -0.4308881             -11.7251
        15        2.0000           -0.4179532             -11.3731
        16        2.0000           -0.4069289             -11.0731
        17        2.0000           -0.3748153             -10.1992 (HOMO)
        18                         -0.2257541              -6.1431 (LUMO)
        19                         -0.1524893              -4.1494
        20                          0.0952660               2.5923
        21                          0.1130989               3.0776
        22                          0.1442449               3.9251
       ...                                ...                  ...
        34                          0.6718818              18.2828
      -------------------------------------------------------------
                  HL-Gap            0.1490613 Eh            4.0562 eV
             Fermi-level           -0.3002847 Eh           -8.1712 eV

 SCC (total)                   0 d,  0 h,  0 min,  0.014 sec
 SCC setup                      ...        0 min,  0.001 sec (  5.462%)
 Dispersion                     ...        0 min,  0.000 sec (  0.458%)
 classical contributions        ...        0 min,  0.000 sec (  0.111%)
 integral evaluation            ...        0 min,  0.001 sec (  6.376%)
 iterations                     ...        0 min,  0.010 sec ( 70.688%)
 molecular gradient             ...        0 min,  0.002 sec ( 16.150%)
 printout                       ...        0 min,  0.000 sec (  0.670%)

         :::::::::::::::::::::::::::::::::::::::::::::::::::::
         ::                     SUMMARY                     ::
         :::::::::::::::::::::::::::::::::::::::::::::::::::::
         :: total energy             -17.889104986699 Eh    ::
         :: total w/o Gsasa/hb       -17.890094400430 Eh    ::
         :: gradient norm              0.000054344921 Eh/a0 ::
         :: HOMO-LUMO gap              4.056163238652 eV    ::
         ::.................................................::
         :: SCC energy               -18.217961285435 Eh    ::
         :: -> isotropic ES            0.005325000162 Eh    ::
         :: -> anisotropic ES          0.004943730366 Eh    ::
         :: -> anisotropic XC          0.014106240870 Eh    ::
         :: -> dispersion             -0.009808513780 Eh    ::
         :: -> Gsolv                   0.000384762461 Eh    ::
         ::    -> Gelec               -0.000604651270 Eh    ::
         ::    -> Gsasa               -0.001259184343 Eh    ::
         ::    -> Ghb                 -0.000645951087 Eh    ::
         ::    -> Gshift               0.002894549160 Eh    ::
         :: repulsion energy           0.328856298735 Eh    ::
         :: add. restraining           0.000000000000 Eh    ::
         :: total charge              -0.000000000000 e     ::
         :::::::::::::::::::::::::::::::::::::::::::::::::::::

           -------------------------------------------------
          |                Property Printout                |
           -------------------------------------------------

    * Orbital Energies and Occupations

         #    Occupation            Energy/Eh            Energy/eV
      -------------------------------------------------------------
         1        2.0000           -0.6278057             -17.0835
       ...           ...                  ...                  ...
         5        2.0000           -0.5558354             -15.1251
         6        2.0000           -0.5155645             -14.0292
         7        2.0000           -0.5070195             -13.7967
         8        2.0000           -0.4906135             -13.3503
         9        2.0000           -0.4869400             -13.2503
        10        2.0000           -0.4698894             -12.7863
        11        2.0000           -0.4686865             -12.7536
        12        2.0000           -0.4571178             -12.4388
        13        2.0000           -0.4467316             -12.1562
        14        2.0000           -0.4308881             -11.7251
        15        2.0000           -0.4179532             -11.3731
        16        2.0000           -0.4069289             -11.0731
        17        2.0000           -0.3748153             -10.1992 (HOMO)
        18                         -0.2257541              -6.1431 (LUMO)
        19                         -0.1524893              -4.1494
        20                          0.0952660               2.5923
        21                          0.1130989               3.0776
        22                          0.1442449               3.9251
        23                          0.1563475               4.2544
        24                          0.1794527               4.8832
        25                          0.2089678               5.6863
        26                          0.2131837               5.8010
        27                          0.2232979               6.0762
        28                          0.2365325               6.4364
       ...                                ...                  ...
        34                          0.6718818              18.2828
      -------------------------------------------------------------
                  HL-Gap            0.1490613 Eh            4.0562 eV
             Fermi-level           -0.3002847 Eh           -8.1712 eV

     #   Z          covCN         q      C6AA      α(0)
     1   6 C        3.760    -0.118    22.808     6.808
     2   6 C        2.946     0.013    27.723     8.636
     3   6 C        2.847    -0.112    30.817     9.098
     4   6 C        2.946     0.013    27.723     8.636
     5   6 C        2.847    -0.112    30.817     9.098
     6   6 C        3.760    -0.118    22.808     6.808
     7   1 H        0.925     0.049     2.326     2.385
     8   1 H        0.925     0.045     2.383     2.414
     9   1 H        0.925     0.059     2.216     2.328
    10   1 H        0.926     0.030     2.585     2.514
    11   1 H        0.926     0.033     2.538     2.491
    12   1 H        0.926     0.033     2.537     2.491
    13   1 H        0.926     0.030     2.585     2.514
    14   1 H        0.925     0.049     2.326     2.385
    15   1 H        0.925     0.059     2.216     2.328
    16   1 H        0.925     0.045     2.383     2.414

 Mol. C6AA /au·bohr⁶  :       2176.125466
 Mol. C8AA /au·bohr⁸  :      49017.998279
 Mol. α(0) /au        :         73.350112


Wiberg/Mayer (AO) data.
largest (>0.10) Wiberg bond orders for each atom

 ---------------------------------------------------------------------------
     #   Z sym  total        # sym  WBO       # sym  WBO       # sym  WBO
 ---------------------------------------------------------------------------
     1   6 C    3.996 --     2 C    1.020     8 H    0.984     7 H    0.974
                             9 H    0.967
     2   6 C    3.988 --     3 C    1.883     4 C    1.044     1 C    1.020
     3   6 C    3.989 --     2 C    1.883    10 H    0.976    11 H    0.976
     4   6 C    3.988 --     5 C    1.883     2 C    1.044     6 C    1.020
     5   6 C    3.989 --     4 C    1.883    13 H    0.976    12 H    0.976
     6   6 C    3.996 --     4 C    1.020    16 H    0.984    14 H    0.974
                            15 H    0.967
     7   1 H    0.998 --     1 C    0.974
     8   1 H    0.998 --     1 C    0.984
     9   1 H    0.997 --     1 C    0.967
    10   1 H    0.999 --     3 C    0.976
    11   1 H    0.998 --     3 C    0.976
    12   1 H    0.998 --     5 C    0.976
    13   1 H    0.999 --     5 C    0.976
    14   1 H    0.998 --     6 C    0.974
    15   1 H    0.997 --     6 C    0.967
    16   1 H    0.998 --     6 C    0.984
 ---------------------------------------------------------------------------

Topologies differ in total number of bonds
Writing topology from bond orders to xtbtopo.mol

molecular dipole:
                 x           y           z       tot (Debye)
 q only:       -0.000       0.000       0.470
   full:        0.000       0.000       0.461       1.171
molecular quadrupole (traceless):
                xx          xy          yy          xz          yz          zz
 q only:        0.364       0.203      -1.046       0.000      -0.000       0.683
  q+dip:        1.291      -0.673      -2.690      -0.000      -0.000       1.399
   full:        0.717      -0.100      -1.582      -0.000      -0.000       0.865


           -------------------------------------------------
          | TOTAL ENERGY              -17.889104986699 Eh   |
          | GRADIENT NORM               0.000054344921 Eh/α |
          | HOMO-LUMO GAP               4.056163238652 eV   |
           -------------------------------------------------

------------------------------------------------------------------------
 * finished run on 2025/04/04 at 21:54:30.385     
------------------------------------------------------------------------
 total:
 * wall-time:     0 d,  0 h,  0 min,  0.043 sec
 *  cpu-time:     0 d,  0 h,  0 min,  0.013 sec
 * ratio c/w:     0.299 speedup
 SCF:
 * wall-time:     0 d,  0 h,  0 min,  0.014 sec
 *  cpu-time:     0 d,  0 h,  0 min,  0.007 sec
 * ratio c/w:     0.526 speedup

