15
 energy: -40.476110390720 gnorm: 0.047662454240 xtb: 6.7.1 (edcfbbe)
C           -0.44903306956375       -1.35997229320012       -0.00006415504957
C            0.27181898805731       -0.21020407978590       -0.00097321927762
C           -0.40362643687524        1.06895727962147        0.00039453549826
O            0.14403846620268        2.17054467619284        0.00234831892658
N           -1.79587330526487        0.97253510494578       -0.00069675001416
C           -2.55275283256931       -0.17816121576093       -0.00017031223660
O           -3.77660182852403       -0.18115275865619       -0.00035816164248
N           -1.80252675210069       -1.34242910001250        0.00059731280296
C            1.75941147705047       -0.22755187123479       -0.00042615191601
F            2.24988282624518       -1.48782223564466       -0.00747112795178
F            2.28265827575935        0.40531188082447       -1.08279807012252
F            2.28147648604174        0.39277899569032        1.09002424628259
H            0.00540112297971       -2.34376839180427        0.00029812277055
H           -2.31474169149598        1.84542035252456       -0.00045526023332
H           -2.31840501220184       -2.21462284636619        0.00114312181268
15
 energy: -40.477557640508 gnorm: 0.015387486324 xtb: 6.7.1 (edcfbbe)
C           -0.45918776319026       -1.36623337057282        0.00001663452129
C            0.26371026408323       -0.21720597714494       -0.00072304144280
C           -0.40938352333611        1.06917157561928        0.00034495786788
O            0.13570180112173        2.15922215025988        0.00206509510158
N           -1.79285423284790        0.97223275839111       -0.00054898630463
C           -2.54479170089788       -0.17624418666458       -0.00013089993937
O           -3.75617383021219       -0.17641633270385       -0.00028225610723
N           -1.80560737135481       -1.34413266420423        0.00046991192026
C            1.75552243340964       -0.22274284226263       -0.00036018143177
F            2.26285912890440       -1.47034799606339       -0.00707363594524
F            2.28432427790458        0.40319389757314       -1.07581662930925
F            2.28341167033081        0.39109422428912        1.08276500403058
H            0.00252749562576       -2.34444039907893        0.00004516302790
H           -2.31006867735791        1.84730386066889       -0.00029996816016
H           -2.32886325844238       -2.21459120077216        0.00092128182051
15
 energy: -40.477741571895 gnorm: 0.004491617576 xtb: 6.7.1 (edcfbbe)
C           -0.46370137587045       -1.37088570648928       -0.00004457478462
C            0.26008773152822       -0.22260833389143       -0.00053485878548
C           -0.41053924910476        1.07069223723300        0.00038135791227
O            0.13771260150795        2.15533665998307        0.00176251759250
N           -1.79019686881444        0.97161189874584       -0.00036296718501
C           -2.54225091972792       -0.17546721415433       -0.00009293091794
O           -3.75100502862309       -0.17421763940857       -0.00018938905438
N           -1.80718339209213       -1.34610075256067        0.00029706700682
C            1.75307870937674       -0.22034708540942       -0.00027830310257
F            2.26960349689720       -1.46120317678631       -0.00669764382107
F            2.28052067567978        0.40253768475361       -1.07240810143544
F            2.27986977323874        0.39092123776184        1.07910637394735
H            0.00697684068826       -2.34430422184003       -0.00008583290490
H           -2.30589085295029        1.84815145787940       -0.00013339059175
H           -2.33595542799308       -2.21425354848284        0.00067312577379
15
 energy: -40.477763698077 gnorm: 0.001787800684 xtb: 6.7.1 (edcfbbe)
C           -0.46471784167245       -1.37263911291499       -0.00010963387632
C            0.25960450562155       -0.22496563496380       -0.00043646101074
C           -0.41012118953711        1.07088702840968        0.00037754192236
O            0.14122324974683        2.15400081094369        0.00157186183350
N           -1.78912614763643        0.97115101441232       -0.00020555715894
C           -2.54215511923398       -0.17534797372216       -0.00004892596434
O           -3.75147095959381       -0.17354290536656       -0.00009820585616
N           -1.80794464395786       -1.34701609566939        0.00016380914074
C            1.75271749267862       -0.21959594136825       -0.00020909881368
F            2.27228778805276       -1.45906464253678       -0.00632577174640
F            2.27726813668256        0.40315899126485       -1.07210178154900
F            2.27673888342800        0.39209683327971        1.07855900990308
H            0.01046874036543       -2.34395695812380       -0.00023435620622
H           -2.30421603155558        1.84825253597976        0.00004353509783
H           -2.33943014964782       -2.21355445229041        0.00044648393383
15
 energy: -40.477768155141 gnorm: 0.000888807959 xtb: 6.7.1 (edcfbbe)
C           -0.46522986331326       -1.37389312144970       -0.00023241274870
C            0.25969097803331       -0.22688919103769       -0.00032455714820
C           -0.40959211314378        1.07034395424829        0.00043306643109
O            0.14494563526686        2.15226385700233        0.00137494072437
N           -1.78837638585701        0.97079848599043        0.00005313082054
C           -2.54217253951773       -0.17536489778271        0.00000516683762
O           -3.75216879658893       -0.17314122340907        0.00001277850046
N           -1.80862658563436       -1.34773806130522       -0.00004280402931
C            1.75287356415783       -0.21882815606337       -0.00012540505483
F            2.27459542543817       -1.45822335279565       -0.00565332237450
F            2.27415941598543        0.40412902091584       -1.07271373169845
F            2.27374048685107        0.39415100038725        1.07864795085869
H            0.01350737167702       -2.34361579499671       -0.00045508042252
H           -2.30321148269692        1.84819486546386        0.00034366184885
H           -2.34300839691700       -2.21232388783403        0.00006906710445
15
 energy: -40.477769049879 gnorm: 0.000222421747 xtb: 6.7.1 (edcfbbe)
C           -0.46504779239868       -1.37363178751297       -0.00027441931612
C            0.25973827716579       -0.22647849752578       -0.00031804907017
C           -0.40975345156031        1.07017267436440        0.00045352432309
O            0.14426718182339        2.15229289172462        0.00140458401730
N           -1.78858839089378        0.97098235215393        0.00011551462598
C           -2.54200233270753       -0.17541824057265        0.00001624717559
O           -3.75179333299080       -0.17334185126137        0.00002591360913
N           -1.80841822036065       -1.34759917964784       -0.00008865144533
C            1.75292228485595       -0.21878181427015       -0.00011527645262
F            2.27417158759929       -1.45856982730650       -0.00540790588690
F            2.27490081336256        0.40382712023904       -1.07292451600127
F            2.27446463596648        0.39427251046493        1.07862975805167
H            0.01269659868063       -2.34380631658086       -0.00052864127674
H           -2.30369599239300        1.84815973668180        0.00043727726607
H           -2.34273515240861       -2.21221627361672       -0.00003290997012
15
 energy: -40.477769161628 gnorm: 0.000081589551 xtb: 6.7.1 (edcfbbe)
C           -0.46498962843526       -1.37369851647727       -0.00034536302366
C            0.25970495718278       -0.22647430060561       -0.00028188040212
C           -0.40980041971609        1.07013278318090        0.00051914840664
O            0.14428118764935        2.15222776675282        0.00141371746668
N           -1.78859770081058        0.97108138304538        0.00023632969937
C           -2.54184861981037       -0.17544785850670        0.00003274374766
O           -3.75162260110916       -0.17343923519144        0.00004808252671
N           -1.80830279961140       -1.34762449904928       -0.00018087025293
C            1.75286865369000       -0.21865427778559       -0.00009134405122
F            2.27417425356125       -1.45853497425047       -0.00498532271132
F            2.27498832386854        0.40347856018026       -1.07309425123137
F            2.27457253198938        0.39464305841391        1.07840353544204
H            0.01259981209894       -2.34394973447948       -0.00065569521376
H           -2.30388121627399        1.84813531839862        0.00059464912150
H           -2.34302002053268       -2.21201197629215       -0.00022102987468
15
 energy: -40.477769197338 gnorm: 0.000041315585 xtb: 6.7.1 (edcfbbe)
C           -0.46491444526473       -1.37374500422698       -0.00043784019547
C            0.25971190330191       -0.22646980949000       -0.00024103684769
C           -0.40980653315591        1.07012985289216        0.00057422543071
O            0.14435715075213        2.15220349967085        0.00144375807379
N           -1.78859786151289        0.97113024591391        0.00036714045201
C           -2.54177012263577       -0.17546812926078        0.00005265369026
O           -3.75156153433102       -0.17351650365324        0.00008165118566
N           -1.80821685919235       -1.34763892822636       -0.00028681292646
C            1.75285304951337       -0.21859323020046       -0.00005868291281
F            2.27415738523111       -1.45854736816151       -0.00448624142667
F            2.27497278610365        0.40306809427832       -1.07331697391062
F            2.27458103746303        0.39507889619711        1.07816665991375
H            0.01261885941806       -2.34402537039903       -0.00081608668534
H           -2.30401837872234        1.84809841909222        0.00077734473372
H           -2.34323972322753       -2.21184116709234       -0.00042730892529
