
                                 *****************
                                 * O   R   C   A *
                                 *****************

                                            #,                                       
                                            ###                                      
                                            ####                                     
                                            #####                                    
                                            ######                                   
                                           ########,                                 
                                     ,,################,,,,,                         
                               ,,#################################,,                 
                          ,,##########################################,,             
                       ,#########################################, ''#####,          
                    ,#############################################,,   '####,        
                  ,##################################################,,,,####,       
                ,###########''''           ''''###############################       
              ,#####''   ,,,,##########,,,,          '''####'''          '####       
            ,##' ,,,,###########################,,,                        '##       
           ' ,,###''''                  '''############,,,                           
         ,,##''                                '''############,,,,        ,,,,,,###''
      ,#''                                            '''#######################'''  
     '                                                          ''''####''''         
             ,#######,   #######,   ,#######,      ##                                
            ,#'     '#,  ##    ##  ,#'     '#,    #''#        ,####,   ,####,        
            ##       ##  ##   ,#'  ##            #'  '#       #'       #'  '#        
            ##       ##  #######   ##           ,######,      #####,   #    #        
            '#,     ,#'  ##    ##  '#,     ,#' ,#      #,     #,   #   #,  ,#        
             '#######'   ##     ##  '#######'  #'      '#     '####' # '####'        



                #########################################################
                #                        -***-                          #
                #          Department of theory and spectroscopy        #
                #                                                       #
                #                      Frank Neese                      #
                #                                                       #
                #     Directorship, Architecture, Infrastructure        #
                #                    SHARK, DRIVERS                     #
                #        Core code/Algorithms in most modules           #
                #                                                       #
                #        Max Planck Institute fuer Kohlenforschung      #
                #                Kaiser Wilhelm Platz 1                 #
                #                 D-45470 Muelheim/Ruhr                 #
                #                      Germany                          #
                #                                                       #
                #                  All rights reserved                  #
                #                        -***-                          #
                #########################################################


                         Program Version 6.0.0  -   RELEASE  -


 With contributions from (in alphabetic order):
   Daniel Aravena         : Magnetic Suceptibility
   Michael Atanasov       : Ab Initio Ligand Field Theory (pilot matlab implementation)
   Alexander A. Auer      : GIAO ZORA, VPT2 properties, NMR spectrum
   Ute Becker             : All parallelization in ORCA, NUMFREQ, NUMCALC
   Giovanni Bistoni       : ED, misc. LED, open-shell LED, HFLD
   Martin Brehm           : Molecular dynamics
   Dmytro Bykov           : pre 5.0 version of the SCF Hessian
   Marcos Casanova-Páez   : Triplet and SCS-CIS(D). UHF-(DLPNO)-IP/EA/STEOM-CCSD. UHF-CVS-IP/STEOM-CCSD
   Vijay G. Chilkuri      : MRCI spin determinant printing, contributions to CSF-ICE
   Pauline Colinet        : FMM embedding
   Dipayan Datta          : RHF DLPNO-CCSD density
   Achintya Kumar Dutta   : EOM-CC, STEOM-CC
   Nicolas Foglia         : Exact transition moments, OPA infrastructure, MCD improvements
   Dmitry Ganyushin       : Spin-Orbit,Spin-Spin,Magnetic field MRCI
   Miquel Garcia          : C-PCM and meta-GGA Hessian, CCSD/C-PCM, Gaussian charge scheme
   Tiago L. C. Gouveia    : GS-ROHF, GS-ROCIS
   Yang Guo               : DLPNO-NEVPT2, F12-NEVPT2, CIM, IAO-localization
   Andreas Hansen         : Spin unrestricted coupled pair/coupled cluster methods
   Ingolf Harden          : AUTO-CI MPn and infrastructure 
   Benjamin Helmich-Paris : MC-RPA, TRAH-(SCF,CASSCF), AVAS, COSX integrals, SCF dyn. polar.
   Lee Huntington         : MR-EOM, pCC
   Robert Izsak           : Overlap fitted RIJCOSX, COSX-SCS-MP3, EOM
   Riya Kayal             : Wick's Theorem for AUTO-CI, AUTO-CI UHF-CCSDT
   Emily Kempfer          : AUTO-CI, RHF CISDT and CCSDT
   Christian Kollmar      : KDIIS, OOCD, Brueckner-CCSD(T), CCSD density, CASPT2, CASPT2-K, improved NEVPT2
   Axel Koslowski         : Symmetry handling
   Simone Kossmann        : Meta GGA functionals, TD-DFT gradient, OOMP2, (MP2 Hessian; deprecated post 5.0)
   Lucas Lang             : DCDCAS
   Marvin Lechner         : AUTO-CI (C++ implementation), FIC-MRCC
   Spencer Leger          : CASSCF response
   Dagmar Lenk            : GEPOL surface, SMD, ORCA-2-JSON
   Dimitrios Liakos       : Extrapolation schemes; Compound Job, initial MDCI parallelization
   Dimitrios Manganas     : Further ROCIS development; embedding schemes. LFT, Crystal Embedding
   Dimitrios Pantazis     : SARC Basis sets
   Anastasios Papadopoulos: AUTO-CI, single reference methods and gradients
   Taras Petrenko         : pre 6.0 DFT Hessian and TD-DFT gradient, (ASA, deprecated), ECA, 1-Electron XAS/XES, NRVS
   Peter Pinski           : DLPNO-MP2, DLPNO-MP2 Gradient
   Christoph Reimann      : Effective Core Potentials
   Marius Retegan         : Local ZFS, SOC
   Christoph Riplinger    : Optimizer, TS searches, QM/MM, DLPNO-CCSD(T), (RO)-DLPNO pert. Triples
   Michael Roemelt        : Original ROCIS implementation
   Masaaki Saitow         : Open-shell DLPNO-CCSD energy and density
   Barbara Sandhoefer     : DKH picture change effects
   Kantharuban Sivalingam : CASSCF convergence/infrastructure, NEVPT2 and variants, FIC-MRCI
   Bernardo de Souza      : ESD, SOC TD-DFT
   Georgi Stoychev        : AutoAux, RI-MP2 NMR, DLPNO-MP2 response, X2C
   Van Anh Tran           : RI-MP2 g-tensors
   Willem Van den Heuvel  : Paramagnetic NMR
   Zikuan Wang            : NOTCH, Electric field optimization 
   Frank Wennmohs         : Technical directorship and infrastructure
   Hang Xu                : AUTO-CI-Response properties 


 We gratefully acknowledge several colleagues who have allowed us to
 interface, adapt or use parts of their codes:
   Stefan Grimme, W. Hujo, H. Kruse, P. Pracht,  : VdW corrections, initial TS optimization,
                  C. Bannwarth, S. Ehlert,         DFT functionals, gCP, sTDA/sTD-DF
                  L. Wittmann, M. Mueller
   Ed Valeev, F. Pavosevic, A. Kumar             : LibInt (2-el integral package), F12 methods
   Garnet Chan, S. Sharma, J. Yang, R. Olivares  : DMRG
   Ulf Ekstrom                                   : XCFun DFT Library
   Mihaly Kallay                                 : mrcc  (arbitrary order and MRCC methods)
   Frank Weinhold                                : gennbo (NPA and NBO analysis)
   Simon Mueller                                 : openCOSMO-RS
   Christopher J. Cramer and Donald G. Truhlar   : smd solvation model
   Lars Goerigk                                  : TD-DFT with DH, B97 family of functionals
   V. Asgeirsson, H. Jonsson                     : NEB implementation
   FAccTs GmbH                                   : IRC, NEB, NEB-TS, DLPNO-Multilevel, CI-OPT
                                                   MM, QMMM, 2- and 3-layer-ONIOM, Crystal-QMMM,
                                                   LR-CPCM, SF, NACMEs, symmetry and pop. for TD-DFT,
                                                   nearIR, NL-DFT gradient (VV10), updates on ESD,
                                                   ML-optimized integration grids, MBIS, APM,
                                                   GOAT, DOCKER, SOLVATOR, interface openCOSMO-RS
   S Lehtola, MJT Oliveira, MAL Marques          : LibXC Library
   Liviu Ungur et al                             : ANISO software


 Your calculation uses the libint2 library for the computation of 2-el integrals
 For citations please refer to: http://libint.valeyev.net

 Your ORCA version has been built with support for libXC version: 6.2.2
 For citations please refer to: https://libxc.gitlab.io

 This ORCA versions uses:
   CBLAS   interface :  Fast vector & matrix operations
   LAPACKE interface :  Fast linear algebra routines
   SCALAPACK package :  Parallel linear algebra routines
   Shared memory     :  Shared parallel matrices
   BLAS/LAPACK       :  OpenBLAS 0.3.27  USE64BITINT DYNAMIC_ARCH NO_AFFINITY SkylakeX SINGLE_THREADED
        Core in use  :  SkylakeX
   Copyright (c) 2011-2014, The OpenBLAS Project


Your calculation utilizes the geometrical counterpoise correction gCP
Please cite in your paper:
H.Kruse, S. Grimme J.Chem.Phys., 136, (2012), 154101 
   

Your calculation utilizes the atom-pairwise dispersion correction
based on EEQ partial charges (D4)


Your calculation utilizes the SMD solvation module
Please cite in your paper:
A.V. Marenich, C.J. Cramer, D.G. Truhlar J. Phys. Chem. B, 113, (2009), 6378 

================================================================================

----- Orbital basis set information -----
Your calculation utilizes the basis: def2-mTZVPP
   Stefan Grimme, Andreas Hansen, Sebastian Ehlert, and Jan-Michael Mewes 
   J. Chem. Phys. 154, 064103 (2021). DOI: 10.1063/5.0040021

----- AuxJ basis set information -----
Your calculation utilizes the auxiliary basis: def2/J
   F. Weigend, Phys. Chem. Chem. Phys. 8, 1057 (2006).

================================================================================
                                        WARNINGS
                       Please study these warnings very carefully!
================================================================================

Using LibXC functional ID 497 : Re-regularized SCAN exchange by Furness et al
[ 1]  J. W. Furness, A. D. Kaplan, J. Ning, J. P. Perdew, and J. Sun.,  J. Phys. Chem. Lett. 11, 8208-8215 (2020)
[ 2]  J. W. Furness, A. D. Kaplan, J. Ning, J. P. Perdew, and J. Sun.,  J. Phys. Chem. Lett. 11, 9248-9248 (2020)
Using LibXC functional ID 498 : Re-regularized SCAN correlation by Furness et al
[ 1]  J. W. Furness, A. D. Kaplan, J. Ning, J. P. Perdew, and J. Sun.,  J. Phys. Chem. Lett. 11, 8208-8215 (2020)
[ 2]  J. W. Furness, A. D. Kaplan, J. Ning, J. P. Perdew, and J. Sun.,  J. Phys. Chem. Lett. 11, 9248-9248 (2020)
Using LibXC functional ID 497 : Re-regularized SCAN exchange by Furness et al
[ 1]  J. W. Furness, A. D. Kaplan, J. Ning, J. P. Perdew, and J. Sun.,  J. Phys. Chem. Lett. 11, 8208-8215 (2020)
[ 2]  J. W. Furness, A. D. Kaplan, J. Ning, J. P. Perdew, and J. Sun.,  J. Phys. Chem. Lett. 11, 9248-9248 (2020)
Using LibXC functional ID 498 : Re-regularized SCAN correlation by Furness et al
[ 1]  J. W. Furness, A. D. Kaplan, J. Ning, J. P. Perdew, and J. Sun.,  J. Phys. Chem. Lett. 11, 8208-8215 (2020)
[ 2]  J. W. Furness, A. D. Kaplan, J. Ning, J. P. Perdew, and J. Sun.,  J. Phys. Chem. Lett. 11, 9248-9248 (2020)

================================================================================
                                       INPUT FILE
================================================================================
NAME = sp_solv.inp
|  1> ! r2scan-3c def2/J RI DEFGRID2 scfconv6 printgap
|  2> %output
|  3>     printlevel normal
|  4> end
|  5> %cpcm
|  6>     smd true
|  7>     smdsolvent "water"
|  8> end
|  9> * xyz 0 1
| 10> C 0.4120652379 1.8945505034 0.1877698679
| 11> C 0.5628126689 0.5090848325 0.783427268
| 12> H 1.1052968836 0.5483412344 1.7306967275
| 13> C -0.7568610805 -0.2020067113 1.0175924599
| 14> Cl -1.6765040862 -0.4199150431 -0.5100324749
| 15> Cl 1.5960426047 -0.5092321443 -0.3051163758
| 16> H -0.1484190121 2.5200901121 0.8771280772
| 17> H 1.3875795566 2.3403394409 0.0185360889
| 18> H -0.1209955875 1.8462751092 -0.7581775114
| 19> H -0.6033198379 -1.1987312114 1.4269167899
| 20> H -1.3879325615 0.3903115465 1.678004376
| 21> *
| 22> 
| 23>                          ****END OF INPUT****
================================================================================

                       ****************************
                       * Single Point Calculation *
                       ****************************

---------------------------------
CARTESIAN COORDINATES (ANGSTROEM)
---------------------------------
  C      0.412065    1.894551    0.187770
  C      0.562813    0.509085    0.783427
  H      1.105297    0.548341    1.730697
  C     -0.756861   -0.202007    1.017592
  Cl    -1.676504   -0.419915   -0.510032
  Cl     1.596043   -0.509232   -0.305116
  H     -0.148419    2.520090    0.877128
  H      1.387580    2.340339    0.018536
  H     -0.120996    1.846275   -0.758178
  H     -0.603320   -1.198731    1.426917
  H     -1.387933    0.390312    1.678004

----------------------------
CARTESIAN COORDINATES (A.U.)
----------------------------
  NO LB      ZA    FRAG     MASS         X           Y           Z
   0 C     6.0000    0    12.011    0.778690    3.580182    0.354834
   1 C     6.0000    0    12.011    1.063562    0.962031    1.480463
   2 H     1.0000    0     1.008    2.088708    1.036215    3.270543
   3 C     6.0000    0    12.011   -1.430260   -0.381737    1.922971
   4 Cl   17.0000    0    35.453   -3.168134   -0.793524   -0.963822
   5 Cl   17.0000    0    35.453    3.016083   -0.962309   -0.576586
   6 H     1.0000    0     1.008   -0.280471    4.762280    1.657532
   7 H     1.0000    0     1.008    2.622145    4.422601    0.035028
   8 H     1.0000    0     1.008   -0.228649    3.488954   -1.432748
   9 H     1.0000    0     1.008   -1.140109   -2.265274    2.696482
  10 H     1.0000    0     1.008   -2.622812    0.737582    3.170969

--------------------------------
INTERNAL COORDINATES (ANGSTROEM)
--------------------------------
 C      0   0   0     0.000000000000     0.00000000     0.00000000
 C      1   0   0     1.515601415772     0.00000000     0.00000000
 H      2   1   0     1.092313882174   110.93903599     0.00000000
 C      2   1   3     1.517242012870   113.73932849   122.45892233
 Cl     4   2   1     1.796347750416   111.77066004    60.11526274
 Cl     2   1   3     1.813687081591   109.51379153   244.63495287
 H      1   2   3     1.086580478971   109.16127614   299.31906041
 H      1   2   3     1.085815838317   110.31614237    59.09472397
 H      1   2   3     1.086876626700   110.50176305   179.51905692
 H      4   2   1     1.088384605463   111.37953724   178.88176434
 H      4   2   1     1.088685460352   110.04846711   301.91518492

---------------------------
INTERNAL COORDINATES (A.U.)
---------------------------
 C      0   0   0     0.000000000000     0.00000000     0.00000000
 C      1   0   0     2.864071603992     0.00000000     0.00000000
 H      2   1   0     2.064174089589   110.93903599     0.00000000
 C      2   1   3     2.867171883203   113.73932849   122.45892233
 Cl     4   2   1     3.394605289571   111.77066004    60.11526274
 Cl     2   1   3     3.427371876838   109.51379153   244.63495287
 H      1   2   3     2.053339527719   109.16127614   299.31906041
 H      1   2   3     2.051894566294   110.31614237    59.09472397
 H      1   2   3     2.053899165822   110.50176305   179.51905692
 H      4   2   1     2.056748832701   111.37953724   178.88176434
 H      4   2   1     2.057317366047   110.04846711   301.91518492

---------------------
BASIS SET INFORMATION
---------------------
There are 3 groups of distinct atoms

 Group   1 Type C   : 11s6p1d contracted to 5s3p1d pattern {62111/411/1}
 Group   2 Type H   : 4s1p contracted to 2s1p pattern {31/1}
 Group   3 Type Cl  : 14s9p2d contracted to 5s4p2d pattern {73211/6111/11}

Atom   0C    basis set group =>   1
Atom   1C    basis set group =>   1
Atom   2H    basis set group =>   2
Atom   3C    basis set group =>   1
Atom   4Cl   basis set group =>   3
Atom   5Cl   basis set group =>   3
Atom   6H    basis set group =>   2
Atom   7H    basis set group =>   2
Atom   8H    basis set group =>   2
Atom   9H    basis set group =>   2
Atom  10H    basis set group =>   2
---------------------------------
AUXILIARY/J BASIS SET INFORMATION
---------------------------------
There are 3 groups of distinct atoms

 Group   1 Type C   : 12s5p4d2f1g contracted to 6s4p3d1f1g pattern {711111/2111/211/2/1}
 Group   2 Type H   : 5s2p1d contracted to 3s1p1d pattern {311/2/1}
 Group   3 Type Cl  : 14s5p5d2f1g contracted to 8s4p3d1f1g pattern {71111111/2111/311/2/1}

Atom   0C    basis set group =>   1
Atom   1C    basis set group =>   1
Atom   2H    basis set group =>   2
Atom   3C    basis set group =>   1
Atom   4Cl   basis set group =>   3
Atom   5Cl   basis set group =>   3
Atom   6H    basis set group =>   2
Atom   7H    basis set group =>   2
Atom   8H    basis set group =>   2
Atom   9H    basis set group =>   2
Atom  10H    basis set group =>   2

Checking for AutoStart:
The File: sp_solv.gbw exists
Trying to determine its content:
     ... Fine, the file contains calculation information
     ... Fine, the calculation information was read
     ... Fine, the file contains a basis set
     ... Fine, the basis set was read
     ... Fine, the file contains a geometry
     ... Fine, the geometry was read
     ... Fine, the file contains a set of orbitals
     ... Fine, the orbitals can be read
     => possible old guess file was deleted
     => GBW file was renamed to GES file
     => GES file is set as startup file
     => Guess is set to MORead
     ... now leaving AutoStart

------------------------------------------------------------------------------
                             ORCA STARTUP CALCULATIONS
                           -- RI-GTO INTEGRALS CHOSEN --
------------------------------------------------------------------------------
------------------------------------------------------------------------------
                   ___                                                        
                  /   \      - P O W E R E D   B Y -                         
                 /     \                                                     
                 |  |  |   _    _      __       _____    __    __             
                 |  |  |  | |  | |    /  \     |  _  \  |  |  /  |          
                  \  \/   | |  | |   /    \    | | | |  |  | /  /          
                 / \  \   | |__| |  /  /\  \   | |_| |  |  |/  /          
                |  |  |   |  __  | /  /__\  \  |    /   |      \           
                |  |  |   | |  | | |   __   |  |    \   |  |\   \          
                \     /   | |  | | |  |  |  |  | |\  \  |  | \   \       
                 \___/    |_|  |_| |__|  |__|  |_| \__\ |__|  \__/        
                                                                              
                      - O R C A' S   B I G   F R I E N D -                    
                                      &                                       
                       - I N T E G R A L  F E E D E R -                       
                                                                              
 v1 FN, 2020, v2 2021, v3 2022-2024                                           
------------------------------------------------------------------------------


----------------------
SHARK INTEGRAL PACKAGE
----------------------

Number of atoms                             ...     11
Number of basis functions                   ...    141
Number of shells                            ...     67
Maximum angular momentum                    ...      2
Integral batch strategy                     ... SHARK/LIBINT Hybrid
RI-J (if used) integral strategy            ... SPLIT-RIJ (Revised 2003 algorithm where possible)
Printlevel                                  ...      1
Contraction scheme used                     ... SEGMENTED contraction
Prescreening option                         ... SCHWARTZ
   Thresh                                   ... 1.000e-10
   Tcut                                     ... 1.000e-11
   Tpresel                                  ... 1.000e-11 
Coulomb Range Separation                    ... NOT USED
Exchange Range Separation                   ... NOT USED
Multipole approximations                    ... NOT USED
Finite Nucleus Model                        ... NOT USED
CABS basis                                  ... NOT available
Auxiliary Coulomb fitting basis             ... AVAILABLE
   # of basis functions in Aux-J            ...    315
   # of shells in Aux-J                     ...    109
   Maximum angular momentum in Aux-J        ...      4
Auxiliary J/K fitting basis                 ... NOT available
Auxiliary Correlation fitting basis         ... NOT available
Auxiliary 'external' fitting basis          ... NOT available

Checking pre-screening integrals            ... done (  0.0 sec) Dimension = 67
Check shell pair data                       ... done (  0.0 sec)
Shell pair information
Shell pair cut-off parameter TPreSel        ...   1.0e-11
Total number of shell pairs                 ...      2278
Shell pairs after pre-screening             ...      2155
Total number of primitive shell pairs       ...      9209
Primitive shell pairs kept                  ...      6333
          la=0 lb=0:    645 shell pairs
          la=1 lb=0:    799 shell pairs
          la=1 lb=1:    266 shell pairs
          la=2 lb=0:    256 shell pairs
          la=2 lb=1:    161 shell pairs
          la=2 lb=2:     28 shell pairs

Calculating one electron integrals          ... done (  0.0 sec)
Calculating RI/J V-Matrix + Cholesky decomp.... done (  0.0 sec)
Calculating Nuclear repulsion               ... done (  0.0 sec) ENN=    287.530025735892 Eh

Diagonalization of the overlap matrix:
Smallest eigenvalue                        ... 4.337e-04
Time for diagonalization                   ...    0.002 sec
Threshold for overlap eigenvalues          ... 1.000e-07
Number of eigenvalues below threshold      ... 0
Time for construction of square roots      ...    0.014 sec
Total time needed                          ...    0.025 sec

-------------------
DFT GRID GENERATION
-------------------

General Integration Accuracy     IntAcc      ... 4.388
Radial Grid Type                 RadialGrid  ... OptM3 with GC (2021)
Angular Grid (max. ang.)         AngularGrid ... 4 (Lebedev-302)
Angular grid pruning method      GridPruning ... 4 (adaptive)
Weight generation scheme         WeightScheme... mBecke (2022)
Basis function cutoff            BFCut       ... 1.0000e-10
Integration weight cutoff        WCut        ... 1.0000e-14
Partially contracted basis set               ... off
Rotationally invariant grid construction     ... off
Angular grids for H and He will be reduced by one unit

Total number of grid points                  ...    52145
Total number of batches                      ...      820
Average number of points per batch           ...       63
Average number of grid points per atom       ...     4740
Initializing property integral containers    ... done (  0.0 sec)

SHARK setup successfully completed in   0.8 seconds

Maximum memory used throughout the entire STARTUP-calculation: 23.8 MB
-------------------------------------------------------------------------------
                                 ORCA GUESS
                   Start orbitals & Density for SCF / CASSCF
-------------------------------------------------------------------------------

------------
SCF SETTINGS
------------
Hamiltonian:
 Density Functional     Method          .... DFT(GTOs)
  Functional kind                       .... Exchange
  Functional name                       .... Re-regularized SCAN exchange by Furness et al
  Functional family                     .... MGGA
  Functional refs                              
    [ 0] J. W. Furness, A. D. Kaplan, J. Ning, J. P. Perdew, and J. Sun.,  J. Phys. Chem. Lett. 11, 8208-8215 (2020), doi: 10.1021/acs.jpclett.0c02405
    [ 1] J. W. Furness, A. D. Kaplan, J. Ning, J. P. Perdew, and J. Sun.,  J. Phys. Chem. Lett. 11, 9248-9248 (2020), doi: 10.1021/acs.jpclett.0c03077
  Functional external parameters        .... 6
    Parameter  0 _c1        =  6.670000e-01 : c1 parameter        
    Parameter  1 _c2        =  8.000000e-01 : c2 parameter        
    Parameter  2 _d         =  1.240000e+00 : d parameter         
    Parameter  3 _k1        =  6.500000e-02 : k1 parameter        
    Parameter  4 _eta       =  1.000000e-03 : eta parameter       
    Parameter  5 _dp2       =  3.610000e-01 : dp2 parameter       
  Functional kind                       .... Correlation
  Functional name                       .... Re-regularized SCAN correlation by Furness et al
  Functional family                     .... MGGA
  Functional refs                              
    [ 0] J. W. Furness, A. D. Kaplan, J. Ning, J. P. Perdew, and J. Sun.,  J. Phys. Chem. Lett. 11, 8208-8215 (2020), doi: 10.1021/acs.jpclett.0c02405
    [ 1] J. W. Furness, A. D. Kaplan, J. Ning, J. P. Perdew, and J. Sun.,  J. Phys. Chem. Lett. 11, 9248-9248 (2020), doi: 10.1021/acs.jpclett.0c03077
  Functional external parameters        .... 1
    Parameter  0 _eta       =  1.000000e-03 : Regularization parameter
 Gradients option       PostSCFGGA      .... off
 RI-approximation to the Coulomb term is turned on
   Number of AuxJ basis functions       .... 315


General Settings:
 Integral files         IntName         .... sp_solv
 Hartree-Fock type      HFTyp           .... RHF
 Total Charge           Charge          ....    0
 Multiplicity           Mult            ....    1
 Number of Electrons    NEL             ....   58
 Basis Dimension        Dim             ....  141
 Nuclear Repulsion      ENuc            ....    287.5300257359 Eh

Convergence Acceleration:
 AO-DIIS                CNVDIIS         .... on
   Start iteration      DIISMaxIt       ....    12
   Startup error        DIISStart       ....  0.200000
   # of expansion vecs  DIISMaxEq       ....     5
   Bias factor          DIISBfac        ....   1.050
   Max. coefficient     DIISMaxC        ....  10.000
 MO-DIIS                CNVKDIIS        .... off
 Trust-Rad. Augm. Hess. CNVTRAH         .... auto
   Auto Start mean grad. ratio tolernc. ....  1.125000
   Auto Start start iteration           ....     1
   Auto Start num. interpolation iter.  ....    10
   Max. Number of Micro iterations      ....    24
   Max. Number of Macro iterations      .... Maxiter - #DIIS iter
   Number of Davidson start vectors     ....     2
   Converg. threshold    (grad. norm)   ....   3.330e-04
   Grad. Scal. Fac. for Micro threshold ....   0.100
   Minimum threshold for Micro iter.    ....   1.000e-02
   NR start threshold (gradient norm)   ....   1.000e-04
   Initial trust radius                 ....   0.400
   Minimum AH scaling param. (alpha)    ....   1.000
   Maximum AH scaling param. (alpha)    .... 1000.000
   Quad. conv. algorithm                .... NR
   White noise on init. David. guess    .... on
   Maximum white noise                  ....   0.010
   Pseudo random numbers                .... off
   Inactive MOs                         .... canonical
   Orbital update algorithm             .... Taylor
   Preconditioner                       .... Diag
   Full preconditioner red. dimension   ....   250
   COSX micro iterations for RIJONX calc.... off
 SOSCF                  CNVSOSCF        .... on
   Start iteration      SOSCFMaxIt      ....   150
   Startup grad/error   SOSCFStart      ....  0.003300
   Hessian update       SOSCFHessUp     .... L-BFGS
 Level Shifting         CNVShift        .... on
   Level shift para.    LevelShift      ....    0.2500
   Turn off err/grad.   ShiftErr        ....    0.0010
 Zerner damping         CNVZerner       .... off
 Static damping         CNVDamp         .... on
   Fraction old density DampFac         ....    0.7000
   Max. Damping (<1)    DampMax         ....    0.9800
   Min. Damping (>=0)   DampMin         ....    0.0000
   Turn off err/grad.   DampErr         ....    0.1000

SCF Procedure:
 Maximum # iterations   MaxIter         ....   125
 SCF integral mode      SCFMode         .... Direct
   Integral package                     .... SHARK and LIBINT hybrid scheme
 Reset frequency        DirectResetFreq ....    20
 Integral Threshold     Thresh          ....  1.000e-10 Eh
 Primitive CutOff       TCut            ....  1.000e-11 Eh

Convergence Tolerance:
 Convergence Check Mode ConvCheckMode   .... Total+1el-Energy
 Convergence forced     ConvForced      .... 0
 Energy Change          TolE            ....  1.000e-06 Eh
 1-El. energy change                    ....  1.000e-03 Eh
 Orbital Gradient       TolG            ....  3.330e-04
 Orbital Rotation angle TolX            ....  3.330e-04
 DIIS Error             TolErr          ....  1.000e-06

---------------------
INITIAL GUESS: MOREAD
---------------------
Guess MOs are being read from file: sp_solv.ges
Input Geometry matches current geometry (good)
Atom 0: N(Shells)= 9 and 6 - projection required
Input basis set needs projection
NBasis(read)= 90
NBasis(calc)= 141
Basis set overlap was calculated
Using GuessMode=FMatrix for the initial guess
C*T matrix was formed
Effective Fockian was calculated
Effective Fockian was diagonalized
Initial density was built
                      ------------------
                      INITIAL GUESS DONE (   0.0 sec)
                      ------------------
             **** ENERGY FILE WAS UPDATED (sp_solv.en.tmp) ****
Finished Guess after   0.3 sec
Maximum memory used throughout the entire GUESS-calculation: 9.9 MB

-------------------------------------------------------------------------------------------
                                      ORCA LEAN-SCF
                              memory conserving SCF solver
-------------------------------------------------------------------------------------------

--------------------
CPCM SOLVATION MODEL
--------------------
CPCM parameters:
  Epsilon                                         ...      78.3550
  Refrac                                          ...       1.3328
  Rsolv                                           ...       1.3000
  Surface type                                    ... GAUSSIAN VDW
  Discretization scheme                           ... Constant charge density
    Threshold for H atoms                         ...       5.0000 (charges/Ang^2)
    Threshold for non-H atoms                     ...       5.0000 (charges/Ang^2)
  Epsilon function type                           ...         CPCM
Solvent:                                          ... WATER
SMD-CDS solvent descriptors:
  Soln                                            ...       1.3328
  Soln25                                          ...       1.3323
  Sola                                            ...       0.0000
  Solb                                            ...       0.0000
  Solg                                            ...       0.0000
  Solc                                            ...       0.0000
  Solh                                            ...       0.0000
Radii:
  Scheme                                          ... Element-dependent radii
  Radius for C  used is    3.4960 Bohr (=   1.8500 Ang.)
  Radius for H  used is    2.2677 Bohr (=   1.2000 Ang.)
  Radius for Cl used is    4.4975 Bohr (=   2.3800 Ang.)
Calculating surface                               ...        done! (  0.0s)
Cavity surface points                             ...         1002
Cavity Volume                                     ...     938.0329
Cavity Surface-area                               ...     528.9967
Calculating surface distance matrix               ...        done! (  0.0s)
Performing Cholesky decomposition & store         ...        done! (  0.1s)
Overall time for CPCM initialization              ...                 0.1s

----------------------------------------D-I-I-S--------------------------------------------
Iteration    Energy (Eh)           Delta-E    RMSDP     MaxDP     DIISErr   Damp  Time(sec)
-------------------------------------------------------------------------------------------
               ***  Starting incremental Fock matrix formation  ***
    1    -1038.1524964307252503     0.00e+00  3.60e-03  1.08e-01  5.38e-01  0.700   1.5
    2    -1038.1862845927362287    -3.38e-02  3.01e-03  7.20e-02  3.77e-01  0.700   1.6
    3    -1038.2103365902896712    -2.41e-02  2.24e-03  5.52e-02  2.64e-01  0.700   1.6
                               ***Turning on AO-DIIS***
    4    -1038.2272631666216967    -1.69e-02  1.66e-03  4.20e-02  1.85e-01  0.700   1.6
    5    -1038.2391513825511993    -1.19e-02  1.20e-03  3.06e-02  1.29e-01  0.700   1.3
    6    -1038.2475018550112509    -8.35e-03  8.51e-04  2.19e-02  9.05e-02  0.700   1.3
    7    -1038.2533620608373894    -5.86e-03  2.00e-03  5.16e-02  6.34e-02  0.000   1.2
                              *** Initializing SOSCF ***
---------------------------------------S-O-S-C-F--------------------------------------
Iteration    Energy (Eh)           Delta-E    RMSDP     MaxDP     MaxGrad    Time(sec)
--------------------------------------------------------------------------------------
    8    -1038.2670761834765472    -1.37e-02  2.81e-05  3.87e-04  4.36e-04     1.7
               *** Restarting incremental Fock matrix formation ***
    9    -1038.2670765570717322    -3.74e-07  3.25e-05  5.21e-04  1.91e-04     1.4
   10    -1038.2670746365224659     1.92e-06  2.03e-05  2.98e-04  3.38e-04     1.1
   11    -1038.2670775125670843    -2.88e-06  2.28e-06  4.39e-05  9.02e-06     1.2
                  *** Gradient check signals convergence ***

               *****************************************************
               *                     SUCCESS                       *
               *           SCF CONVERGED AFTER  11 CYCLES          *
               *****************************************************


SMD CDS free energy correction energy :                 2.34871     Kcal/mol
Total Energy after SMD CDS correction =             -1038.263334608 Eh
             **** ENERGY FILE WAS UPDATED (sp_solv.en.tmp) ****

----------------
TOTAL SCF ENERGY
----------------

Total Energy       :      -1038.26333460759588 Eh          -28252.58167 eV

Components:
Nuclear Repulsion  :        287.53002573589157 Eh            7824.08977 eV
Electronic Energy  :      -1325.78467692313734 Eh          -36076.43515 eV
One Electron Energy:      -2000.79143011170868 Eh          -54444.30271 eV
Two Electron Energy:        675.00675318857134 Eh           18367.86756 eV
CPCM Dielectric    :         -0.01242632532135 Eh              -0.33814 eV
SMD CDS (Gcds)     :          0.00374290497112 Eh               0.10185 eV

Virial components:
Potential Energy   :      -2073.84665038153344 Eh          -56432.23632 eV
Kinetic Energy     :       1035.58331577393733 Eh           28179.65465 eV
Virial Ratio       :          2.00258793164474

DFT components:
N(Alpha)           :       28.999969816861 electrons
N(Beta)            :       28.999969816861 electrons
N(Total)           :       57.999939633721 electrons
E(X)               :      -72.838104075254 Eh       
E(C)               :       -2.068403088493 Eh       
E(XC)              :      -74.906507163747 Eh       

CPCM Solvation Model Properties:
Surface-charge          :         -0.01788073209022
Corrected charge        :          0.00000000000000
Outlying charge corr.   :          0.00002502591586 Eh               0.00068 eV
Free-energy (cav+disp)  :          0.00374290497112 Eh               0.10185 eV

---------------
SCF CONVERGENCE
---------------

  Last Energy change         ...    2.8760e-06  Tolerance :   1.0000e-06
  Last MAX-Density change    ...    4.3864e-05  Tolerance :   1.0000e-05
  Last RMS-Density change    ...    2.2841e-06  Tolerance :   1.0000e-06
  Last DIIS Error            ...    4.3598e-04  Tolerance :   1.0000e-06
  Last Orbital Gradient      ...    9.0175e-06  Tolerance :   3.3300e-04
  Last Orbital Rotation      ...    1.3748e-05  Tolerance :   3.3300e-04


----------------
ORBITAL ENERGIES
----------------

  NO   OCC          E(Eh)            E(eV) 
   0   2.0000    -101.205367     -2753.9380 
   1   2.0000    -101.201491     -2753.8326 
   2   2.0000     -10.103846      -274.9396 
   3   2.0000     -10.092857      -274.6406 
   4   2.0000     -10.023970      -272.7661 
   5   2.0000      -9.361550      -254.7407 
   6   2.0000      -9.357811      -254.6390 
   7   2.0000      -7.107579      -193.4071 
   8   2.0000      -7.103693      -193.3013 
   9   2.0000      -7.097760      -193.1399 
  10   2.0000      -7.097562      -193.1345 
  11   2.0000      -7.094014      -193.0379 
  12   2.0000      -7.094002      -193.0376 
  13   2.0000      -0.847614       -23.0647 
  14   2.0000      -0.795255       -21.6400 
  15   2.0000      -0.712101       -19.3773 
  16   2.0000      -0.651282       -17.7223 
  17   2.0000      -0.546250       -14.8642 
  18   2.0000      -0.454165       -12.3585 
  19   2.0000      -0.442194       -12.0327 
  20   2.0000      -0.412966       -11.2374 
  21   2.0000      -0.380217       -10.3462 
  22   2.0000      -0.356526        -9.7016 
  23   2.0000      -0.342690        -9.3251 
  24   2.0000      -0.333983        -9.0881 
  25   2.0000      -0.278983        -7.5915 
  26   2.0000      -0.274507        -7.4697 
  27   2.0000      -0.267587        -7.2814 
  28   2.0000      -0.264999        -7.2110 
  29   0.0000      -0.010334        -0.2812 
  30   0.0000       0.022040         0.5997 
  31   0.0000       0.096251         2.6191 
  32   0.0000       0.131387         3.5752 
  33   0.0000       0.140587         3.8256 
  34   0.0000       0.149185         4.0595 
  35   0.0000       0.162565         4.4236 
  36   0.0000       0.173034         4.7085 
  37   0.0000       0.190233         5.1765 
  38   0.0000       0.194784         5.3004 
  39   0.0000       0.211336         5.7507 
*Only the first 10 virtual orbitals were printed.

                    ********************************
                    * MULLIKEN POPULATION ANALYSIS *
                    ********************************

-----------------------
MULLIKEN ATOMIC CHARGES
-----------------------
   0 C :   -0.524911
   1 C :    0.056551
   2 H :    0.211126
   3 C :   -0.186353
   4 Cl:   -0.232830
   5 Cl:   -0.251114
   6 H :    0.175125
   7 H :    0.175308
   8 H :    0.175341
   9 H :    0.202455
  10 H :    0.199302
Sum of atomic charges:   -0.0000000

--------------------------------
MULLIKEN REDUCED ORBITAL CHARGES
--------------------------------
  0 C s       :     3.359766  s :     3.359766
      pz      :     1.072056  p :     3.139111
      px      :     1.120678
      py      :     0.946377
      dz2     :     0.004462  d :     0.026035
      dxz     :     0.005104
      dyz     :     0.005643
      dx2y2   :     0.005525
      dxy     :     0.005301

  1 C s       :     3.109123  s :     3.109123
      pz      :     0.990065  p :     2.784228
      px      :     0.914716
      py      :     0.879447
      dz2     :     0.008930  d :     0.050097
      dxz     :     0.009722
      dyz     :     0.008944
      dx2y2   :     0.010597
      dxy     :     0.011904

  2 H s       :     0.771037  s :     0.771037
      pz      :     0.009732  p :     0.017838
      px      :     0.005134
      py      :     0.002971

  3 C s       :     3.252271  s :     3.252271
      pz      :     0.824785  p :     2.893992
      px      :     0.933882
      py      :     1.135325
      dz2     :     0.007157  d :     0.040090
      dxz     :     0.010263
      dyz     :     0.007738
      dx2y2   :     0.007462
      dxy     :     0.007469

  4 Cls       :     5.951247  s :     5.951247
      pz      :     3.480579  p :    11.234468
      px      :     3.793056
      py      :     3.960833
      dz2     :     0.013461  d :     0.047114
      dxz     :     0.015777
      dyz     :     0.009605
      dx2y2   :     0.004183
      dxy     :     0.004088

  5 Cls       :     5.958604  s :     5.958604
      pz      :     3.726518  p :    11.249014
      px      :     3.758231
      py      :     3.764265
      dz2     :     0.008014  d :     0.043495
      dxz     :     0.010328
      dyz     :     0.009006
      dx2y2   :     0.007429
      dxy     :     0.008717

  6 H s       :     0.806469  s :     0.806469
      pz      :     0.006495  p :     0.018406
      px      :     0.005735
      py      :     0.006176

  7 H s       :     0.806290  s :     0.806290
      pz      :     0.003870  p :     0.018402
      px      :     0.009742
      py      :     0.004790

  8 H s       :     0.806066  s :     0.806066
      pz      :     0.009536  p :     0.018593
      px      :     0.005595
      py      :     0.003463

  9 H s       :     0.779442  s :     0.779442
      pz      :     0.004178  p :     0.018103
      px      :     0.003228
      py      :     0.010697

 10 H s       :     0.782505  s :     0.782505
      pz      :     0.006323  p :     0.018193
      px      :     0.006068
      py      :     0.005802


------------------------
MULLIKEN OVERLAP CHARGES
------------------------
B(  0-C ,  1-C ) :   0.5164 B(  0-C ,  2-H ) :  -0.0539 B(  0-C ,  3-C ) :  -0.1485 
B(  0-C ,  5-Cl) :  -0.0938 B(  0-C ,  6-H ) :   0.7942 B(  0-C ,  7-H ) :   0.8017 
B(  0-C ,  8-H ) :   0.8459 B(  1-C ,  2-H ) :   0.8385 B(  1-C ,  3-C ) :   0.5936 
B(  1-C ,  4-Cl) :  -0.1066 B(  1-C ,  5-Cl) :   0.3884 B(  1-C ,  6-H ) :  -0.0586 
B(  1-C ,  7-H ) :  -0.0646 B(  1-C ,  8-H ) :  -0.0761 B(  1-C ,  9-H ) :  -0.0778 
B(  2-H ,  3-C ) :  -0.0759 B(  2-H ,  5-Cl) :  -0.0869 B(  3-C ,  4-Cl) :   0.4331 
B(  3-C ,  5-Cl) :  -0.0798 B(  3-C ,  9-H ) :   0.8363 B(  3-C , 10-H ) :   0.8224 
B(  4-Cl,  9-H ) :  -0.0787 B(  4-Cl, 10-H ) :  -0.0784 


                     *******************************
                     * LOEWDIN POPULATION ANALYSIS *
                     *******************************

----------------------
LOEWDIN ATOMIC CHARGES
----------------------
   0 C :   -0.432306
   1 C :   -0.268220
   2 H :    0.184455
   3 C :   -0.324194
   4 Cl:   -0.014818
   5 Cl:   -0.007672
   6 H :    0.172292
   7 H :    0.166242
   8 H :    0.164852
   9 H :    0.176994
  10 H :    0.182376

-------------------------------
LOEWDIN REDUCED ORBITAL CHARGES
-------------------------------
  0 C s       :     2.978119  s :     2.978119
      pz      :     1.154323  p :     3.392260
      px      :     1.170268
      py      :     1.067669
      dz2     :     0.010738  d :     0.061928
      dxz     :     0.012460
      dyz     :     0.013199
      dx2y2   :     0.013329
      dxy     :     0.012202

  1 C s       :     2.967116  s :     2.967116
      pz      :     1.078386  p :     3.196463
      px      :     1.059729
      py      :     1.058347
      dz2     :     0.019054  d :     0.104641
      dxz     :     0.020899
      dyz     :     0.018362
      dx2y2   :     0.021960
      dxy     :     0.024366

  2 H s       :     0.769773  s :     0.769773
      pz      :     0.025265  p :     0.045772
      px      :     0.012920
      py      :     0.007587

  3 C s       :     3.000600  s :     3.000600
      pz      :     0.994566  p :     3.234981
      px      :     1.074262
      py      :     1.166153
      dz2     :     0.015731  d :     0.088613
      dxz     :     0.022694
      dyz     :     0.017321
      dx2y2   :     0.016253
      dxy     :     0.016614

  4 Cls       :     5.695370  s :     5.695370
      pz      :     3.503916  p :    11.216085
      px      :     3.774038
      py      :     3.938130
      dz2     :     0.030212  d :     0.103364
      dxz     :     0.036682
      dyz     :     0.020235
      dx2y2   :     0.008420
      dxy     :     0.007815

  5 Cls       :     5.692269  s :     5.692269
      pz      :     3.729475  p :    11.215899
      px      :     3.741262
      py      :     3.745162
      dz2     :     0.018015  d :     0.099504
      dxz     :     0.024746
      dyz     :     0.021643
      dx2y2   :     0.014551
      dxy     :     0.020548

  6 H s       :     0.783080  s :     0.783080
      pz      :     0.016082  p :     0.044628
      px      :     0.013735
      py      :     0.014811

  7 H s       :     0.789228  s :     0.789228
      pz      :     0.008793  p :     0.044530
      px      :     0.024633
      py      :     0.011105

  8 H s       :     0.789757  s :     0.789757
      pz      :     0.024094  p :     0.045390
      px      :     0.013551
      py      :     0.007745

  9 H s       :     0.777244  s :     0.777244
      pz      :     0.010116  p :     0.045762
      px      :     0.007825
      py      :     0.027822

 10 H s       :     0.771706  s :     0.771706
      pz      :     0.015837  p :     0.045917
      px      :     0.015229
      py      :     0.014852


---------------------------------
LOEWDIN BOND ORDERS (THRESH 0.050000)
---------------------------------
B(  0-C ,  1-C ) :   1.1342 B(  0-C ,  3-C ) :   0.0704 B(  0-C ,  5-Cl) :   0.1185 
B(  0-C ,  6-H ) :   0.9066 B(  0-C ,  7-H ) :   0.9203 B(  0-C ,  8-H ) :   0.9187 
B(  1-C ,  2-H ) :   0.8494 B(  1-C ,  3-C ) :   1.1105 B(  1-C ,  4-Cl) :   0.1126 
B(  1-C ,  5-Cl) :   1.2956 B(  3-C ,  4-Cl) :   1.3408 B(  3-C ,  5-Cl) :   0.1180 
B(  3-C ,  9-H ) :   0.8877 B(  3-C , 10-H ) :   0.8765 

------------------------------------------
LOEWDIN REDUCED ORBITAL POPULATIONS PER MO
-------------------------------------------
THRESHOLD FOR PRINTING IS 0.1%%
                      0         1         2         3         4         5   
                 -101.20537 -101.20149 -10.10385 -10.09286 -10.02397  -9.36155
                   2.00000   2.00000   2.00000   2.00000   2.00000   2.00000
                  --------  --------  --------  --------  --------  --------
 0 C  s               0.0       0.0       0.0       0.0      99.7       0.0
 1 C  s               0.0       0.0      99.7       0.0       0.0       0.0
 3 C  s               0.0       0.0       0.0      99.7       0.0       0.0
 4 Cl s             100.0       0.0       0.0       0.0       0.0      99.8
 5 Cl s               0.0     100.0       0.0       0.0       0.0       0.0

                      6         7         8         9        10        11   
                  -9.35781  -7.10758  -7.10369  -7.09776  -7.09756  -7.09401
                   2.00000   2.00000   2.00000   2.00000   2.00000   2.00000
                  --------  --------  --------  --------  --------  --------
 4 Cl pz              0.0      72.4       0.0      23.2       4.4       0.0
 4 Cl px              0.0      26.1       0.0      44.0      29.9       0.0
 4 Cl py              0.0       1.5       0.0      32.8      65.7       0.0
 5 Cl s              99.8       0.0       0.0       0.0       0.0       0.0
 5 Cl pz              0.0       0.0      36.9       0.0       0.0      55.2
 5 Cl px              0.0       0.0      32.3       0.0       0.0       2.5
 5 Cl py              0.0       0.0      30.8       0.0       0.0      42.3

                     12        13        14        15        16        17   
                  -7.09400  -0.84761  -0.79526  -0.71210  -0.65128  -0.54625
                   2.00000   2.00000   2.00000   2.00000   2.00000   2.00000
                  --------  --------  --------  --------  --------  --------
 0 C  s               0.0       4.5       1.5      18.8      17.2       5.2
 0 C  pz              0.0       0.2       0.0       0.5       0.4       1.9
 0 C  px              0.0       0.0       0.4       0.1       0.1       0.6
 0 C  py              0.0       3.0       0.5       0.5       0.5       5.3
 0 C  dyz             0.0       0.0       0.0       0.0       0.0       0.1
 1 C  s               0.0      19.9       4.7       8.5       0.9      12.7
 1 C  pz              0.0       1.3       1.6       1.2       3.9       3.1
 1 C  px              0.0       0.2       5.8       3.6       2.9       3.2
 1 C  py              0.0       1.4       0.1       7.8       9.0       0.1
 1 C  dyz             0.0       0.0       0.0       0.2       0.0       0.0
 1 C  dx2y2           0.0       0.0       0.0       0.0       0.2       0.0
 1 C  dxy             0.0       0.0       0.1       0.1       0.1       0.0
 2 H  s               0.0       2.1       0.6       1.7       0.4       9.2
 2 H  pz              0.0       0.1       0.1       0.1       0.0       0.5
 2 H  px              0.0       0.1       0.0       0.1       0.0       0.1
 3 C  s               0.0      17.3       5.1       2.5      16.8       6.3
 3 C  pz              0.0       3.0       3.0       1.3       3.9       1.5
 3 C  px              0.0       0.4       6.2       1.9       1.3       5.8
 3 C  py              0.0       0.1       0.4       1.8       0.1       1.0
 3 C  dz2             0.0       0.0       0.1       0.1       0.1       0.0
 3 C  dxz             0.0       0.0       0.2       0.1       0.1       0.0
 3 C  dx2y2           0.0       0.0       0.0       0.0       0.0       0.1
 3 C  dxy             0.0       0.0       0.0       0.0       0.0       0.1
 4 Cl s               0.0      17.9      37.8       7.9      12.6       4.6
 4 Cl pz              0.0       1.1       0.6       0.3       2.7       4.7
 4 Cl px              0.0       0.6       0.1       0.1       0.8       0.7
 4 Cl dz2             0.0       0.1       0.1       0.0       0.2       0.3
 4 Cl dxz             0.0       0.2       0.1       0.0       0.4       0.2
 5 Cl s               0.0      18.4      27.9      27.2       0.5       6.0
 5 Cl pz              7.9       0.6       0.2       0.5       0.3       4.0
 5 Cl px             65.2       0.8       0.1       0.4       0.1       1.6
 5 Cl py             26.8       0.5       0.2       0.6       0.1       2.2
 5 Cl dxz             0.0       0.2       0.1       0.1       0.1       0.2
 5 Cl dyz             0.0       0.2       0.1       0.1       0.0       0.4
 5 Cl dxy             0.0       0.1       0.1       0.1       0.0       0.2
 6 H  s               0.0       0.4       0.2       3.5       3.9       2.8
 6 H  pz              0.0       0.0       0.0       0.1       0.1       0.1
 6 H  py              0.0       0.0       0.0       0.1       0.1       0.0
 7 H  s               0.0       0.4       0.2       3.1       4.6       2.2
 7 H  px              0.0       0.0       0.0       0.2       0.3       0.2
 8 H  s               0.0       0.5       0.1       3.0       4.4       3.2
 8 H  pz              0.0       0.0       0.0       0.2       0.3       0.2
 9 H  s               0.0       1.8       0.6       0.3       5.2       3.6
 9 H  py              0.0       0.1       0.0       0.0       0.4       0.2
10 H  s               0.0       1.8       0.7       0.6       4.4       4.8
10 H  pz              0.0       0.1       0.0       0.0       0.1       0.1
10 H  px              0.0       0.1       0.0       0.0       0.2       0.0
10 H  py              0.0       0.0       0.0       0.0       0.1       0.2

                     18        19        20        21        22        23   
                  -0.45417  -0.44219  -0.41297  -0.38022  -0.35653  -0.34269
                   2.00000   2.00000   2.00000   2.00000   2.00000   2.00000
                  --------  --------  --------  --------  --------  --------
 0 C  s               0.2       0.5       0.3       0.0       0.2       0.1
 0 C  pz              4.9       3.7       0.4      19.8       3.1       2.1
 0 C  px              3.7       4.7      11.1       0.0       1.9      32.4
 0 C  py              4.7       2.1       7.5       0.8      16.0       2.4
 0 C  dxz             0.0       0.0       0.0       0.1       0.0       0.0
 0 C  dyz             0.0       0.0       0.1       0.0       0.1       0.1
 0 C  dx2y2           0.1       0.1       0.0       0.0       0.2       0.1
 0 C  dxy             0.0       0.0       0.0       0.0       0.0       0.5
 1 C  s               0.4       0.1       0.1       0.0       0.3       0.0
 1 C  pz             18.7       1.0       5.9       0.8       2.1       2.0
 1 C  px             10.0       4.9       7.9       0.1       3.5       3.8
 1 C  py              1.4       4.6       5.0       2.0      14.7       1.1
 1 C  dxz             0.0       0.0       0.0       0.2       0.0       0.0
 1 C  dyz             0.0       0.0       0.0       0.0       0.2       0.0
 1 C  dx2y2           0.0       0.1       0.0       0.0       0.2       0.1
 1 C  dxy             0.0       0.0       0.0       0.0       0.1       0.6
 2 H  s               8.3       0.0       0.1       0.4       1.6       0.0
 2 H  pz              0.2       0.0       0.0       0.0       0.0       0.0
 2 H  py              0.0       0.0       0.0       0.0       0.2       0.0
 3 C  s               0.3       0.1       0.1       0.3       0.1       0.5
 3 C  pz             12.5       0.4       0.2      18.1       1.8       1.2
 3 C  px              3.6       2.4      19.4       0.4       1.7       3.9
 3 C  py              1.6      33.5       0.6       1.4       6.1       5.2
 3 C  dxz             0.0       0.0       0.0       0.3       0.0       0.0
 3 C  dx2y2           0.0       0.0       0.0       0.0       0.3       0.1
 4 Cl s               1.3       0.1       1.0       1.5       0.2       0.0
 4 Cl pz              0.3       0.2      12.1      18.7       5.1       1.0
 4 Cl px              6.1       1.1       0.1      11.6       0.1       2.7
 4 Cl py              1.4       4.3       0.7       0.3       7.8       1.6
 4 Cl dz2             0.1       0.0       0.4       0.0       0.0       0.0
 4 Cl dxz             0.2       0.1       0.0       0.3       0.0       0.0
 4 Cl dyz             0.0       0.4       0.1       0.0       0.2       0.1
 4 Cl dx2y2           0.1       0.0       0.0       0.1       0.0       0.0
 4 Cl dxy             0.1       0.1       0.0       0.0       0.0       0.0
 5 Cl s               0.8       2.6       0.6       0.2       0.3       0.1
 5 Cl pz              0.1       4.1       0.5       0.3      18.8       4.3
 5 Cl px              6.3       4.1       0.1       0.8       0.9       0.5
 5 Cl py              0.6       1.7      11.5       2.5       0.1       3.2
 5 Cl dz2             0.2       0.0       0.1       0.0       0.3       0.0
 5 Cl dxz             0.1       0.2       0.0       0.0       0.1       0.0
 5 Cl dyz             0.0       0.0       0.2       0.0       0.0       0.0
 5 Cl dx2y2           0.2       0.0       0.3       0.0       0.0       0.0
 5 Cl dxy             0.2       0.0       0.1       0.0       0.0       0.0
 6 H  s               1.4       0.3       6.6       4.5       1.7       5.4
 6 H  pz              0.0       0.0       0.2       0.0       0.1       0.1
 6 H  px              0.1       0.0       0.0       0.1       0.0       0.0
 6 H  py              0.0       0.1       0.0       0.1       0.0       0.2
 7 H  s               2.2       3.8       0.8       0.1       0.3      19.9
 7 H  pz              0.0       0.0       0.0       0.1       0.0       0.0
 7 H  px              0.1       0.1       0.0       0.0       0.0       0.2
 7 H  py              0.0       0.0       0.1       0.0       0.1       0.1
 8 H  s               1.9       0.5       0.9       7.0       2.2       1.4
 8 H  pz              0.1       0.0       0.1       0.1       0.0       0.2
 8 H  px              0.0       0.1       0.0       0.1       0.0       0.1
 8 H  py              0.0       0.0       0.1       0.0       0.2       0.0
 9 H  s               2.1      10.6       0.6       0.4       5.6       2.1
 9 H  pz              0.0       0.2       0.0       0.1       0.0       0.0
 9 H  px              0.0       0.0       0.1       0.0       0.0       0.1
 9 H  py              0.1       0.2       0.0       0.1       0.1       0.0
10 H  s               2.7       6.2       3.5       5.5       0.7       0.0
10 H  pz              0.0       0.2       0.1       0.0       0.1       0.0
10 H  px              0.0       0.1       0.0       0.1       0.0       0.0
10 H  py              0.1       0.0       0.1       0.1       0.0       0.0

                     24        25        26        27        28        29   
                  -0.33398  -0.27898  -0.27451  -0.26759  -0.26500  -0.01033
                   2.00000   2.00000   2.00000   2.00000   2.00000   0.00000
                  --------  --------  --------  --------  --------  --------
 0 C  s               0.0       0.5       0.0       0.2       0.1       0.0
 0 C  pz             18.5       0.5       0.8       0.8       0.0       0.1
 0 C  px              2.2       0.6       0.2       0.6       0.0       0.1
 0 C  py              4.8       1.5       0.1       3.0       0.7       0.9
 0 C  dz2             0.2       0.0       0.0       0.0       0.0       0.1
 0 C  dxz             0.4       0.0       0.0       0.0       0.0       0.0
 0 C  dyz             0.1       0.1       0.0       0.0       0.0       0.1
 0 C  dx2y2           0.0       0.0       0.0       0.0       0.0       0.1
 0 C  dxy             0.0       0.1       0.0       0.0       0.0       0.2
 1 C  s               0.2       0.6       0.1       0.1       0.1       4.1
 1 C  pz              8.8       0.3       1.5       0.4       1.1       7.1
 1 C  px              0.8       2.0       2.5       1.6       0.1       6.9
 1 C  py              1.7       0.2       0.1       3.3       0.3       3.9
 1 C  dz2             0.1       0.1       0.3       0.0       0.2       0.0
 1 C  dxz             0.5       0.0       0.1       0.1       0.0       0.9
 1 C  dyz             0.2       0.0       0.1       0.0       0.0       0.0
 1 C  dx2y2           0.0       0.1       0.0       0.3       0.0       0.1
 1 C  dxy             0.0       0.0       0.0       0.0       0.1       0.3
 2 H  s               8.2       0.6       3.4       0.0       1.8       0.6
 2 H  pz              0.1       0.0       0.0       0.0       0.0       0.3
 2 H  px              0.0       0.0       0.0       0.0       0.0       0.5
 3 C  s               0.1       0.1       0.5       0.3       0.1       3.4
 3 C  pz              1.2       0.3       0.5       0.6       0.1       9.9
 3 C  px              0.2       0.2       4.5       1.5       0.2       4.5
 3 C  py              1.4       0.6       0.8       2.3       1.4       0.4
 3 C  dz2             0.0       0.2       0.1       0.0       0.0       0.1
 3 C  dxz             0.3       0.0       0.0       0.0       0.1       1.0
 3 C  dyz             0.0       0.0       0.4       0.1       0.1       0.0
 3 C  dx2y2           0.0       0.1       0.0       0.1       0.0       0.1
 3 C  dxy             0.0       0.1       0.0       0.2       0.0       0.1
 4 Cl s               0.1       0.0       0.0       0.0       0.0       2.5
 4 Cl pz              3.4      13.6       0.4       4.2       6.8      10.3
 4 Cl px              2.1      30.3      12.4       2.3      17.5       3.0
 4 Cl py              0.2      10.9      18.4      33.5      17.8       0.2
 4 Cl dz2             0.0       0.0       0.0       0.0       0.0       2.8
 4 Cl dxz             0.0       0.0       0.2       0.0       0.0       3.5
 4 Cl dyz             0.0       0.0       0.0       0.0       0.0       0.4
 4 Cl dx2y2           0.0       0.0       0.0       0.0       0.0       0.4
 5 Cl s               0.2       0.0       0.0       0.0       0.0       2.6
 5 Cl pz              1.6       5.1       8.3       5.6      32.3       6.1
 5 Cl px             15.4       2.1      33.6       6.1      14.0       4.7
 5 Cl py              2.7      26.6       3.7      29.2       1.8       5.2
 5 Cl dxz             0.1       0.1       0.1       0.0       0.0       2.7
 5 Cl dyz             0.0       0.0       0.0       0.0       0.0       3.8
 5 Cl dxy             0.0       0.0       0.0       0.0       0.0       2.3
 6 H  s               6.5       1.3       0.0       0.4       0.2       0.5
 6 H  px              0.2       0.0       0.0       0.0       0.0       0.0
 6 H  py              0.0       0.0       0.0       0.0       0.0       0.1
 7 H  s               1.4       0.3       0.2       0.0       0.0       0.2
 7 H  pz              0.2       0.0       0.0       0.0       0.0       0.0
 8 H  s              13.3       0.1       0.8       0.1       0.0       0.1
 8 H  pz              0.1       0.0       0.0       0.0       0.0       0.0
 9 H  s               0.1       0.8       2.0       2.4       0.6       0.3
 9 H  pz              0.0       0.0       0.0       0.0       0.0       0.3
 9 H  px              0.0       0.0       0.0       0.0       0.0       0.2
10 H  s               1.9       0.1       3.5       0.0       1.9       0.6
10 H  pz              0.0       0.0       0.0       0.0       0.0       0.3
10 H  px              0.0       0.0       0.0       0.0       0.0       0.4

                     30        31        32        33        34        35   
                   0.02204   0.09625   0.13139   0.14059   0.14918   0.16257
                   0.00000   0.00000   0.00000   0.00000   0.00000   0.00000
                  --------  --------  --------  --------  --------  --------
 0 C  s               0.5      12.8       9.6      10.7       4.4       0.5
 0 C  pz              0.0       0.6       3.8       0.6       2.3       3.0
 0 C  px              0.2       0.4       0.3       1.9       7.9       4.1
 0 C  py              0.1       3.0      17.2       6.9       7.4       4.1
 0 C  dz2             0.1       0.1       0.0       0.0       0.1       1.6
 0 C  dxz             0.0       0.1       0.1       0.3       0.0       0.3
 0 C  dyz             0.2       0.3       0.9       0.1       0.4       0.3
 0 C  dx2y2           0.1       0.4       0.6       0.0       0.7       0.2
 0 C  dxy             0.2       0.1       0.2       0.6       0.1       0.0
 1 C  s               4.1       9.0      11.3       0.6       2.7       0.0
 1 C  pz              5.2       3.9       1.2       0.7       9.4       3.3
 1 C  px              2.8       3.6       5.5       9.4       2.5       1.3
 1 C  py              6.7       1.0       3.1       7.2       2.1       3.1
 1 C  dz2             0.0       0.0       0.2       0.8       1.3       0.1
 1 C  dxz             0.0       0.6       0.0       1.0       0.2       0.1
 1 C  dyz             0.6       0.0       1.0       0.0       0.1       0.0
 1 C  dx2y2           0.2       0.0       0.1       0.4       0.1       1.5
 1 C  dxy             0.0       0.0       0.2       1.0       0.1       0.2
 2 H  s               1.1       3.4       0.1       4.8       7.6       1.5
 2 H  pz              0.2       1.0       0.3       1.5       2.7       0.2
 2 H  px              0.0       0.9       0.6       0.0       0.2       0.4
 2 H  py              0.4       0.0       0.3       0.6       0.3       0.0
 3 C  s               4.7      16.9       3.4       4.4       3.0       0.0
 3 C  pz             15.5       3.1       0.1       7.7       7.5       0.8
 3 C  px              2.8       1.5      13.1      10.5       2.0       9.1
 3 C  py              0.0       0.5       4.6       4.2       2.7      12.4
 3 C  dz2             0.3       0.0       0.4       0.1       0.7       0.0
 3 C  dxz             0.0       0.3       0.2       0.3       0.0       0.5
 3 C  dyz             0.0       0.0       0.3       0.2       0.0       1.7
 3 C  dx2y2           0.6       0.3       0.0       0.4       0.1       1.1
 3 C  dxy             0.0       0.7       1.4       0.5       0.2       0.0
 4 Cl s               3.5       1.6       0.8       0.2       1.8       1.0
 4 Cl pz              9.6       0.1       0.1       1.0       0.0       0.7
 4 Cl px              4.7       0.1       0.4       0.2       1.4       0.3
 4 Cl py              0.3       0.2       0.1       0.4       0.2       0.3
 4 Cl dz2             2.6       3.2       0.1       1.8       0.3       0.1
 4 Cl dxz             6.3       0.4       2.0       0.8       0.4       0.5
 4 Cl dyz             0.2       0.2       1.4       0.2       0.3       3.4
 4 Cl dx2y2           0.2       0.2       0.5       0.5       3.3       0.8
 4 Cl dxy             0.0       0.0       0.1       0.5       1.1       0.7
 5 Cl s               1.9       2.2       0.6       0.0       0.1       0.1
 5 Cl pz              3.8       0.2       0.5       0.0       0.2       0.8
 5 Cl px              4.3       0.2       0.1       0.1       0.1       1.1
 5 Cl py              3.2       0.2       0.0       0.4       0.8       0.4
 5 Cl dz2             0.0       0.1       0.5       0.3       2.0       0.0
 5 Cl dxz             2.8       0.1       0.0       0.0       1.0       0.2
 5 Cl dyz             2.1       0.5       0.2       2.4       0.4       0.7
 5 Cl dx2y2           0.0       0.0       0.4       2.6       0.0       1.4
 5 Cl dxy             3.6       0.6       0.9       0.8       3.2       0.1
 6 H  s               0.9       2.6       1.0       1.0       3.7       0.5
 6 H  pz              0.0       0.5       0.0       0.2       0.9       1.1
 6 H  px              0.0       0.6       0.0       0.4       0.0       0.1
 6 H  py              0.1       0.0       0.3       0.5       1.0       0.0
 7 H  s               0.2       4.0       1.0       0.9       1.6       1.2
 7 H  pz              0.0       0.0       0.1       0.0       0.0       0.2
 7 H  px              0.1       1.3       0.2       0.4       0.0       0.0
 7 H  py              0.0       0.0       1.4       0.0       0.1       0.3
 8 H  s               0.4       0.7       1.9       2.7       0.5       8.4
 8 H  pz              0.0       0.1       0.8       1.1       0.3       1.9
 8 H  px              0.0       0.2       0.4       0.5       0.2       0.1
 8 H  py              0.0       0.3       0.2       0.2       0.0       0.3
 9 H  s               0.3       5.1       1.2       0.4       3.6       9.8
 9 H  pz              0.6       0.0       0.1       0.2       0.0       1.4
 9 H  px              0.1       0.4       1.0       0.4       0.1       0.1
 9 H  py              0.1       1.5       0.7       0.4       1.1       1.6
10 H  s               0.8       5.5       0.7       0.1       0.6       6.6
10 H  pz              0.8       0.2       0.0       0.1       0.2       1.0
10 H  px              0.0       0.6       0.2       0.9       0.2       1.2
10 H  py              0.0       1.4       0.1       0.2       0.3       0.1

                     36        37        38        39        40        41   
                   0.17303   0.19023   0.19478   0.21134   0.22951   0.23170
                   0.00000   0.00000   0.00000   0.00000   0.00000   0.00000
                  --------  --------  --------  --------  --------  --------
 0 C  s               4.8       1.5       0.2       1.5       1.1       0.6
 0 C  pz             12.9       9.9       7.2      16.1      12.3       6.9
 0 C  px              7.0       2.3      13.9       4.0       3.2      35.2
 0 C  py              4.9       5.7       3.2       4.9       2.9       0.9
 0 C  dz2             0.0       0.1       1.1       0.3       0.1       0.3
 0 C  dxz             0.2       2.9       0.0       0.2       0.8       0.1
 0 C  dyz             0.4       0.0       0.2       0.7       0.5       0.2
 0 C  dx2y2           0.2       0.0       0.7       0.9       0.0       0.0
 0 C  dxy             0.0       0.1       1.9       0.2       0.5       0.0
 1 C  s               0.8       1.7       0.8       2.7       0.2       0.3
 1 C  pz              1.9       2.6       0.0       0.9       6.0       4.3
 1 C  px              3.0       8.4       1.2       5.4       2.3       4.3
 1 C  py              6.4       1.5       1.7       9.0       1.5       3.5
 1 C  dz2             0.0       0.1       0.0       0.0       0.2       0.1
 1 C  dxz             0.0       0.1       0.2       0.0       0.0       0.0
 1 C  dyz             0.4       0.3       0.0       0.0       0.1       0.2
 1 C  dx2y2           0.1       0.2       0.0       0.0       1.2       0.1
 1 C  dxy             0.3       0.5       0.5       0.1       0.5       0.0
 2 H  s               0.4       2.0       0.2       0.2       0.8       2.7
 2 H  pz              0.1       0.1       0.0       0.0       0.0       0.6
 2 H  px              0.0       1.1       0.1       0.1       0.2       0.6
 2 H  py              0.7       0.5       0.0       0.0       0.1       0.4
 3 C  s               2.4       1.3       0.2       0.9       1.6       1.1
 3 C  pz              7.8       3.4       3.4       1.4       4.7       1.7
 3 C  px              4.3       0.7       1.8       1.6      14.3       2.0
 3 C  py              0.4       9.0      16.1       1.7       0.1       5.3
 3 C  dz2             0.2       0.1       0.1       0.1       0.0       0.0
 3 C  dxz             0.4       0.2       0.0       0.4       0.0       0.1
 3 C  dyz             0.3       0.0       0.0       0.9       0.3       0.1
 3 C  dx2y2           0.4       0.0       0.0       0.1       0.0       0.1
 3 C  dxy             0.4       0.0       0.1       0.1       0.5       0.1
 4 Cl s               0.1       0.5       0.1       0.1       1.2       0.2
 4 Cl pz              0.8       0.3       1.1       0.1       0.0       0.6
 4 Cl px              0.3       0.8       0.3       0.0       0.5       0.1
 4 Cl py              0.1       0.1       1.0       1.5       1.6       4.5
 4 Cl dz2             2.6       1.5       0.0       0.4       0.1       0.5
 4 Cl dxz             2.1       1.0       0.3       0.1       3.3       0.3
 4 Cl dyz             0.0       0.4       0.2       0.2       0.0       0.1
 4 Cl dx2y2           0.6       0.2       0.3       5.1       0.1       0.7
 4 Cl dxy             0.9       0.5       0.4       5.0       0.1       0.3
 5 Cl s               2.9       0.6       0.8       2.9       0.0       0.4
 5 Cl pz              2.2       0.1       0.5       0.1       0.3       0.6
 5 Cl px              2.3       0.4       0.2       0.5       0.3       0.3
 5 Cl py              0.3       1.5       0.7       1.0       0.4       0.5
 5 Cl dz2             2.3       0.4       0.2       0.5       1.4       4.2
 5 Cl dxz             0.1       1.0       0.1       2.1       8.1       1.8
 5 Cl dyz             1.8       2.1       1.9       0.3       1.1       0.1
 5 Cl dx2y2           0.7       1.8       1.0       0.2       0.8       0.2
 5 Cl dxy             0.1       0.3       0.3       2.6       0.0       0.4
 6 H  s               2.4      10.6       4.6       0.5       8.9       1.6
 6 H  pz              0.2       0.7       0.4       1.5       0.4       0.4
 6 H  px              0.0       2.4       0.1       0.0       1.3       0.0
 6 H  py              0.1       0.4       0.5       0.0       1.3       0.0
 7 H  s               2.2       1.1      17.4       0.9       0.8       0.9
 7 H  pz              0.1       2.1       0.0       0.5       0.2       0.2
 7 H  px              1.3       0.1       3.6       0.1       0.1       0.7
 7 H  py              0.0       0.0       1.3       0.1       0.7       0.1
 8 H  s               1.0       9.0       2.1       5.9       4.4       1.8
 8 H  pz              0.5       0.3       1.9       0.6       0.6       0.2
 8 H  px              0.0       1.1       0.4       0.5       0.7       0.9
 8 H  py              0.5       0.0       0.0       0.5       0.1       0.3
 9 H  s               0.2       0.1       1.8       3.4       0.4       1.9
 9 H  pz              0.1       0.0       0.1       0.7       0.0       0.1
 9 H  px              0.1       0.0       0.2       0.1       0.6       0.0
 9 H  py              0.3       0.0       1.1       0.6       0.3       1.4
10 H  s               6.8       1.0       0.0       6.2       3.3       1.6
10 H  pz              1.6       0.0       0.0       0.6       0.4       0.0
10 H  px              0.3       0.3       0.1       0.4       0.1       0.0
10 H  py              1.4       0.6       0.0       0.0       0.4       0.2

                     42        43        44        45        46        47   
                   0.24739   0.25847   0.28060   0.29168   0.29789   0.30836
                   0.00000   0.00000   0.00000   0.00000   0.00000   0.00000
                  --------  --------  --------  --------  --------  --------
 0 C  s               1.2       1.5       0.3       0.1       0.8       0.6
 0 C  pz              6.9      12.1       1.7       1.6       0.3       4.2
 0 C  px              4.6       1.4       0.5       0.3      11.1       2.7
 0 C  py              8.4      14.9       2.2       3.5       0.9       2.5
 0 C  dz2             0.0       0.1       0.0       0.1       0.4       0.0
 0 C  dxz             0.1       0.7       0.1       0.0       0.0       0.0
 0 C  dyz             0.0       0.0       0.0       0.1       0.1       0.4
 0 C  dx2y2           0.5       0.1       0.1       0.0       0.4       0.0
 0 C  dxy             0.0       0.1       0.2       0.2       0.0       0.2
 1 C  s               0.0       0.3       0.2       1.1       0.1       6.4
 1 C  pz              0.6       6.8      11.8       1.3      12.6       0.9
 1 C  px              2.0       4.6       4.6      10.5       0.6       0.9
 1 C  py              3.4       7.7       3.3       2.7       0.1       0.5
 1 C  dz2             0.4       1.1       0.2       0.2       0.2       0.1
 1 C  dxz             0.2       0.0       0.7       0.0       0.4       0.6
 1 C  dyz             0.1       0.7       0.1       0.2       0.0       0.9
 1 C  dx2y2           0.6       0.1       0.2       0.1       0.0       0.0
 1 C  dxy             0.2       0.0       0.0       0.1       0.0       0.6
 2 H  s               1.4       4.4       1.9       0.2       1.1       3.3
 2 H  pz              0.4       1.9       0.1       0.1       0.2       0.2
 2 H  px              0.0       0.0       0.0       0.2       0.0       0.9
 2 H  py              0.1       0.3       0.0       0.1       0.0       0.1
 3 C  s               3.1       0.0       4.0       8.2       0.4       0.9
 3 C  pz             31.1       9.9       0.6       1.6       1.3       0.4
 3 C  px              3.7       2.4       0.9       1.5       5.6       3.0
 3 C  py              0.2       1.2       9.4       0.1       6.9       6.7
 3 C  dz2             0.9       0.0       0.0       1.4       0.1       0.2
 3 C  dxz             0.1       0.1       0.1       0.5       0.5       0.2
 3 C  dyz             0.0       0.1       0.7       0.0       0.4       0.0
 3 C  dx2y2           0.0       0.2       0.9       0.0       0.1       0.1
 3 C  dxy             0.1       0.0       0.8       0.1       0.2       0.3
 4 Cl s               0.4       0.5       0.1       6.3       0.5       0.1
 4 Cl pz              1.1       0.3       2.0      19.9       2.4       2.2
 4 Cl px              0.1       0.1       0.4      13.0       1.6       3.8
 4 Cl py              0.0       0.3       0.8       1.6       3.4       0.4
 4 Cl dz2             0.1       2.1       5.3       2.9       1.9       2.5
 4 Cl dxz             1.5       0.2       0.4       0.9       4.3       0.0
 4 Cl dyz             0.0       2.6       5.2       1.2      11.3       0.1
 4 Cl dx2y2           0.8       1.2       3.7       1.6       0.9       0.1
 4 Cl dxy             2.1       0.3      11.9       0.9       1.1       0.1
 5 Cl s               0.0       0.3       0.1       0.0       0.6       3.6
 5 Cl pz              0.4       0.2       0.2       1.6       2.8      11.8
 5 Cl px              0.4       0.4       0.1       0.2       4.1      14.5
 5 Cl py              1.0       0.2       0.0       0.7       0.1      15.1
 5 Cl dz2             0.4       7.0       0.1       0.6       2.6       0.1
 5 Cl dxz             1.1       0.6       4.0       0.2       0.1       0.4
 5 Cl dyz             3.5       0.1       1.6       0.0       2.3       1.6
 5 Cl dx2y2           5.4       0.3       1.0       1.8       1.8       1.3
 5 Cl dxy             0.0       3.2       6.6       0.0       0.2       0.6
 6 H  s               1.4       0.9       0.4       0.3       0.7       0.8
 6 H  pz              0.3       0.1       0.1       0.0       0.0       0.1
 6 H  px              0.1       0.1       0.5       0.0       0.8       0.1
 6 H  py              0.6       0.6       0.0       0.0       0.2       0.0
 7 H  s               3.5       1.6       0.1       0.9       4.1       0.8
 7 H  pz              0.1       0.7       0.1       0.1       0.0       0.0
 7 H  px              1.5       0.0       0.1       0.0       0.7       0.1
 7 H  py              0.0       0.0       0.4       0.3       0.0       0.0
 8 H  s               0.0       1.5       0.5       0.0       0.0       0.2
 8 H  pz              0.0       0.1       0.4       0.1       0.0       0.0
 8 H  px              0.1       0.0       0.0       0.1       0.9       0.0
 8 H  py              0.0       0.0       0.3       0.2       0.4       0.1
 9 H  s               0.5       0.4       5.6       2.8       2.7       0.5
 9 H  pz              0.5       0.5       0.2       0.1       0.0       0.0
 9 H  px              0.1       0.1       0.1       0.1       0.1       0.0
 9 H  py              0.2       0.0       0.1       1.2       0.1       0.0
10 H  s               1.6       0.2       0.8       3.3       0.9       0.8
10 H  pz              0.8       0.0       0.0       0.0       0.4       0.1
10 H  px              0.0       0.3       0.3       1.2       0.0       0.0
10 H  py              0.0       0.1       0.7       0.5       0.6       0.4

                     48        49        50        51        52        53   
                   0.34986   0.36211   0.36740   0.38469   0.39546   0.41414
                   0.00000   0.00000   0.00000   0.00000   0.00000   0.00000
                  --------  --------  --------  --------  --------  --------
 0 C  s               2.5       1.3       0.5       2.7       2.6       1.4
 0 C  pz              0.7       0.8       1.4       1.1       0.3       2.0
 0 C  px              0.3       0.9       0.9       1.1       0.1       0.5
 0 C  py              0.2       3.1       0.6       3.4       0.6       1.3
 0 C  dz2             0.0       0.0       0.1       0.0       0.1       0.3
 0 C  dxz             0.0       0.1       0.0       0.0       0.0       0.0
 0 C  dx2y2           0.0       0.3       0.0       0.4       0.0       0.4
 0 C  dxy             0.0       0.0       0.2       0.1       0.0       0.0
 1 C  s               2.5       7.4       0.1       1.2       1.4       1.2
 1 C  pz              1.4       2.5       0.5       0.5       1.5       2.7
 1 C  px              0.2       1.5       0.9       1.3       0.1       0.7
 1 C  py              0.2       1.6       2.5       1.5       0.4       0.4
 1 C  dz2             0.0       0.8       0.0       0.0       0.0       0.0
 1 C  dxz             0.5       0.0       0.0       0.0       0.1       0.2
[...]
 5 Cl dxz             0.0       0.2       0.4       0.0       0.1       0.0
 5 Cl dyz             0.0       0.0       0.5       0.0       0.1       0.0
 5 Cl dx2y2           0.0       0.2       0.0       0.1       0.0       0.1
 5 Cl dxy             0.1       0.1       0.3       0.0       0.0       0.0
 6 H  s               0.1       0.1       0.3       0.5       1.0       0.1
 6 H  pz              6.3       0.9       0.6       1.2       3.2       1.1
 6 H  px              5.6       0.0       1.1       1.9       1.1       0.0
 6 H  py              0.1       1.1       1.8       3.2       1.8       0.1
 7 H  s               0.2       0.2       0.3       0.6       1.1       0.1
 7 H  pz              1.6       0.2       0.8       0.0       0.0       0.1
 7 H  px              0.9       1.6       1.0       5.3       5.8       0.0
 7 H  py              5.2       1.1       1.6       1.2       0.7       0.0
 8 H  s               0.0       0.2       0.4       0.6       1.1       2.0
 8 H  pz              1.4       1.8       2.5       3.6       5.0       5.2
 8 H  px              8.5       0.0       0.5       2.9       1.4       1.2
 8 H  py              5.7       0.0       1.0       0.0       0.4       0.5
 9 H  s               0.2       0.4       0.2       0.9       2.5       0.9
 9 H  pz              0.0       7.8       0.0       0.0       1.0       0.2
 9 H  px              0.3       0.0       0.5       0.0       0.5       0.8
 9 H  py              0.5       0.9       1.6       7.8       9.6       3.1
10 H  s               0.0       0.3       0.4       0.8       1.6       2.2
10 H  pz              0.1       7.7       0.3       0.6       2.1       2.5
10 H  px              1.3       0.2       1.4       5.8       3.0       1.3
10 H  py              1.4       0.1       0.3       2.1       3.0       4.0

                    132       133       134       135       136       137   
                   3.54907   3.55061   3.57776   3.60521  21.78866  21.95210
                   0.00000   0.00000   0.00000   0.00000   0.00000   0.00000
                  --------  --------  --------  --------  --------  --------
 0 C  s               1.4       0.1       0.3       0.4       8.4       0.7
 0 C  pz              3.3       1.4       3.4       3.1       0.0       0.0
 0 C  px              0.1       9.4       0.6       2.8       0.0       0.0
 0 C  py              8.9       0.2       0.4       0.2       0.0       0.0
 0 C  dz2             0.8       4.3       0.7       5.2       0.0       0.0
 0 C  dxz            10.1       0.0       2.7       5.3       0.0       0.0
 0 C  dyz             8.4       2.0       0.0       1.0       0.0       0.0
 0 C  dx2y2           1.3       4.4       2.4       0.3       0.0       0.0
 0 C  dxy             0.2      12.4       1.9       0.0       0.0       0.0
 1 C  s               0.3       0.0       0.3       0.9      24.0      70.2
 1 C  pz              3.5       0.3       0.9       3.3       0.0       0.0
 1 C  px              0.3       0.0       0.2       2.0       0.0       0.0
 1 C  py              2.0       0.2       0.3       0.3       0.0       0.0
 1 C  dz2             3.1       0.0       1.1       6.0       0.0       0.0
 1 C  dxz             0.8       0.4       0.5       6.0       0.0       0.0
 1 C  dyz             1.1       0.1       1.1       0.4       0.0       0.0
 1 C  dx2y2           3.7       1.0       0.9       0.8       0.0       0.0
 1 C  dxy             0.2       0.2       0.2       0.0       0.0       0.0
 2 H  s               2.6       0.2       0.9       5.2       0.0       0.0
 2 H  pz              4.4       0.6       1.8      11.2       0.0       0.0
 2 H  px              2.5       0.0       0.8       3.3       0.0       0.0
 2 H  py              0.4       0.2       0.0       0.1       0.0       0.0
 3 C  s               0.2       0.1       0.0       0.1      67.0      28.5
 3 C  pz              0.1       0.3       0.1       0.0       0.0       0.0
 3 C  px              0.1       0.8       1.8       0.1       0.0       0.0
 3 C  py              0.2       1.0       7.3       3.3       0.0       0.0
 3 C  dz2             0.1       0.4       1.0       0.1       0.0       0.0
 3 C  dxz             0.2       0.9       3.1       1.3       0.0       0.0
 3 C  dyz             0.1       2.5       9.0       2.2       0.0       0.0
 3 C  dx2y2           0.4       0.5       4.0       1.4       0.0       0.0
 3 C  dxy             0.4       0.9       0.6       0.0       0.0       0.0
 4 Cl s               0.1       0.0       0.0       0.0       0.2       0.1
 4 Cl pz              0.1       0.0       0.0       0.0       0.0       0.0
 4 Cl px              0.3       0.2       0.0       0.1       0.0       0.0
 4 Cl py              0.0       0.0       0.2       0.0       0.0       0.0
 5 Cl s               0.0       0.1       0.0       0.0       0.2       0.3
 5 Cl px              0.1       0.2       0.0       0.3       0.0       0.0
 5 Cl py              0.0       0.2       0.1       0.1       0.0       0.0
 6 H  s               6.0       4.0       1.6       0.0       0.0       0.0
 6 H  pz              6.8       3.8       1.1       0.1       0.0       0.0
 6 H  px              6.8       1.3       0.5       0.1       0.0       0.0
 6 H  py              3.6       4.2       2.0       0.0       0.0       0.0
 7 H  s               0.8       8.9       0.8       1.1       0.0       0.0
 7 H  pz              0.6       0.4       0.0       0.2       0.0       0.0
 7 H  px              2.5      18.0       1.8       1.5       0.0       0.0
 7 H  py              0.0       4.0       0.3       0.9       0.0       0.0
 8 H  s               3.0       0.3       1.4       4.9       0.0       0.0
 8 H  pz              4.5       0.8       2.1      11.2       0.0       0.0
 8 H  px              1.7       0.0       2.0       2.6       0.0       0.0
 9 H  s               0.4       0.9       5.7       1.7       0.0       0.0
 9 H  pz              0.3       0.6       3.1       0.5       0.0       0.0
 9 H  px              0.0       0.0       0.0       0.1       0.0       0.0
 9 H  py              1.0       1.5      11.0       3.1       0.0       0.0
10 H  s               0.0       1.6       5.2       1.3       0.0       0.0
10 H  pz              0.1       1.3       5.7       2.1       0.0       0.0
10 H  px              0.0       1.2       4.4       1.1       0.0       0.0
10 H  py              0.1       1.3       2.7       0.2       0.0       0.0

                    138       139       140   
                  21.95697  25.09811  25.34278
                   0.00000   0.00000   0.00000
                  --------  --------  --------
 0 C  s              90.6       0.0       0.0
 1 C  s               5.1       0.3       0.7
 3 C  s               4.1       0.4       0.3
 4 Cl s               0.0      62.6      36.4
 5 Cl s               0.0      36.4      62.3


                      *****************************
                      * MAYER POPULATION ANALYSIS *
                      *****************************

  NA   - Mulliken gross atomic population
  ZA   - Total nuclear charge
  QA   - Mulliken gross atomic charge
  VA   - Mayer's total valence
  BVA  - Mayer's bonded valence
  FA   - Mayer's free valence

  ATOM       NA         ZA         QA         VA         BVA        FA
  0 C      6.5249     6.0000    -0.5249     3.8349     3.8349    -0.0000
  1 C      5.9434     6.0000     0.0566     3.6367     3.6367    -0.0000
  2 H      0.7889     1.0000     0.2111     0.9327     0.9327    -0.0000
  3 C      6.1864     6.0000    -0.1864     3.7659     3.7659    -0.0000
  4 Cl    17.2328    17.0000    -0.2328     1.0125     1.0125    -0.0000
  5 Cl    17.2511    17.0000    -0.2511     0.9828     0.9828    -0.0000
  6 H      0.8249     1.0000     0.1751     0.9564     0.9564    -0.0000
  7 H      0.8247     1.0000     0.1753     0.9552     0.9552    -0.0000
  8 H      0.8247     1.0000     0.1753     0.9579     0.9579    -0.0000
  9 H      0.7975     1.0000     0.2025     0.9437     0.9437    -0.0000
 10 H      0.8007     1.0000     0.1993     0.9473     0.9473     0.0000

  Mayer bond orders larger than 0.100000
B(  0-C ,  1-C ) :   0.9359 B(  0-C ,  6-H ) :   0.9525 B(  0-C ,  7-H ) :   0.9602 
B(  0-C ,  8-H ) :   0.9666 B(  1-C ,  2-H ) :   0.9199 B(  1-C ,  3-C ) :   0.9358 
B(  1-C ,  5-Cl) :   0.8871 B(  3-C ,  4-Cl) :   0.9501 B(  3-C ,  9-H ) :   0.9453 
B(  3-C , 10-H ) :   0.9388 

-------
TIMINGS
-------

Total SCF time: 0 days 0 hours 0 min 16 sec 

Total time                  ....      16.065 sec
Sum of individual times     ....      15.525 sec  ( 96.6%)

SCF preparation             ....       0.232 sec  (  1.4%)
Fock matrix formation       ....      14.433 sec  ( 89.8%)
  Startup                   ....       0.057 sec  (  0.4% of F)
  Split-RI-J                ....       1.572 sec  ( 10.9% of F)
  XC integration            ....      10.135 sec  ( 70.2% of F)
    Basis function eval.    ....       1.524 sec  ( 15.0% of XC)
    Density eval.           ....       2.399 sec  ( 23.7% of XC)
    XC-Functional eval.     ....       1.368 sec  ( 13.5% of XC)
    XC-Potential eval.      ....       2.596 sec  ( 25.6% of XC)
  CPCM terms                ....       2.140 sec  ( 14.8% of F)
Diagonalization             ....       0.000 sec  (  0.0%)
Density matrix formation    ....       0.223 sec  (  1.4%)
Total Energy calculation    ....       0.044 sec  (  0.3%)
Population analysis         ....       0.063 sec  (  0.4%)
Orbital Transformation      ....       0.044 sec  (  0.3%)
Orbital Orthonormalization  ....       0.000 sec  (  0.0%)
DIIS solution               ....       0.375 sec  (  2.3%)
  MO trafo                  ....       0.000 sec  (  0.0 % of DIIS)
  Orb grad                  ....       0.000 sec  (  0.0 % of DIIS)
  Energy W gradient         ....       0.000 sec  (  0.0 % of DIIS)
  DIIS error                ....       0.005 sec  (  1.2 % of DIIS)
  DIIS work                 ....       0.327 sec  ( 87.3 % of DIIS)
  Form Q                    ....       0.000 sec  (  0.0 % of DIIS)
  Form QpQm                 ....       0.000 sec  (  0.0 % of DIIS)
  Exp/Cayley                ....       0.000 sec  (  0.0 % of DIIS)
  Orb update                ....       0.000 sec  (  0.0 % of DIIS)
  Wake-sleep                ....       0.018 sec  (  4.8 % of DIIS)
SOSCF solution              ....       0.111 sec  (  0.7%)
  MO trafo                  ....       0.042 sec  ( 38.2 % of SOSCF)
  Orb grad                  ....       0.002 sec  (  1.6 % of SOSCF)
  Rot update                ....       0.043 sec  ( 38.7 % of SOSCF)
  Step                      ....       0.024 sec  ( 21.4 % of SOSCF)
Finished LeanSCF after  16.6 sec

Maximum memory used throughout the entire LEANSCF-calculation: 15.8 MB


-------------------------------------------------------------------------------
                          DFT DISPERSION CORRECTION                            
                                                                               
                                DFTD4 V3.4.0                                   
-------------------------------------------------------------------------------
The R2SCAN3C composite method is recognized
Using three-body term ABC
Active option DFTDOPT                   ...         5   

-------------------------   ----------------
Dispersion correction           -0.003037191
-------------------------   ----------------

------------------   -----------------
gCP correction             0.009536771
------------------   -----------------

-------------------------   --------------------
FINAL SINGLE POINT ENERGY     -1038.256835028371
-------------------------   --------------------


------------------------------------------------------------------------------
                              ORCA PROPERTY CALCULATIONS
------------------------------------------------------------------------------

GBWName                                 ... sp_solv.gbw
Number of atoms                         ...     11
Number of basis functions               ...    141
Max core memory                         ...   1024 MB

Electric properties:
Dipole moment                           ... YES
Quadrupole moment                       ...  NO
Static polarizability (Dipole/Dipole)   ...  NO
Static polarizability (Dipole/Quad.)    ...  NO
Static polarizability (Quad./Quad.)     ...  NO
Static polarizability (Velocity)        ...  NO

Atomic electric properties:
Dipole moment                           ...  NO
Quadrupole moment                       ...  NO
Static polarizability                   ...  NO

Choice of electric origin               ... Center of mass
Position of electric origin             ...     0.000001     0.000015     0.000013

General magnetic properties:
Magnetizability                         ...  NO

EPR properties:
g-Tensor (aka g-matrix)                 ...  NO
Zero-Field splitting spin-orbit         ...  NO
Zero-field splitting spin-spin          ...  NO
Hyperfine couplings                     ...  NO (   0 nuclei)
Quadrupole couplings                    ...  NO (   0 nuclei)
Contact density                         ...  NO (   0 nuclei)

NMR properties:
Chemical shifts                         ...  NO (   0 nuclei)
Spin-rotation constants                 ...  NO (   0 nuclei)
Spin-spin couplings                     ...  NO (   0 nuclei,    0 pairs)

Choice of magnetic origin               ... GIAO
Position of magnetic origin             ...     0.000000     0.000000     0.000000

Properties with geometric perturbations:
SCF Hessian                             ...  NO
IR spectrum                             ...  NO
VCD spectrum                            ...  NO
X-ray spectroscopy properties:
SCF XES/XAS/RIXS spectra                ...  NO


-------------
DIPOLE MOMENT
-------------

Method             : SCF
Type of density    : Electron Density
Multiplicity       :   1
Irrep              :   0
Energy             : -1038.2633346075958798 Eh
Relativity type    : 
Basis              : AO
                                X                 Y                 Z
Electronic contribution:     -0.414599077      -6.458015715      -4.281924871
Nuclear contribution   :      0.325847693       7.295157373       5.759728219
                        -----------------------------------------
Total Dipole Moment    :     -0.088751384       0.837141658       1.477803348
                        -----------------------------------------
Magnitude (a.u.)       :      1.700760330
Magnitude (Debye)      :      4.322989204



--------------------
Rotational spectrum 
--------------------
 
Rotational constants in cm-1:             0.141464             0.069242             0.056824 
Rotational constants in MHz :          4240.970909          2075.824077          1703.551558 

Dipole components along the rotational axes: 
x,y,z [a.u.] :     0.107933     1.355739     1.021229 
x,y,z [Debye]:     0.274343     3.446014     2.595758 

 

Dipole moment calculation done in   0.0 sec 

Maximum memory used throughout the entire PROP-calculation: 8.2 MB

--------------------------------
SUGGESTED CITATIONS FOR THIS RUN
--------------------------------

Below you find a list of papers that are relevant to this ORCA run
We neither can nor want to force you to cite these papers, but we appreciate if you do
You receive ORCA, which is the product of decades of hard work by many enthusiastic individuals, for free
The only thing we kindly ask in return is that you cite our papers,
We deeply appreciate it, if you show your appreciation for ORCA by not just citing the generic ORCA reference.

Please note that relegating all ORCA citations to the supporting information does *not* help us.
SI sections are not indexed - citations you put there will not count into any citation statistics
But we need these citations in order to attract the funding resources that allow us to do what we are doing

Therefore, if you are a happy ORCA user, please consider citing a few of the papers listed below in the main body of your paper

In addition to the list printed below, the program has created the file sp_solv.bibtex that contains the list in bibtex format
You can import this file easily into all common literature databanks and citation aid programs


List of essential papers. We consider these as the minimum necessary citations

  1. Neese,F.
     Software update: the ORCA program system, version 5.0
     WIRES Comput. Molec. Sci., 2022 12(1)e1606
     doi.org/10.1002/wcms.1606
  2. Grimme,S.; Hansen,A.; Ehlert,S.; Mewes,J.
     r2SCAN-3c: A 'Swiss army knife' composite electronic-structure method
     J. Chem. Phys., 2021 154 064103
     doi.org/10.1063/5.0040021

List of papers to cite with high priority. The work reported in these papers was absolutely
necessary for this run to complete.
Our perspective: the developers of density functionals and basis sets usually get cited in chemistry papers
Good! But without the algorithms to do something with them, the functionals or basis sets would not do anything.
Hence, in our opinion, the algorithm design and method developments papers are equally worthy of getting cited

  1. Neese,F.
     An improvement of the resolution of the identity approximation for the formation of the Coulomb matrix
     J. Comp. Chem., 2003 24(14)1740-1747
     doi.org/10.1002/jcc.10318
  2. Garcia-Rates,M.; Neese,F.
     Effect of the Solute Cavity on the Solvation Energy and its Derivatives within the Framework of the Gaussian Charge Scheme
     J. Comput. Chem., 2020 41 922-939
     doi.org/10.1002/jcc.26139
  3. Neese,F.
     The SHARK Integral Generation and Digestion System
     J. Comp. Chem., 2022  1-16
     doi.org/10.1002/jcc.26942
  4. Lehtola,S.; Steigemann,C.; Oliveira,M.; Marques,M.
     Recent developments in Libxc - A comprehensive library of functionals for density functional theory
     Software X, 2018 7 
     doi.org/10.1016/j.softx.2017.11.002
  5. Caldeweyher,E.; Bannwarth,C.; Grimme,S.
     Extension of the D3 dispersion coefficient model
     J. Chem. Phys., 2017 147 034112-XXXX
     doi.org/10.1063/1.4993215
  6. Caldeweyher,E.; Ehlert,S.; Hansen,A.; Neugebauer,H.; Spicher,S.; Bannwarth,C.; Grimme,S.
     A generally applicable atomic-charge dependent London dispersion correction
     J. Chem. Phys., 2019 150 154122-XXXX
     doi.org/10.1063/1.5090222
  7. Caldeweyher,E.; Mewes,J.; Ehlert,S.; Grimme,S.
     Extension and evaluation of the D4 London-dispersion model for periodic systems
     Phys. Chem. Chem. Phys., 2020 22(16)8499-8512
     doi.org/10.1039/D0CP00502A

List of suggested additional citations. These are papers that are important in the 'surrounding' of 
of this run, or papers that preceded the highly important papers. If you like your results we are grateful for a citation.

  1. Neese,F.
     The ORCA program system
     WIRES Comput. Molec. Sci., 2012 2(1)73-78
     doi.org/10.1002/wcms.81
  2. Neese,F.
     Software update: the ORCA program system, version 4.0
     WIRES Comput. Molec. Sci., 2018 8(1)1-6
     doi.org/10.1002/wcms.1327
  3. Neese,F.; Wennmohs,F.; Becker,U.; Riplinger,C.
     The ORCA quantum chemistry program package
     J. Chem. Phys., 2020 152 Art. No. L224108
     doi.org/10.1063/5.0004608

List of optional additional citations

  1. Neese,F.
     Approximate second-order SCF convergence for spin unrestricted wavefunctions
     Chem. Phys. Lett., 2000 325(1-3)93-98
     doi.org/10.1016/s0009-2614(00)00662-x

Timings for individual modules:

Sum of individual times          ...       17.880 sec (=   0.298 min)
Startup calculation              ...        0.859 sec (=   0.014 min)   4.8 %
SCF iterations                   ...       16.922 sec (=   0.282 min)  94.6 %
Property calculations            ...        0.099 sec (=   0.002 min)   0.6 %
                             ****ORCA TERMINATED NORMALLY****
TOTAL RUN TIME: 0 days 0 hours 0 minutes 18 seconds 510 msec
