      -----------------------------------------------------------      
     |                   =====================                   |     
     |                           x T B                           |     
     |                   =====================                   |     
     |                         S. Grimme                         |     
     |          Mulliken Center for Theoretical Chemistry        |     
     |                    University of Bonn                     |     
      -----------------------------------------------------------      

   * xtb version 6.7.1 (edcfbbe) compiled by 'albert@albert-system' on 2024-07-22

   xtb is free software: you can redistribute it and/or modify it under
   the terms of the GNU Lesser General Public License as published by
   the Free Software Foundation, either version 3 of the License, or
   (at your option) any later version.
   
   xtb is distributed in the hope that it will be useful,
   but WITHOUT ANY WARRANTY; without even the implied warranty of
   MERCHANTABILITY or FITNESS FOR A PARTICULAR PURPOSE.  See the
   GNU Lesser General Public License for more details.
   
   Cite this work as:
   * C. Bannwarth, E. Caldeweyher, S. Ehlert, A. Hansen, P. Pracht,
     J. Seibert, S. Spicher, S. Grimme, WIREs Comput. Mol. Sci., 2020, 11,
     e01493. DOI: 10.1002/wcms.1493
   
   for GFN2-xTB:
   * C. Bannwarth, S. Ehlert and S. Grimme., J. Chem. Theory Comput., 2019,
     15, 1652-1671. DOI: 10.1021/acs.jctc.8b01176
   for GFN1-xTB:
   * S. Grimme, C. Bannwarth, P. Shushkov, J. Chem. Theory Comput., 2017,
     13, 1989-2009. DOI: 10.1021/acs.jctc.7b00118
   for GFN0-xTB:
   * P. Pracht, E. Caldeweyher, S. Ehlert, S. Grimme, ChemRxiv, 2019, preprint.
     DOI: 10.26434/chemrxiv.8326202.v1
   for GFN-FF:
   * S. Spicher and S. Grimme, Angew. Chem. Int. Ed., 2020, 59, 15665-15673.
     DOI: 10.1002/anie.202004239
   
   for ALPB and GBSA implicit solvation:
   * S. Ehlert, M. Stahn, S. Spicher, S. Grimme, J. Chem. Theory Comput.,
     2021, 17, 4250-4261. DOI: 10.1021/acs.jctc.1c00471
   
   for ddCOSMO and CPCM-X implicit solvation:
   * M. Stahn, S. Ehlert, S. Grimme, J. Phys. Chem. A,
     2023, XX, XXXX-XXXX. DOI: 10.1021/acs.jpca.3c04382
   
   for DFT-D4:
   * E. Caldeweyher, C. Bannwarth and S. Grimme, J. Chem. Phys., 2017,
     147, 034112. DOI: 10.1063/1.4993215
   * E. Caldeweyher, S. Ehlert, A. Hansen, H. Neugebauer, S. Spicher,
     C. Bannwarth and S. Grimme, J. Chem. Phys., 2019, 150, 154122.
     DOI: 10.1063/1.5090222
   * E. Caldeweyher, J.-M. Mewes, S. Ehlert and S. Grimme, Phys. Chem. Chem. Phys.
     2020, 22, 8499-8512. DOI: 10.1039/D0CP00502A
   
   for sTDA-xTB:
   * S. Grimme and C. Bannwarth, J. Chem. Phys., 2016, 145, 054103.
     DOI: 10.1063/1.4959605
   
   in the mass-spec context:
   * V. Asgeirsson, C. Bauer and S. Grimme, Chem. Sci., 2017, 8, 4879.
     DOI: 10.1039/c7sc00601b
   * J. Koopman and S. Grimme, ACS Omega 2019, 4, 12, 15120-15133.
     DOI: 10.1021/acsomega.9b02011
   
   for metadynamics refer to:
   * S. Grimme, J. Chem. Theory Comput., 2019, 155, 2847-2862
     DOI: 10.1021/acs.jctc.9b00143
   
   for SPH calculations refer to:
   * S. Spicher and S. Grimme, J. Chem. Theory Comput., 2021, 17, 1701-1714
     DOI: 10.1021/acs.jctc.0c01306
   
   for ONIOM refer to:
   * C. Plett, A. Katbashev, S. Ehlert, S. Grimme, M. Bursch,
     Phys. Chem. Chem. Phys., 2023, 25, 17860-17868. DOI: 10.1039/D3CP02178E
   
   for DIPRO refer to:
   * J. Kohn, N. Gildemeister, S. Grimme, D. Fazzi, A. Hansen,
     J. Chem. Phys., 2023, just accepted.
   
   for PTB refer to:
   * S. Grimme, M. Mueller, A. Hansen, J. Chem. Phys., 2023, 158, 124111.
     DOI: 10.1063/5.0137838
   
   with help from (in alphabetical order)
   P. Atkinson, C. Bannwarth, F. Bohle, G. Brandenburg, E. Caldeweyher
   M. Checinski, S. Dohm, S. Ehlert, S. Ehrlich, I. Gerasimov, C. Hölzer
   A. Katbashev, J. Kohn, J. Koopman, C. Lavigne, S. Lehtola, F. März, M. Müller,
   F. Musil, H. Neugebauer, J. Pisarek, C. Plett, P. Pracht, F. Pultar,
   J. Seibert, P. Shushkov, S. Spicher, M. Stahn, M. Steiner, T. Strunk,
   J. Stückrath, T. Rose, and J. Unsleber
   
 * started run on 2025/04/05 at 03:15:17.188     
   ID    Z sym.   atoms
    1    6 C      1-8
    2    8 O      9
    3    1 H      10-19

           -------------------------------------------------
          |                Calculation Setup                |
           -------------------------------------------------

          program call               : /srv/scratch/z5358697/.xtb/bin/xtb xtb_rrho.coord --gfn2 --ohess vtight --chrg 0 --enso --norestart -I rrho-xcontrol-inp --parallel 1 --alpb water
          hostname                   : k142
          coordinate file            : xtb_rrho.coord
          omp threads                :                     1


           -------------------------------------------------
          |                 G F N 2 - x T B                 |
           -------------------------------------------------

        Reference                      10.1021/acs.jctc.8b01176
      * Hamiltonian:
        H0-scaling (s, p, d)           1.850000    2.230000    2.230000
        zeta-weighting                 0.500000
      * Dispersion:
        s8                             2.700000
        a1                             0.520000
        a2                             5.000000
        s9                             5.000000
      * Repulsion:
        kExp                           1.500000    1.000000
        rExp                           1.000000
      * Coulomb:
        alpha                          2.000000
        third order                    shell-resolved
        anisotropic                    true
        a3                             3.000000
        a5                             4.000000
        cn-shift                       1.200000
        cn-exp                         4.000000
        max-rad                        5.000000

      * Solvation model:               ALPB
        Solvent                        water
        Parameter file                 internal GFN2-xTB/ALPB
        Dielectric constant                8.0200E+01
        Reference state                gsolv [1 M gas/solution]
        Free energy shift                  1.0808E-03 Eh       6.7819E-01 kcal/mol
        Temperature                        2.9815E+02 K
        Density                            1.0000E+00 kg/L
        Solvent mass                       1.8000E+01 g/mol
        Interaction kernel             P16
        Born radius scaling (c1)           1.4744E+00
        Born radii integrator          GBOBC
        Born offset                        0.0000E+00 a0       0.0000E+00 AA
        H-bond correction              true
        Ion screening                  false
        Surface tension                    1.0000E-05 Eh       1.5569E+01 dyn/cm
        Grid points                               974 per atom

          ...................................................
          :                      SETUP                      :
          :.................................................:
          :  # basis functions                  46          :
          :  # atomic orbitals                  46          :
          :  # shells                           28          :
          :  # electrons                        48          :
          :  max. iterations                   250          :
          :  Hamiltonian                  GFN2-xTB          :
          :  restarted?                      false          :
          :  GBSA solvation                   true          :
          :  PC potential                    false          :
          :  electronic temp.          300.0000000     K    :
          :  accuracy                    1.0000000          :
          :  -> integral cutoff          0.2500000E+02      :
          :  -> integral neglect         0.1000000E-07      :
          :  -> SCF convergence          0.1000000E-05 Eh   :
          :  -> wf. convergence          0.1000000E-03 e    :
          :  Broyden damping             0.4000000          :
          :  net charge                          0          :
          :  unpaired electrons                  0          :
          ...................................................

 iter      E             dE          RMSdq      gap      omega  full diag
   1    -26.6757844 -0.266758E+02  0.407E+00    4.27       0.0  T
   2    -26.6890484 -0.132641E-01  0.236E+00    4.27       1.0  T
   3    -26.6866158  0.243263E-02  0.725E-01    4.17       1.0  T
   4    -26.6905295 -0.391374E-02  0.213E-01    4.23       1.0  T
   5    -26.6908214 -0.291822E-03  0.702E-02    4.25       1.0  T
   6    -26.6908322 -0.108586E-04  0.380E-02    4.24       1.0  T
   7    -26.6908365 -0.424100E-05  0.119E-02    4.24       1.9  T
   8    -26.6908369 -0.408129E-06  0.375E-03    4.24       6.1  T
   9    -26.6908369 -0.234554E-07  0.214E-03    4.24      10.7  T
  10    -26.6908369 -0.169551E-07  0.712E-04    4.24      32.2  T
  11    -26.6908369 -0.258903E-08  0.355E-04    4.24      64.5  T

   *** convergence criteria satisfied after 11 iterations ***

         #    Occupation            Energy/Eh            Energy/eV
      -------------------------------------------------------------
         1        2.0000           -0.7026973             -19.1214
       ...           ...                  ...                  ...
        18        2.0000           -0.4535653             -12.3421
        19        2.0000           -0.4503243             -12.2539
        20        2.0000           -0.4392105             -11.9515
        21        2.0000           -0.4252862             -11.5726
        22        2.0000           -0.4174527             -11.3595
        23        2.0000           -0.3953207             -10.7572
        24        2.0000           -0.3776632             -10.2767 (HOMO)
        25                         -0.2216941              -6.0326 (LUMO)
        26                         -0.2125331              -5.7833
        27                         -0.0927406              -2.5236
        28                          0.0565521               1.5389
        29                          0.0872926               2.3754
       ...                                ...                  ...
        46                          0.6390709              17.3900
      -------------------------------------------------------------
                  HL-Gap            0.1559691 Eh            4.2441 eV
             Fermi-level           -0.2996787 Eh           -8.1547 eV

 SCC (total)                   0 d,  0 h,  0 min,  0.026 sec
 SCC setup                      ...        0 min,  0.001 sec (  4.565%)
 Dispersion                     ...        0 min,  0.000 sec (  0.423%)
 classical contributions        ...        0 min,  0.000 sec (  0.093%)
 integral evaluation            ...        0 min,  0.002 sec (  6.631%)
 iterations                     ...        0 min,  0.018 sec ( 69.554%)
 molecular gradient             ...        0 min,  0.005 sec ( 18.184%)
 printout                       ...        0 min,  0.000 sec (  0.500%)

         :::::::::::::::::::::::::::::::::::::::::::::::::::::
         ::                     SUMMARY                     ::
         :::::::::::::::::::::::::::::::::::::::::::::::::::::
         :: total energy             -26.291752326973 Eh    ::
         :: total w/o Gsasa/hb       -26.289320885246 Eh    ::
         :: gradient norm              0.023984268102 Eh/a0 ::
         :: HOMO-LUMO gap              4.244135774795 eV    ::
         ::.................................................::
         :: SCC energy               -26.690774429401 Eh    ::
         :: -> isotropic ES            0.029343643109 Eh    ::
         :: -> anisotropic ES          0.004512545926 Eh    ::
         :: -> anisotropic XC          0.012500465265 Eh    ::
         :: -> dispersion             -0.014650495749 Eh    ::
         :: -> Gsolv                  -0.006323810984 Eh    ::
         ::    -> Gelec               -0.003892369258 Eh    ::
         ::    -> Gsasa               -0.000100587432 Eh    ::
         ::    -> Ghb                 -0.003411613993 Eh    ::
         ::    -> Gshift               0.001080759698 Eh    ::
         :: repulsion energy           0.399022102428 Eh    ::
         :: add. restraining           0.000000000000 Eh    ::
         :: total charge               0.000000000000 e     ::
         :::::::::::::::::::::::::::::::::::::::::::::::::::::

      ----------------------------------------------------------- 
     |                   =====================                   |
     |                        A N C O P T                        |
     |                   =====================                   |
     |               Approximate Normal Coordinate               |
     |                Rational Function Optimizer                |
      ----------------------------------------------------------- 
      ----------------------------------------------------------- 
     |                   =====================                   |
     |                        A N C O P T                        |
     |                   =====================                   |
     |               Approximate Normal Coordinate               |
     |                Rational Function Optimizer                |
      ----------------------------------------------------------- 

          ...................................................
          :                      SETUP                      :
          :.................................................:
          :   optimization level         verytight          :
          :   max. optcycles                   380          :
          :   ANC micro-cycles                  20          :
          :   degrees of freedom                51          :
          :.................................................:
          :   RF solver                   davidson          :
          :   write xtbopt.log                true          :
          :   linear?                        false          :
          :   energy convergence         0.1000000E-06 Eh   :
          :   grad. convergence          0.2000000E-03 Eh/α :
          :   maxmium RF displ.          1.0000000          :
          :   Hlow (freq-cutoff)         0.1000000E-01      :
          :   Hmax (freq-cutoff)         5.0000000          :
          :   S6 in model hess.         20.0000000          :
          ...................................................

generating ANC from exact Hessian ...
Using Lindh-Hessian (1995)
 Shifting diagonal of input Hessian by   7.661987320376119E-003
 Lowest  eigenvalues of input Hessian
    0.000000    0.000000    0.000000    0.000000    0.000000    0.000000
    0.010000    0.010749    0.013899    0.014850    0.019654    0.022293
    0.027763    0.031840    0.042863    0.048882    0.051829    0.054314
 Highest eigenvalues
    1.427379    1.586792    1.690325    1.859907    1.976924    2.013484
 

........................................................................
.............................. CYCLE    1 ..............................
........................................................................

 iter      E             dE          RMSdq      gap      omega  full diag
   1    -26.6908369 -0.266908E+02  0.112E-04    4.24       0.0  T
   2    -26.6908369 -0.207798E-10  0.766E-05    4.24     299.7  T
   3    -26.6908369 -0.318678E-11  0.363E-05    4.24     632.5  T
     SCC iter.                  ...        0 min,  0.001 sec
     gradient                   ...        0 min,  0.004 sec
 * total energy  :   -26.2917523 Eh     change       -0.4635545E-09 Eh
   gradient norm :     0.0239865 Eh/α   predicted     0.0000000E+00 (-100.00%)
   displ. norm   :     0.1054768 α      lambda       -0.1422629E-02
   maximum displ.:     0.0356350 α      in ANC's #30, #5, #8, ...

........................................................................
.............................. CYCLE    2 ..............................
........................................................................

 iter      E             dE          RMSdq      gap      omega  full diag
   1    -26.7065561 -0.267066E+02  0.106E-01    4.29       0.0  T
   2    -26.7065651 -0.896216E-05  0.606E-02    4.30       1.0  T
   3    -26.7065615  0.363865E-05  0.297E-02    4.30       1.0  T
   4    -26.7065679 -0.646934E-05  0.357E-03    4.30       6.4  T
   5    -26.7065680 -0.674036E-07  0.168E-03    4.30      13.6  T
   6    -26.7065680 -0.159549E-07  0.927E-04    4.30      24.8  T
   7    -26.7065680 -0.251940E-08  0.355E-04    4.30      64.6  T
     SCC iter.                  ...        0 min,  0.003 sec
     gradient                   ...        0 min,  0.004 sec
 * total energy  :   -26.2926285 Eh     change       -0.8761749E-03 Eh
   gradient norm :     0.0101836 Eh/α   predicted    -0.7192330E-03 ( -17.91%)
   displ. norm   :     0.0486208 α      lambda       -0.1687004E-03
   maximum displ.:     0.0210400 α      in ANC's #5, #4, #6, ...

........................................................................
.............................. CYCLE    3 ..............................
........................................................................

 iter      E             dE          RMSdq      gap      omega  full diag
   1    -26.7110423 -0.267110E+02  0.465E-02    4.31       0.0  T
   2    -26.7110468 -0.446970E-05  0.265E-02    4.31       1.0  T
   3    -26.7110472 -0.375049E-06  0.157E-02    4.31       1.5  T
   4    -26.7110482 -0.101283E-05  0.247E-03    4.31       9.3  T
   5    -26.7110482 -0.315314E-07  0.999E-04    4.31      23.0  T
   6    -26.7110482 -0.946438E-08  0.466E-04    4.31      49.2  T
     SCC iter.                  ...        0 min,  0.002 sec
     gradient                   ...        0 min,  0.004 sec
 * total energy  :   -26.2927269 Eh     change       -0.9842642E-04 Eh
   gradient norm :     0.0039317 Eh/α   predicted    -0.8476330E-04 ( -13.88%)
   displ. norm   :     0.0241615 α      lambda       -0.2311473E-04
   maximum displ.:     0.0148323 α      in ANC's #1, #6, #5, ...

........................................................................
.............................. CYCLE    4 ..............................
........................................................................

 iter      E             dE          RMSdq      gap      omega  full diag
   1    -26.7109543 -0.267110E+02  0.171E-02    4.31       0.0  T
   2    -26.7109552 -0.870964E-06  0.101E-02    4.31       2.3  T
   3    -26.7109554 -0.163759E-06  0.599E-03    4.31       3.8  T
   4    -26.7109555 -0.103358E-06  0.112E-03    4.31      20.4  T
   5    -26.7109555 -0.606910E-08  0.445E-04    4.31      51.6  T
   6    -26.7109555 -0.201856E-08  0.193E-04    4.31     119.1  T
     SCC iter.                  ...        0 min,  0.002 sec
     gradient                   ...        0 min,  0.004 sec
 * total energy  :   -26.2927434 Eh     change       -0.1651164E-04 Eh
   gradient norm :     0.0012982 Eh/α   predicted    -0.1226948E-04 ( -25.69%)
   displ. norm   :     0.0342726 α      lambda       -0.9192108E-05
   maximum displ.:     0.0261948 α      in ANC's #1, #6, #3, ...

........................................................................
.............................. CYCLE    5 ..............................
........................................................................

 iter      E             dE          RMSdq      gap      omega  full diag
   1    -26.7100186 -0.267100E+02  0.167E-02    4.30       0.0  T
   2    -26.7100192 -0.512060E-06  0.102E-02    4.31       2.3  T
   3    -26.7100192 -0.250307E-07  0.571E-03    4.31       4.0  T
   4    -26.7100193 -0.143328E-06  0.875E-04    4.31      26.2  T
   5    -26.7100193 -0.414766E-08  0.379E-04    4.31      60.6  T
     SCC iter.                  ...        0 min,  0.002 sec
     gradient                   ...        0 min,  0.004 sec
 * total energy  :   -26.2927494 Eh     change       -0.5962032E-05 Eh
   gradient norm :     0.0014159 Eh/α   predicted    -0.4599686E-05 ( -22.85%)
   displ. norm   :     0.0119330 α      lambda       -0.2044662E-05
   maximum displ.:     0.0088392 α      in ANC's #1, #3, #4, ...

........................................................................
.............................. CYCLE    6 ..............................
........................................................................

 iter      E             dE          RMSdq      gap      omega  full diag
   1    -26.7100757 -0.267101E+02  0.624E-03    4.31       0.0  T
   2    -26.7100758 -0.660663E-07  0.364E-03    4.31       6.3  T
   3    -26.7100758  0.233432E-08  0.203E-03    4.31      11.3  T
   4    -26.7100758 -0.202437E-07  0.335E-04    4.31      68.5  T
   5    -26.7100758 -0.576556E-09  0.118E-04    4.31     194.9  T
     SCC iter.                  ...        0 min,  0.002 sec
     gradient                   ...        0 min,  0.004 sec
 * total energy  :   -26.2927517 Eh     change       -0.2289160E-05 Eh
   gradient norm :     0.0006251 Eh/α   predicted    -0.1028503E-05 ( -55.07%)
   displ. norm   :     0.0214058 α      lambda       -0.1734881E-05
   maximum displ.:     0.0162875 α      in ANC's #1, #3, #4, ...

........................................................................
.............................. CYCLE    7 ..............................
........................................................................

 iter      E             dE          RMSdq      gap      omega  full diag
   1    -26.7103193 -0.267103E+02  0.839E-03    4.31       0.0  T
   2    -26.7103194 -0.576004E-07  0.495E-03    4.31       4.6  T
   3    -26.7103193  0.247355E-07  0.234E-03    4.31       9.8  T
   4    -26.7103194 -0.409745E-07  0.332E-04    4.31      69.0  T
   5    -26.7103194 -0.569127E-09  0.130E-04    4.31     176.8  T
     SCC iter.                  ...        0 min,  0.002 sec
     gradient                   ...        0 min,  0.004 sec
 * total energy  :   -26.2927532 Eh     change       -0.1539116E-05 Eh
   gradient norm :     0.0002418 Eh/α   predicted    -0.8683786E-06 ( -43.58%)
   displ. norm   :     0.0123638 α      lambda       -0.4086837E-06
   maximum displ.:     0.0095345 α      in ANC's #1, #3, #6, ...

........................................................................
.............................. CYCLE    8 ..............................
........................................................................

 iter      E             dE          RMSdq      gap      omega  full diag
   1    -26.7102920 -0.267103E+02  0.415E-03    4.31       0.0  T
   2    -26.7102920 -0.181332E-08  0.248E-03    4.31       9.2  T
   3    -26.7102920  0.225211E-08  0.490E-04    4.31      46.8  T
   4    -26.7102920 -0.313348E-08  0.927E-05    4.31     247.6  T
     SCC iter.                  ...        0 min,  0.001 sec
     gradient                   ...        0 min,  0.004 sec
 * total energy  :   -26.2927536 Eh     change       -0.3572844E-06 Eh
   gradient norm :     0.0001594 Eh/α   predicted    -0.2094830E-06 ( -41.37%)
   displ. norm   :     0.0051329 α      lambda       -0.1104353E-06
   maximum displ.:     0.0040578 α      in ANC's #1, #3, #6, ...

........................................................................
.............................. CYCLE    9 ..............................
........................................................................

 iter      E             dE          RMSdq      gap      omega  full diag
   1    -26.7102704 -0.267103E+02  0.200E-03    4.31       0.0  T
   2    -26.7102704 -0.250843E-09  0.119E-03    4.31      19.4  T
   3    -26.7102704 -0.367315E-10  0.616E-05    4.31     372.3  T
   4    -26.7102704 -0.293525E-10  0.322E-05    4.31     713.5  T
     SCC iter.                  ...        0 min,  0.001 sec
     gradient                   ...        0 min,  0.004 sec
 * total energy  :   -26.2927537 Eh     change       -0.1045957E-06 Eh
   gradient norm :     0.0000700 Eh/α   predicted    -0.5544049E-07 ( -47.00%)
   displ. norm   :     0.0033257 α      lambda        0.3669527E-07
   maximum displ.:     0.0025807 α      in ANC's #1, #3, #6, ...

........................................................................
.............................. CYCLE   10 ..............................
........................................................................

 iter      E             dE          RMSdq      gap      omega  full diag
   1    -26.7102475 -0.267102E+02  0.148E-03    4.31       0.0  T
   2    -26.7102475 -0.139440E-09  0.880E-04    4.31      26.1  T
   3    -26.7102475  0.317968E-11  0.602E-05    4.31     381.2  T
     SCC iter.                  ...        0 min,  0.001 sec
     gradient                   ...        0 min,  0.004 sec
 * total energy  :   -26.2927537 Eh     change        0.1813330E-07 Eh
   gradient norm :     0.0001202 Eh/α   predicted     0.1451955E-07 ( -19.93%)
   displ. norm   :     0.0015410 α      lambda       -0.4989323E-07
   maximum displ.:     0.0008041 α      in ANC's #4, #1, #11, ...

........................................................................
.............................. CYCLE   11 ..............................
........................................................................

 iter      E             dE          RMSdq      gap      omega  full diag
   1    -26.7102800 -0.267103E+02  0.104E-03    4.31       0.0  T
   2    -26.7102800 -0.221394E-09  0.617E-04    4.31      37.2  T
   3    -26.7102800  0.229019E-09  0.160E-04    4.31     143.3  T
     SCC iter.                  ...        0 min,  0.001 sec
     gradient                   ...        0 min,  0.004 sec
 * total energy  :   -26.2927537 Eh     change       -0.4601196E-07 Eh
   gradient norm :     0.0000335 Eh/α   predicted    -0.2557330E-07 ( -44.42%)
   displ. norm   :     0.0017595 α      lambda        0.1977863E-07
   maximum displ.:     0.0009742 α      in ANC's #4, #11, #1, ...

   *** GEOMETRY OPTIMIZATION CONVERGED AFTER 11 ITERATIONS ***

------------------------------------------------------------------------
 total energy gain   :        -0.0010014 Eh       -0.6284 kcal/mol
 total RMSD          :         0.0461323 a0        0.0244 Å
 total power (kW/mol):        -0.2390144 (step)  -26.5864 (real)
------------------------------------------------------------------------

 ANCopt (total)                0 d,  0 h,  0 min,  0.099 sec
 optimizer setup                ...        0 min,  0.000 sec (  0.330%)
 model hessian                  ...        0 min,  0.004 sec (  3.793%)
 ANC generation                 ...        0 min,  0.000 sec (  0.347%)
 coordinate transformation      ...        0 min,  0.000 sec (  0.064%)
 single point calculation       ...        0 min,  0.088 sec ( 89.430%)
 optimization log               ...        0 min,  0.005 sec (  5.076%)
 hessian update                 ...        0 min,  0.000 sec (  0.068%)
 rational function              ...        0 min,  0.000 sec (  0.456%)

================
 final structure:
================
$coord
       -4.99372372657976        1.16310668508730        1.43643018618562      C
       -3.48956996997443        1.18553060382809       -1.03698023757334      C
       -0.72110768058575        0.72858714260996       -0.55698670340348      C
        0.94017916297710        2.75363354552294       -0.40674832413887      C
        3.48082264195214        2.41171681817214        0.10080922849732      C
        4.40869401582235       -0.00575016907471        0.47291544881536      C
        2.79484744332884       -2.05119112753848        0.33380970123272      C
        0.23793948804786       -1.70312908858585       -0.17068983155126      C
       -1.22633222692856       -3.82328982765738       -0.25881035048764      O
       -4.34955684889949        2.68155708315141        2.66219185131066      H
       -4.74078376838940       -0.61124788834440        2.44281967519729      H
       -6.99602657451963        1.42856657429080        1.06066109450345      H
       -3.71396700658304        3.02427223127814       -1.94239061238751      H
       -4.25291632371585       -0.22928065227768       -2.33544333231538      H
        0.21509858407390        4.64021439221707       -0.69711022249135      H
        4.72874171052905        4.02115597806688        0.20453435867340      H
        6.38680436303558       -0.30345259295820        0.86998376025541      H
        3.46755303301878       -3.95515975622842        0.61679548937747      H
       -2.94384151382753       -3.40158164192851       -0.72835050618227      H
$end
 
 Bond Distances (Angstroems)
 ---------------------------
C1-C2=1.5319         C1-H10=1.0875        C1-H11=1.0877        C1-H12=1.0872        C2-C1=1.5319         C2-C3=1.5064         
C2-H13=1.0911        C2-H14=1.0935        C3-C2=1.5064         C3-C4=1.3883         C3-C8=1.3983         C4-C3=1.3883         
C4-C5=1.3829         C4-H15=1.0805        C5-C4=1.3829         C5-C6=1.3843         C5-H16=1.0791        C6-C5=1.3843         
C6-C7=1.3807         C6-H17=1.0792        C7-C6=1.3807         C7-C8=1.3914         C7-H18=1.0790        C8-C3=1.3983         
C8-C7=1.3914         C8-O9=1.3643         O9-C8=1.3643         O9-H19=0.9683        H10-C1=1.0875        H11-C1=1.0877        
H12-C1=1.0872        H13-C2=1.0911        H14-C2=1.0935        H15-C4=1.0805        H16-C5=1.0791        H17-C6=1.0792        
H18-C7=1.0790        H19-O9=0.9683        
 C  H  Rav=1.0850 sigma=0.0053  Rmin=1.0790  Rmax=1.0935     9
 C  C  Rav=1.4205 sigma=0.0575  Rmin=1.3807  Rmax=1.5319     8
 O  H  Rav=0.9683 sigma=0.0000  Rmin=0.9683  Rmax=0.9683     1
 O  C  Rav=1.3643 sigma=0.0000  Rmin=1.3643  Rmax=1.3643     1
 
 selected bond angles (degree)
 --------------------
H10-C1-C2=109.94               H11-C1-C2=111.17               H11-C1-H10=107.89              H12-C1-C2=110.43               
H12-C1-H10=108.61              H12-C1-H11=108.72              C3-C2-C1=111.10                H13-C2-C1=109.00               
H13-C2-C3=108.85               H14-C2-C1=109.85               H14-C2-C3=110.81               H14-C2-H13=107.12              
C4-C3-C2=120.10                C8-C3-C2=121.69                C8-C3-C4=118.17                C5-C4-C3=121.72                
H15-C4-C3=118.70               H15-C4-C5=119.59               C6-C5-C4=119.56                H16-C5-C4=120.10               
H16-C5-C6=120.33               C7-C6-C5=119.83                H17-C6-C5=120.44               H17-C6-C7=119.73               
C8-C7-C6=120.53                H18-C7-C6=121.37               H18-C7-C8=118.10               C7-C8-C3=120.19                
O9-C8-C3=123.07                O9-C8-C7=116.74                H19-O9-C8=110.63               
 
 selected dihedral angles (degree)
 ---------------------------------
C3-C2-C1-H10= 62.16           C3-C2-C1-H11=302.76           C3-C2-C1-H12=181.99           H13-C2-C1-H10=302.22          
H13-C2-C1-H11=182.82          H13-C2-C1-H12= 62.05          H14-C2-C1-H10=185.13          H14-C2-C1-H11= 65.73          
H14-C2-C1-H12=304.96          C4-C3-C2-C1=262.49            C4-C3-C2-H13= 22.52           C4-C3-C2-H14=140.07           
C8-C3-C2-C1= 80.39            C8-C3-C2-H13=200.41           C8-C3-C2-H14=317.97           C5-C4-C3-C2=178.18            
C5-C4-C3-C8=  0.21            H15-C4-C3-C2=358.15           H15-C4-C3-C8=180.18           C6-C5-C4-C3=359.96            
C6-C5-C4-H15=179.99           H16-C5-C4-C3=179.94           H16-C5-C4-H15=359.97          C7-C6-C5-C4=  0.02            
C7-C6-C5-H16=180.05           H17-C6-C5-C4=179.98           H17-C6-C5-H16=  0.00          C8-C7-C6-C5=359.81            
C8-C7-C6-H17=179.86           H18-C7-C6-C5=180.03           H18-C7-C6-H17=  0.08          C7-C8-C3-C2=181.69            
C7-C8-C3-C4=359.63            O9-C8-C3-C2=  1.64            O9-C8-C3-C4=179.57            C3-C8-C7-C6=  0.37            
C3-C8-C7-H18=180.15           O9-C8-C7-C6=180.42            O9-C8-C7-H18=  0.21           H19-O9-C8-C3=  3.81           
H19-O9-C8-C7=183.75           
           -------------------------------------------------
          |                Final Singlepoint                |
           -------------------------------------------------

          ...................................................
          :                      SETUP                      :
          :.................................................:
          :  # basis functions                  46          :
          :  # atomic orbitals                  46          :
          :  # shells                           28          :
          :  # electrons                        48          :
          :  max. iterations                   250          :
          :  Hamiltonian                  GFN2-xTB          :
          :  restarted?                      false          :
          :  GBSA solvation                   true          :
          :  PC potential                    false          :
          :  electronic temp.          300.0000000     K    :
          :  accuracy                    1.0000000          :
          :  -> integral cutoff          0.2500000E+02      :
          :  -> integral neglect         0.1000000E-07      :
          :  -> SCF convergence          0.1000000E-05 Eh   :
          :  -> wf. convergence          0.1000000E-03 e    :
          :  Broyden damping             0.4000000          :
          :  net charge                          0          :
          :  unpaired electrons                  0          :
          ...................................................

 iter      E             dE          RMSdq      gap      omega  full diag
   1    -26.7102800 -0.267103E+02  0.253E-05    4.31       0.0  T
   2    -26.7102800 -0.128964E-11  0.153E-05    4.31    1496.9  T
   3    -26.7102800 -0.344613E-12  0.953E-06    4.31    2408.5  T

   *** convergence criteria satisfied after 3 iterations ***

         #    Occupation            Energy/Eh            Energy/eV
      -------------------------------------------------------------
         1        2.0000           -0.7052612             -19.1911
       ...           ...                  ...                  ...
        18        2.0000           -0.4536874             -12.3455
        19        2.0000           -0.4513183             -12.2810
        20        2.0000           -0.4390636             -11.9475
        21        2.0000           -0.4247643             -11.5584
        22        2.0000           -0.4157830             -11.3140
        23        2.0000           -0.3956725             -10.7668
        24        2.0000           -0.3768283             -10.2540 (HOMO)
        25                         -0.2185220              -5.9463 (LUMO)
        26                         -0.2095428              -5.7019
        27                         -0.0868384              -2.3630
        28                          0.0644476               1.7537
        29                          0.0975355               2.6541
       ...                                ...                  ...
        46                          0.6661800              18.1277
      -------------------------------------------------------------
                  HL-Gap            0.1583064 Eh            4.3077 eV
             Fermi-level           -0.2976752 Eh           -8.1002 eV

 SCC (total)                   0 d,  0 h,  0 min,  0.008 sec
 SCC setup                      ...        0 min,  0.001 sec ( 12.148%)
 Dispersion                     ...        0 min,  0.000 sec (  0.740%)
 classical contributions        ...        0 min,  0.000 sec (  0.192%)
 integral evaluation            ...        0 min,  0.001 sec ( 18.694%)
 iterations                     ...        0 min,  0.001 sec ( 15.715%)
 molecular gradient             ...        0 min,  0.004 sec ( 51.055%)
 printout                       ...        0 min,  0.000 sec (  1.292%)

         :::::::::::::::::::::::::::::::::::::::::::::::::::::
         ::                     SUMMARY                     ::
         :::::::::::::::::::::::::::::::::::::::::::::::::::::
         :: total energy             -26.292753720834 Eh    ::
         :: total w/o Gsasa/hb       -26.290162388296 Eh    ::
         :: gradient norm              0.000033994230 Eh/a0 ::
         :: HOMO-LUMO gap              4.307735865964 eV    ::
         ::.................................................::
         :: SCC energy               -26.710217474587 Eh    ::
         :: -> isotropic ES            0.028895624627 Eh    ::
         :: -> anisotropic ES          0.004537456059 Eh    ::
         :: -> anisotropic XC          0.011777783785 Eh    ::
         :: -> dispersion             -0.014747605935 Eh    ::
         :: -> Gsolv                  -0.006444379193 Eh    ::
         ::    -> Gelec               -0.003853046656 Eh    ::
         ::    -> Gsasa               -0.000126340891 Eh    ::
         ::    -> Ghb                 -0.003545751344 Eh    ::
         ::    -> Gshift               0.001080759698 Eh    ::
         :: repulsion energy           0.417463753753 Eh    ::
         :: add. restraining           0.000000000000 Eh    ::
         :: total charge              -0.000000000000 e     ::
         :::::::::::::::::::::::::::::::::::::::::::::::::::::

           ------------------------------------------------- 
          |                Numerical Hessian                |
           ------------------------------------------------- 
step length          :   0.00500
SCC accuracy         :   0.30000
Hessian scale factor :   1.00000
frozen atoms in %    :   0.00000    0
RMS gradient         :   0.00003
estimated CPU  time      0.02 min
estimated wall time      0.02 min

writing file <hessian>.

 projected vibrational frequencies (cm⁻¹)
eigval :       -0.00     0.00     0.00     0.00     0.00     0.00
eigval :       70.71   114.92   193.57   209.64   308.97   328.96
eigval :      365.50   410.60   458.29   499.45   532.41   564.16
eigval :      688.76   760.57   782.36   812.59   835.90   875.57
eigval :      909.73   922.13  1008.26  1046.14  1077.37  1082.13
eigval :     1106.42  1143.42  1175.99  1199.97  1228.11  1264.47
eigval :     1270.85  1317.29  1336.08  1410.23  1442.17  1483.55
eigval :     1491.66  1496.94  1505.63  1586.21  1605.68  2945.34
eigval :     2990.40  3029.31  3032.52  3042.19  3070.55  3079.71
eigval :     3090.39  3100.98  3458.98
           -------------------------------------------------
          |                Property Printout                |
           -------------------------------------------------

    * Orbital Energies and Occupations

         #    Occupation            Energy/Eh            Energy/eV
      -------------------------------------------------------------
         1        2.0000           -0.7052611             -19.1911
       ...           ...                  ...                  ...
        12        2.0000           -0.5088944             -13.8477
        13        2.0000           -0.4983093             -13.5597
        14        2.0000           -0.4908007             -13.3554
        15        2.0000           -0.4775746             -12.9955
        16        2.0000           -0.4755465             -12.9403
        17        2.0000           -0.4705403             -12.8041
        18        2.0000           -0.4536874             -12.3455
        19        2.0000           -0.4513183             -12.2810
        20        2.0000           -0.4390636             -11.9475
        21        2.0000           -0.4247643             -11.5584
        22        2.0000           -0.4157830             -11.3140
        23        2.0000           -0.3956724             -10.7668
        24        2.0000           -0.3768283             -10.2540 (HOMO)
        25                         -0.2185219              -5.9463 (LUMO)
        26                         -0.2095428              -5.7019
        27                         -0.0868384              -2.3630
        28                          0.0644477               1.7537
        29                          0.0975355               2.6541
        30                          0.1179270               3.2090
        31                          0.1333762               3.6294
        32                          0.1435589               3.9064
        33                          0.1560680               4.2468
        34                          0.1859901               5.0610
        35                          0.1922321               5.2309
       ...                                ...                  ...
        46                          0.6661800              18.1277
      -------------------------------------------------------------
                  HL-Gap            0.1583064 Eh            4.3077 eV
             Fermi-level           -0.2976751 Eh           -8.1002 eV

     #   Z          covCN         q      C6AA      α(0)
     1   6 C        3.753    -0.110    22.661     6.788
     2   6 C        3.805    -0.061    21.661     6.626
     3   6 C        2.967    -0.027    28.665     8.782
     4   6 C        2.927    -0.045    29.130     8.851
     5   6 C        2.917    -0.050    29.249     8.869
     6   6 C        2.920    -0.041    29.013     8.833
     7   6 C        2.919    -0.064    29.595     8.921
     8   6 C        2.850     0.136    25.023     8.199
     9   8 O        1.659    -0.451    21.859     6.311
    10   1 H        0.925     0.040     2.453     2.449
    11   1 H        0.925     0.040     2.448     2.447
    12   1 H        0.925     0.045     2.390     2.417
    13   1 H        0.924     0.045     2.379     2.412
    14   1 H        0.924     0.038     2.469     2.457
    15   1 H        0.926     0.038     2.474     2.460
    16   1 H        0.926     0.035     2.521     2.483
    17   1 H        0.926     0.037     2.493     2.469
    18   1 H        0.926     0.043     2.412     2.429
    19   1 H        0.805     0.352     0.583     1.199

 Mol. C6AA /au·bohr⁶  :       3698.528124
 Mol. C8AA /au·bohr⁸  :      86892.613768
 Mol. α(0) /au        :         95.402679


Wiberg/Mayer (AO) data.
largest (>0.10) Wiberg bond orders for each atom

 ---------------------------------------------------------------------------
     #   Z sym  total        # sym  WBO       # sym  WBO       # sym  WBO
 ---------------------------------------------------------------------------
     1   6 C    3.995 --     2 C    1.002    10 H    0.988    11 H    0.987
                            12 H    0.986
     2   6 C    3.997 --     3 C    1.011     1 C    1.002    13 H    0.974
                            14 H    0.965
     3   6 C    3.986 --     4 C    1.421     8 C    1.347     2 C    1.011
                             6 C    0.104
     4   6 C    3.991 --     5 C    1.440     3 C    1.421    15 H    0.968
                             7 C    0.106
     5   6 C    3.991 --     4 C    1.440     6 C    1.429    16 H    0.971
     6   6 C    3.991 --     7 C    1.453     5 C    1.429    17 H    0.971
                             3 C    0.104
     7   6 C    3.989 --     6 C    1.453     8 C    1.373    18 H    0.969
                             4 C    0.106
     8   6 C    3.937 --     7 C    1.373     3 C    1.347     9 O    1.067
     9   8 O    2.080 --     8 C    1.067    19 H    0.847
    10   1 H    0.998 --     1 C    0.988
    11   1 H    0.998 --     1 C    0.987
    12   1 H    0.997 --     1 C    0.986
    13   1 H    0.998 --     2 C    0.974
    14   1 H    0.998 --     2 C    0.965
    15   1 H    0.999 --     4 C    0.968
    16   1 H    0.999 --     5 C    0.971
    17   1 H    0.998 --     6 C    0.971
    18   1 H    0.998 --     7 C    0.969
    19   1 H    0.876 --     9 O    0.847
 ---------------------------------------------------------------------------

Topologies differ in total number of bonds
Writing topology from bond orders to xtbtopo.mol

molecular dipole:
                 x           y           z       tot (Debye)
 q only:       -0.700       0.369      -0.159
   full:       -0.815       0.453      -0.191       2.419
molecular quadrupole (traceless):
                xx          xy          yy          xz          yz          zz
 q only:        4.668       1.298      -3.283       1.198       0.431      -1.385
  q+dip:        6.538       1.066      -2.316       2.723       0.151      -4.222
   full:        5.774       1.279      -3.700       1.933       0.468      -2.074

           -------------------------------------------------
          |                Geometry Summary                 |
           -------------------------------------------------

      molecular mass/u    :      122.1646996
   center of mass at/Å    :        0.0000397       0.0000900       0.0004442
  moments of inertia/u·Å² :        0.1900944E+03   0.3480182E+03   0.4962290E+03
rotational constants/cm⁻¹ :        0.8868031E-01   0.4843894E-01   0.3397148E-01

 * 18 selected distances

     #   Z          #   Z                                           value/Å
     1   6 C        2   6 C                                       1.5319422 (max)
     3   6 C        4   6 C                                       1.3883476
     4   6 C        5   6 C                                       1.3829044
     5   6 C        6   6 C                                       1.3843377
     6   6 C        7   6 C                                       1.3807045
     3   6 C        8   6 C                                       1.3982943
     7   6 C        8   6 C                                       1.3913886
     8   6 C        9   8 O                                       1.3643067
     1   6 C       10   1 H                                       1.0874733
     1   6 C       11   1 H                                       1.0877306
     1   6 C       12   1 H                                       1.0871841
     2   6 C       13   1 H                                       1.0910671
     2   6 C       14   1 H                                       1.0935413
     4   6 C       15   1 H                                       1.0805120
     5   6 C       16   1 H                                       1.0791007
     6   6 C       17   1 H                                       1.0792116
     7   6 C       18   1 H                                       1.0790170
     9   8 O       19   1 H                                       0.9682851 (min)

 * 4 distinct bonds (by element types)

   Z      Z             #   av. dist./Å        max./Å        min./Å
   1 H    6 C           9     1.0849820     1.0935413     1.0790170
   6 C    6 C           7     1.4082742     1.5319422     1.3807045
   1 H    8 O           1     0.9682851     0.9682851     0.9682851
   6 C    8 O           1     1.3643067     1.3643067     1.3643067

           -------------------------------------------------
          |               Frequency Printout                |
           -------------------------------------------------
 projected vibrational frequencies (cm⁻¹)
eigval :       -0.00     0.00     0.00     0.00     0.00     0.00
eigval :       70.71   114.92   193.57   209.64   308.97   328.96
eigval :      365.50   410.60   458.29   499.45   532.41   564.16
eigval :      688.76   760.57   782.36   812.59   835.90   875.57
eigval :      909.73   922.13  1008.26  1046.14  1077.37  1082.13
eigval :     1106.42  1143.42  1175.99  1199.97  1228.11  1264.47
eigval :     1270.85  1317.29  1336.08  1410.23  1442.17  1483.55
eigval :     1491.66  1496.94  1505.63  1586.21  1605.68  2945.34
eigval :     2990.40  3029.31  3032.52  3042.19  3070.55  3079.71
eigval :     3090.39  3100.98  3458.98
 reduced masses (amu)
   1: 11.78   2: 10.32   3: 10.83   4: 10.89   5: 11.05   6: 12.42   7:  9.12   8:  9.59
   9:  3.05  10:  9.73  11:  9.79  12:  7.86  13:  3.77  14: 10.69  15:  9.68  16: 10.54
  17: 10.62  18: 11.02  19: 11.44  20: 10.25  21:  3.49  22:  7.61  23:  6.44  24:  3.49
  25:  3.93  26:  3.03  27:  6.66  28:  4.73  29:  7.34  30:  6.73  31:  4.07  32:  5.41
  33:  1.79  34:  6.64  35:  3.98  36:  8.12  37:  4.13  38:  5.65  39: 10.65  40:  3.01
  41:  9.25  42:  9.31  43:  1.77  44:  2.01  45:  1.96  46: 11.54  47: 11.52  48:  1.82
  49:  1.63  50:  1.93  51:  1.92  52:  1.30  53:  1.78  54:  1.78  55:  1.86  56:  1.90
  57:  1.86
 IR intensities (km·mol⁻¹)
   1:  0.09   2:  0.48   3:  0.34   4:  0.42   5:  0.02   6:  0.04   7:  1.22   8:  0.25
   9:  0.45  10:  0.69  11:  0.66  12: 39.64  13:148.88  14:  9.28  15:  1.43  16:  1.07
  17:  0.90  18:  2.30  19:  3.31  20: 26.25  21: 33.18  22:  4.30  23: 31.24  24:  0.79
  25:  1.35  26:  0.06  27:  7.16  28:  6.52  29: 24.60  30: 20.03  31: 63.01  32:267.80
  33:  4.46  34: 97.36  35:  2.61  36:109.43  37: 63.20  38:  7.48  39: 13.25  40:  0.20
  41: 26.19  42:115.92  43:  8.07  44:  3.25  45:  3.63  46: 67.71  47: 18.93  48: 73.51
  49: 46.33  50: 70.29  51: 79.48  52: 35.22  53: 47.38  54: 46.79  55:162.51  56: 89.21
  57:162.96
 Raman intensities (Ä⁴*amu⁻¹)
   1:  0.00   2:  0.00   3:  0.00   4:  0.00   5:  0.00   6:  0.00   7:  0.00   8:  0.00
   9:  0.00  10:  0.00  11:  0.00  12:  0.00  13:  0.00  14:  0.00  15:  0.00  16:  0.00
  17:  0.00  18:  0.00  19:  0.00  20:  0.00  21:  0.00  22:  0.00  23:  0.00  24:  0.00
  25:  0.00  26:  0.00  27:  0.00  28:  0.00  29:  0.00  30:  0.00  31:  0.00  32:  0.00
  33:  0.00  34:  0.00  35:  0.00  36:  0.00  37:  0.00  38:  0.00  39:  0.00  40:  0.00
  41:  0.00  42:  0.00  43:  0.00  44:  0.00  45:  0.00  46:  0.00  47:  0.00  48:  0.00
  49:  0.00  50:  0.00  51:  0.00  52:  0.00  53:  0.00  54:  0.00  55:  0.00  56:  0.00
  57:  0.00
 output can be read by thermo (or use thermo option).
 writing <g98.out> molden fake output.
 recommended (thermochemical) frequency scaling factor: 1.0
           -------------------------------------------------
          |             Thermodynamic Functions             |
           -------------------------------------------------

Molecule has no symmetry elements
It seems to be the C1 point group
c1  symmetry found (for desy threshold:  0.10E+00) used in thermo

          ...................................................
          :                      SETUP                      :
          :.................................................:
          :  # frequencies                          51      :
          :  # imaginary freq.                       0      :
          :  linear?                             false      :
          :  only rotor calc.                    false      :
          :  symmetry                               c1      :
          :  rotational number                       1      :
          :  scaling factor                  1.0000000      :
          :  rotor cutoff                    0.0000000 cm⁻¹ :
          :  imag. cutoff                 -100.0000000 cm⁻¹ :
          :.................................................:

    mode    ω/cm⁻¹     T·S(HO)/kcal·mol⁻¹    T·S(FR)/kcal·mol⁻¹   T·S(vib)
   ------------------------------------------------------------------------
       1     70.71    -1.23238 (100.00%)    -0.95367 (  0.00%)    -1.23238
       2    114.92    -0.94934 (100.00%)    -0.80990 (  0.00%)    -0.94934
       3    193.57    -0.65395 (100.00%)    -0.65548 (  0.00%)    -0.65395
       4    209.64    -0.61024 (100.00%)    -0.63185 (  0.00%)    -0.61024
   ------------------------------------------------------------------------

   temp. (K)  partition function   enthalpy   heat capacity  entropy
                                   cal/mol     cal/K/mol   cal/K/mol   J/K/mol
 298.15  VIB   85.1                 3648.561     27.325     21.067
         ROT  0.438E+06              888.752      2.981     28.794
         INT  0.372E+08             4537.313     30.305     49.861
         TR   0.131E+28             1481.254      4.968     40.296
         TOT                        6018.5674    35.2736    90.1578   377.2202

       T/K    H(0)-H(T)+PV         H(T)/Eh          T*S/Eh         G(T)/Eh
   ------------------------------------------------------------------------
    298.15    0.959120E-02    0.166247E+00    0.428369E-01    0.123410E+00
   ------------------------------------------------------------------------

         :::::::::::::::::::::::::::::::::::::::::::::::::::::
         ::                  THERMODYNAMIC                  ::
         :::::::::::::::::::::::::::::::::::::::::::::::::::::
         :: total free energy         -26.169344039631 Eh   ::
         ::.................................................::
         :: total energy              -26.292753720883 Eh   ::
         :: zero point energy           0.156655354511 Eh   ::
         :: G(RRHO) w/o ZPVE           -0.033245673260 Eh   ::
         :: G(RRHO) contrib.            0.123409681252 Eh   ::
         :::::::::::::::::::::::::::::::::::::::::::::::::::::

optimized geometry written to: xtbopt.coord


           -------------------------------------------------
          | TOTAL ENERGY              -26.292753720883 Eh   |
          | TOTAL ENTHALPY            -26.126507168750 Eh   |
          | TOTAL FREE ENERGY         -26.169344039631 Eh   |
          | GRADIENT NORM               0.000034051839 Eh/α |
          | HOMO-LUMO GAP               4.307735971432 eV   |
           -------------------------------------------------

------------------------------------------------------------------------
 * finished run on 2025/04/05 at 03:15:18.417     
------------------------------------------------------------------------
 total:
 * wall-time:     0 d,  0 h,  0 min,  1.228 sec
 *  cpu-time:     0 d,  0 h,  0 min,  1.148 sec
 * ratio c/w:     0.934 speedup
 SCF:
 * wall-time:     0 d,  0 h,  0 min,  0.026 sec
 *  cpu-time:     0 d,  0 h,  0 min,  0.014 sec
 * ratio c/w:     0.547 speedup
 ANC optimizer:
 * wall-time:     0 d,  0 h,  0 min,  0.119 sec
 *  cpu-time:     0 d,  0 h,  0 min,  0.104 sec
 * ratio c/w:     0.870 speedup
 analytical hessian:
 * wall-time:     0 d,  0 h,  0 min,  1.028 sec
 *  cpu-time:     0 d,  0 h,  0 min,  1.018 sec
 * ratio c/w:     0.990 speedup

