
                                 *****************
                                 * O   R   C   A *
                                 *****************

                                            #,                                       
                                            ###                                      
                                            ####                                     
                                            #####                                    
                                            ######                                   
                                           ########,                                 
                                     ,,################,,,,,                         
                               ,,#################################,,                 
                          ,,##########################################,,             
                       ,#########################################, ''#####,          
                    ,#############################################,,   '####,        
                  ,##################################################,,,,####,       
                ,###########''''           ''''###############################       
              ,#####''   ,,,,##########,,,,          '''####'''          '####       
            ,##' ,,,,###########################,,,                        '##       
           ' ,,###''''                  '''############,,,                           
         ,,##''                                '''############,,,,        ,,,,,,###''
      ,#''                                            '''#######################'''  
     '                                                          ''''####''''         
             ,#######,   #######,   ,#######,      ##                                
            ,#'     '#,  ##    ##  ,#'     '#,    #''#        ,####,   ,####,        
            ##       ##  ##   ,#'  ##            #'  '#       #'       #'  '#        
            ##       ##  #######   ##           ,######,      #####,   #    #        
            '#,     ,#'  ##    ##  '#,     ,#' ,#      #,     #,   #   #,  ,#        
             '#######'   ##     ##  '#######'  #'      '#     '####' # '####'        



                #########################################################
                #                        -***-                          #
                #          Department of theory and spectroscopy        #
                #                                                       #
                #                      Frank Neese                      #
                #                                                       #
                #     Directorship, Architecture, Infrastructure        #
                #                    SHARK, DRIVERS                     #
                #        Core code/Algorithms in most modules           #
                #                                                       #
                #        Max Planck Institute fuer Kohlenforschung      #
                #                Kaiser Wilhelm Platz 1                 #
                #                 D-45470 Muelheim/Ruhr                 #
                #                      Germany                          #
                #                                                       #
                #                  All rights reserved                  #
                #                        -***-                          #
                #########################################################


                         Program Version 6.0.0  -   RELEASE  -


 With contributions from (in alphabetic order):
   Daniel Aravena         : Magnetic Suceptibility
   Michael Atanasov       : Ab Initio Ligand Field Theory (pilot matlab implementation)
   Alexander A. Auer      : GIAO ZORA, VPT2 properties, NMR spectrum
   Ute Becker             : All parallelization in ORCA, NUMFREQ, NUMCALC
   Giovanni Bistoni       : ED, misc. LED, open-shell LED, HFLD
   Martin Brehm           : Molecular dynamics
   Dmytro Bykov           : pre 5.0 version of the SCF Hessian
   Marcos Casanova-Páez   : Triplet and SCS-CIS(D). UHF-(DLPNO)-IP/EA/STEOM-CCSD. UHF-CVS-IP/STEOM-CCSD
   Vijay G. Chilkuri      : MRCI spin determinant printing, contributions to CSF-ICE
   Pauline Colinet        : FMM embedding
   Dipayan Datta          : RHF DLPNO-CCSD density
   Achintya Kumar Dutta   : EOM-CC, STEOM-CC
   Nicolas Foglia         : Exact transition moments, OPA infrastructure, MCD improvements
   Dmitry Ganyushin       : Spin-Orbit,Spin-Spin,Magnetic field MRCI
   Miquel Garcia          : C-PCM and meta-GGA Hessian, CCSD/C-PCM, Gaussian charge scheme
   Tiago L. C. Gouveia    : GS-ROHF, GS-ROCIS
   Yang Guo               : DLPNO-NEVPT2, F12-NEVPT2, CIM, IAO-localization
   Andreas Hansen         : Spin unrestricted coupled pair/coupled cluster methods
   Ingolf Harden          : AUTO-CI MPn and infrastructure 
   Benjamin Helmich-Paris : MC-RPA, TRAH-(SCF,CASSCF), AVAS, COSX integrals, SCF dyn. polar.
   Lee Huntington         : MR-EOM, pCC
   Robert Izsak           : Overlap fitted RIJCOSX, COSX-SCS-MP3, EOM
   Riya Kayal             : Wick's Theorem for AUTO-CI, AUTO-CI UHF-CCSDT
   Emily Kempfer          : AUTO-CI, RHF CISDT and CCSDT
   Christian Kollmar      : KDIIS, OOCD, Brueckner-CCSD(T), CCSD density, CASPT2, CASPT2-K, improved NEVPT2
   Axel Koslowski         : Symmetry handling
   Simone Kossmann        : Meta GGA functionals, TD-DFT gradient, OOMP2, (MP2 Hessian; deprecated post 5.0)
   Lucas Lang             : DCDCAS
   Marvin Lechner         : AUTO-CI (C++ implementation), FIC-MRCC
   Spencer Leger          : CASSCF response
   Dagmar Lenk            : GEPOL surface, SMD, ORCA-2-JSON
   Dimitrios Liakos       : Extrapolation schemes; Compound Job, initial MDCI parallelization
   Dimitrios Manganas     : Further ROCIS development; embedding schemes. LFT, Crystal Embedding
   Dimitrios Pantazis     : SARC Basis sets
   Anastasios Papadopoulos: AUTO-CI, single reference methods and gradients
   Taras Petrenko         : pre 6.0 DFT Hessian and TD-DFT gradient, (ASA, deprecated), ECA, 1-Electron XAS/XES, NRVS
   Peter Pinski           : DLPNO-MP2, DLPNO-MP2 Gradient
   Christoph Reimann      : Effective Core Potentials
   Marius Retegan         : Local ZFS, SOC
   Christoph Riplinger    : Optimizer, TS searches, QM/MM, DLPNO-CCSD(T), (RO)-DLPNO pert. Triples
   Michael Roemelt        : Original ROCIS implementation
   Masaaki Saitow         : Open-shell DLPNO-CCSD energy and density
   Barbara Sandhoefer     : DKH picture change effects
   Kantharuban Sivalingam : CASSCF convergence/infrastructure, NEVPT2 and variants, FIC-MRCI
   Bernardo de Souza      : ESD, SOC TD-DFT
   Georgi Stoychev        : AutoAux, RI-MP2 NMR, DLPNO-MP2 response, X2C
   Van Anh Tran           : RI-MP2 g-tensors
   Willem Van den Heuvel  : Paramagnetic NMR
   Zikuan Wang            : NOTCH, Electric field optimization 
   Frank Wennmohs         : Technical directorship and infrastructure
   Hang Xu                : AUTO-CI-Response properties 


 We gratefully acknowledge several colleagues who have allowed us to
 interface, adapt or use parts of their codes:
   Stefan Grimme, W. Hujo, H. Kruse, P. Pracht,  : VdW corrections, initial TS optimization,
                  C. Bannwarth, S. Ehlert,         DFT functionals, gCP, sTDA/sTD-DF
                  L. Wittmann, M. Mueller
   Ed Valeev, F. Pavosevic, A. Kumar             : LibInt (2-el integral package), F12 methods
   Garnet Chan, S. Sharma, J. Yang, R. Olivares  : DMRG
   Ulf Ekstrom                                   : XCFun DFT Library
   Mihaly Kallay                                 : mrcc  (arbitrary order and MRCC methods)
   Frank Weinhold                                : gennbo (NPA and NBO analysis)
   Simon Mueller                                 : openCOSMO-RS
   Christopher J. Cramer and Donald G. Truhlar   : smd solvation model
   Lars Goerigk                                  : TD-DFT with DH, B97 family of functionals
   V. Asgeirsson, H. Jonsson                     : NEB implementation
   FAccTs GmbH                                   : IRC, NEB, NEB-TS, DLPNO-Multilevel, CI-OPT
                                                   MM, QMMM, 2- and 3-layer-ONIOM, Crystal-QMMM,
                                                   LR-CPCM, SF, NACMEs, symmetry and pop. for TD-DFT,
                                                   nearIR, NL-DFT gradient (VV10), updates on ESD,
                                                   ML-optimized integration grids, MBIS, APM,
                                                   GOAT, DOCKER, SOLVATOR, interface openCOSMO-RS
   S Lehtola, MJT Oliveira, MAL Marques          : LibXC Library
   Liviu Ungur et al                             : ANISO software


 Your calculation uses the libint2 library for the computation of 2-el integrals
 For citations please refer to: http://libint.valeyev.net

 Your ORCA version has been built with support for libXC version: 6.2.2
 For citations please refer to: https://libxc.gitlab.io

 This ORCA versions uses:
   CBLAS   interface :  Fast vector & matrix operations
   LAPACKE interface :  Fast linear algebra routines
   SCALAPACK package :  Parallel linear algebra routines
   Shared memory     :  Shared parallel matrices
   BLAS/LAPACK       :  OpenBLAS 0.3.27  USE64BITINT DYNAMIC_ARCH NO_AFFINITY SkylakeX SINGLE_THREADED
        Core in use  :  SkylakeX
   Copyright (c) 2011-2014, The OpenBLAS Project


Your calculation utilizes the geometrical counterpoise correction gCP
Please cite in your paper:
H.Kruse, S. Grimme J.Chem.Phys., 136, (2012), 154101 
   

Your calculation utilizes the DFT-NL dispersion correction.
Cite in your paper:
Vydrov, O. A.; Van Voorhis, T. J. Chem. Phys. 2010, 133, 244103
Hujo, W.; Grimme, S. J. Chem. Theory Comput. 2011, 7, 3866 
   

Your calculation utilizes the SMD solvation module
Please cite in your paper:
A.V. Marenich, C.J. Cramer, D.G. Truhlar J. Phys. Chem. B, 113, (2009), 6378 

================================================================================

----- Orbital basis set information -----
Your calculation utilizes the basis: def2-TZVP
   F. Weigend and R. Ahlrichs, Phys. Chem. Chem. Phys. 7, 3297 (2005).

----- AuxJ basis set information -----
Your calculation utilizes the auxiliary basis: def2/J
   F. Weigend, Phys. Chem. Chem. Phys. 8, 1057 (2006).

================================================================================
                                        WARNINGS
                       Please study these warnings very carefully!
================================================================================


================================================================================
                                       INPUT FILE
================================================================================
NAME = sp_solv.inp
|  1> ! wb97x-v def2-tzvp def2/J RIJCOSX DEFGRID2 scfconv7 GCP(DFT/TZ) printgap
|  2> %output
|  3>     printlevel normal
|  4> end
|  5> %cpcm
|  6>     smd true
|  7>     smdsolvent "water"
|  8> end
|  9> * xyz 0 1
| 10> C 1.2575931081628606 1.4920792061029078 -0.15169279852500359
| 11> C 0.7004074314298236 0.10535429469741593 -0.4425532904868353
| 12> C 1.5024806319801618 -0.990932080869403 0.28119153892727317
| 13> C -0.7678654908181044 -0.0161422339618497 -0.09013459382719485
| 14> O -1.3888547439661465 0.9070871860096711 0.4287320664194577
| 15> C -1.4425338589806114 -1.3279182082986452 -0.3777495366758427
| 16> H 1.2290547608613835 1.7066434454651416 0.9215171490056018
| 17> H 2.2986236599892673 1.551360964156763 -0.4821225628169165
| 18> H 0.688991269888662 2.270219032103729 -0.6687188394709587
| 19> H 0.7597711846925731 -0.09934303245666774 -1.5219956620059467
| 20> H 1.1769859541031071 -1.9948333957860476 -0.002464381758585116
| 21> H 1.4006398227295598 -0.8858245275411191 1.3667097267508919
| 22> H 2.5619155405132177 -0.894332851586787 0.026978781641910334
| 23> H -2.5186546506322967 -1.1814185790061156 -0.4883986907516703
| 24> H -1.2743855448931947 -1.9954343593287858 0.47690987264357537
| 25> H -1.0251652216552123 -1.8172597277670526 -1.2613079423132902
| 26> *
| 27> 
| 28>                          ****END OF INPUT****
================================================================================

                       ****************************
                       * Single Point Calculation *
                       ****************************

---------------------------------
CARTESIAN COORDINATES (ANGSTROEM)
---------------------------------
  C      1.257593    1.492079   -0.151693
  C      0.700407    0.105354   -0.442553
  C      1.502481   -0.990932    0.281192
  C     -0.767865   -0.016142   -0.090135
  O     -1.388855    0.907087    0.428732
  C     -1.442534   -1.327918   -0.377750
  H      1.229055    1.706643    0.921517
  H      2.298624    1.551361   -0.482123
  H      0.688991    2.270219   -0.668719
  H      0.759771   -0.099343   -1.521996
  H      1.176986   -1.994833   -0.002464
  H      1.400640   -0.885825    1.366710
  H      2.561916   -0.894333    0.026979
  H     -2.518655   -1.181419   -0.488399
  H     -1.274386   -1.995434    0.476910
  H     -1.025165   -1.817260   -1.261308

----------------------------
CARTESIAN COORDINATES (A.U.)
----------------------------
  NO LB      ZA    FRAG     MASS         X           Y           Z
   0 C     6.0000    0    12.011    2.376507    2.819621   -0.286658
   1 C     6.0000    0    12.011    1.323578    0.199091   -0.836305
   2 C     6.0000    0    12.011    2.839277   -1.872590    0.531375
   3 C     6.0000    0    12.011   -1.451055   -0.030504   -0.170330
   4 O     8.0000    0    15.999   -2.624555    1.714146    0.810186
   5 C     6.0000    0    12.011   -2.725994   -2.509402   -0.713843
   6 H     1.0000    0     1.008    2.322577    3.225089    1.741415
   7 H     1.0000    0     1.008    4.343769    2.931647   -0.911080
   8 H     1.0000    0     1.008    1.302005    4.290092   -1.263695
   9 H     1.0000    0     1.008    1.435759   -0.187731   -2.876155
  10 H     1.0000    0     1.008    2.224181   -3.769689   -0.004657
  11 H     1.0000    0     1.008    2.646826   -1.673966    2.582707
  12 H     1.0000    0     1.008    4.841319   -1.690044    0.050983
  13 H     1.0000    0     1.008   -4.759568   -2.232558   -0.922940
  14 H     1.0000    0     1.008   -2.408240   -3.770824    0.901229
  15 H     1.0000    0     1.008   -1.937282   -3.434123   -2.383527

--------------------------------
INTERNAL COORDINATES (ANGSTROEM)
--------------------------------
 C      0   0   0     0.000000000000     0.00000000     0.00000000
 C      1   0   0     1.522518204835     0.00000000     0.00000000
 C      2   1   0     1.539146456449   111.60473319     0.00000000
 C      2   1   3     1.514855015649   112.53924534   123.96080784
 O      4   2   1     1.227681891021   121.88919867   356.89329949
 C      4   2   1     1.502882553361   117.42549182   177.94491743
 H      1   2   3     1.094820460879   110.86887187   300.34757074
 H      1   2   3     1.093820262111   109.87405752    59.75007671
 H      1   2   3     1.093675256332   111.55883599   179.82817151
 H      2   1   3     1.100282183977   109.70172665   240.96572689
 H      3   2   1     1.092806166142   112.15123457   185.95876972
 H      3   2   1     1.095339620525   110.43890964    64.77567528
 H      3   2   1     1.093781450969   109.42413629   305.80419843
 H      6   4   2     1.091669059242   110.16877134   203.80579999
 H      6   4   2     1.097403468809   108.24573019    85.73079077
 H      6   4   2     1.092852761478   111.96918021   327.55291983

---------------------------
INTERNAL COORDINATES (A.U.)
---------------------------
 C      0   0   0     0.000000000000     0.00000000     0.00000000
 C      1   0   0     2.877142441047     0.00000000     0.00000000
 C      2   1   0     2.908565282683   111.60473319     0.00000000
 C      2   1   3     2.862661112174   112.53924534   123.96080784
 O      4   2   1     2.319982553605   121.88919867   356.89329949
 C      4   2   1     2.840036437300   117.42549182   177.94491743
 H      1   2   3     2.068910836874   110.86887187   300.34757074
 H      1   2   3     2.067020735123   109.87405752    59.75007671
 H      1   2   3     2.066746713914   111.55883599   179.82817151
 H      2   1   3     2.079231997748   109.70172665   240.96572689
 H      3   2   1     2.065104371469   112.15123457   185.95876972
 H      3   2   1     2.069891906425   110.43890964    64.77567528
 H      3   2   1     2.066947392694   109.42413629   305.80419843
 H      6   4   2     2.062955550842   110.16877134   203.80579999
 H      6   4   2     2.073792014465   108.24573019    85.73079077
 H      6   4   2     2.065192423894   111.96918021   327.55291983

---------------------
BASIS SET INFORMATION
---------------------
There are 3 groups of distinct atoms

 Group   1 Type C   : 11s6p2d1f contracted to 5s3p2d1f pattern {62111/411/11/1}
 Group   2 Type O   : 11s6p2d1f contracted to 5s3p2d1f pattern {62111/411/11/1}
 Group   3 Type H   : 5s1p contracted to 3s1p pattern {311/1}

Atom   0C    basis set group =>   1
Atom   1C    basis set group =>   1
Atom   2C    basis set group =>   1
Atom   3C    basis set group =>   1
Atom   4O    basis set group =>   2
Atom   5C    basis set group =>   1
Atom   6H    basis set group =>   3
Atom   7H    basis set group =>   3
Atom   8H    basis set group =>   3
Atom   9H    basis set group =>   3
Atom  10H    basis set group =>   3
Atom  11H    basis set group =>   3
Atom  12H    basis set group =>   3
Atom  13H    basis set group =>   3
Atom  14H    basis set group =>   3
Atom  15H    basis set group =>   3
---------------------------------
AUXILIARY/J BASIS SET INFORMATION
---------------------------------
There are 3 groups of distinct atoms

 Group   1 Type C   : 12s5p4d2f1g contracted to 6s4p3d1f1g pattern {711111/2111/211/2/1}
 Group   2 Type O   : 12s5p4d2f1g contracted to 6s4p3d1f1g pattern {711111/2111/211/2/1}
 Group   3 Type H   : 5s2p1d contracted to 3s1p1d pattern {311/2/1}

Atom   0C    basis set group =>   1
Atom   1C    basis set group =>   1
Atom   2C    basis set group =>   1
Atom   3C    basis set group =>   1
Atom   4O    basis set group =>   2
Atom   5C    basis set group =>   1
Atom   6H    basis set group =>   3
Atom   7H    basis set group =>   3
Atom   8H    basis set group =>   3
Atom   9H    basis set group =>   3
Atom  10H    basis set group =>   3
Atom  11H    basis set group =>   3
Atom  12H    basis set group =>   3
Atom  13H    basis set group =>   3
Atom  14H    basis set group =>   3
Atom  15H    basis set group =>   3

Checking for AutoStart:
The File: sp_solv.gbw exists
Trying to determine its content:
     ... Fine, the file contains calculation information
     ... Fine, the calculation information was read
     ... Fine, the file contains a basis set
     ... Fine, the basis set was read
     ... Fine, the file contains a geometry
     ... Fine, the geometry was read
     ... Fine, the file contains a set of orbitals
     ... Fine, the orbitals can be read
     => possible old guess file was deleted
     => GBW file was renamed to GES file
     => GES file is set as startup file
     => Guess is set to MORead
     ... now leaving AutoStart

------------------------------------------------------------------------------
                             ORCA STARTUP CALCULATIONS
                           -- RI-GTO INTEGRALS CHOSEN --
------------------------------------------------------------------------------
------------------------------------------------------------------------------
                   ___                                                        
                  /   \      - P O W E R E D   B Y -                         
                 /     \                                                     
                 |  |  |   _    _      __       _____    __    __             
                 |  |  |  | |  | |    /  \     |  _  \  |  |  /  |          
                  \  \/   | |  | |   /    \    | | | |  |  | /  /          
                 / \  \   | |__| |  /  /\  \   | |_| |  |  |/  /          
                |  |  |   |  __  | /  /__\  \  |    /   |      \           
                |  |  |   | |  | | |   __   |  |    \   |  |\   \          
                \     /   | |  | | |  |  |  |  | |\  \  |  | \   \       
                 \___/    |_|  |_| |__|  |__|  |_| \__\ |__|  \__/        
                                                                              
                      - O R C A' S   B I G   F R I E N D -                    
                                      &                                       
                       - I N T E G R A L  F E E D E R -                       
                                                                              
 v1 FN, 2020, v2 2021, v3 2022-2024                                           
------------------------------------------------------------------------------


----------------------
SHARK INTEGRAL PACKAGE
----------------------

Number of atoms                             ...     16
Number of basis functions                   ...    246
Number of shells                            ...    106
Maximum angular momentum                    ...      3
Integral batch strategy                     ... SHARK/LIBINT Hybrid
RI-J (if used) integral strategy            ... SPLIT-RIJ (Revised 2003 algorithm where possible)
Printlevel                                  ...      1
Contraction scheme used                     ... SEGMENTED contraction
Prescreening option                         ... SCHWARTZ
   Thresh                                   ... 3.000e-11
   Tcut                                     ... 1.000e-12
   Tpresel                                  ... 1.000e-12 
Coulomb Range Separation                    ... NOT USED
Exchange Range Separation                   ... Long Range
   Mu parameter                             ... 3.000e-01
   Scaling (regular/separated)              ... 1.670e-01 8.330e-01
Multipole approximations                    ... NOT USED
Finite Nucleus Model                        ... NOT USED
CABS basis                                  ... NOT available
Auxiliary Coulomb fitting basis             ... AVAILABLE
   # of basis functions in Aux-J            ...    404
   # of shells in Aux-J                     ...    140
   Maximum angular momentum in Aux-J        ...      4
Auxiliary J/K fitting basis                 ... NOT available
Auxiliary Correlation fitting basis         ... NOT available
Auxiliary 'external' fitting basis          ... NOT available

Checking pre-screening integrals            ... done (  0.0 sec) Dimension = 106
Check shell pair data                       ... done (  0.0 sec)
Shell pair information
Shell pair cut-off parameter TPreSel        ...   1.0e-12
Total number of shell pairs                 ...      5671
Shell pairs after pre-screening             ...      5409
Total number of primitive shell pairs       ...     16452
Primitive shell pairs kept                  ...     12307
          la=0 lb=0:   1694 shell pairs
          la=1 lb=0:   1606 shell pairs
          la=1 lb=1:    396 shell pairs
          la=2 lb=0:    694 shell pairs
          la=2 lb=1:    333 shell pairs
          la=2 lb=2:     78 shell pairs
          la=3 lb=0:    348 shell pairs
          la=3 lb=1:    167 shell pairs
          la=3 lb=2:     72 shell pairs
          la=3 lb=3:     21 shell pairs

Calculating one electron integrals          ... done (  0.0 sec)
Calculating RI/J V-Matrix + Cholesky decomp.... done (  0.1 sec)
Calculating Nuclear repulsion               ... done (  0.0 sec) ENN=    245.160419903504 Eh

Diagonalization of the overlap matrix:
Smallest eigenvalue                        ... 1.728e-04
Time for diagonalization                   ...    0.005 sec
Threshold for overlap eigenvalues          ... 1.000e-07
Number of eigenvalues below threshold      ... 0
Time for construction of square roots      ...    0.016 sec
Total time needed                          ...    0.029 sec

-------------------
DFT GRID GENERATION
-------------------

General Integration Accuracy     IntAcc      ... 4.388
Radial Grid Type                 RadialGrid  ... OptM3 with GC (2021)
Angular Grid (max. ang.)         AngularGrid ... 4 (Lebedev-302)
Angular grid pruning method      GridPruning ... 4 (adaptive)
Weight generation scheme         WeightScheme... mBecke (2022)
Basis function cutoff            BFCut       ... 1.0000e-11
Integration weight cutoff        WCut        ... 1.0000e-14
Partially contracted basis set               ... off
Rotationally invariant grid construction     ... off
Angular grids for H and He will be reduced by one unit

Total number of grid points                  ...    68281
Total number of batches                      ...     1075
Average number of points per batch           ...       63
Average number of grid points per atom       ...     4268

--------------------
COSX GRID GENERATION
--------------------

GRIDX 1
-------
General Integration Accuracy     IntAcc      ... 3.816
Radial Grid Type                 RadialGrid  ... OptM3 with GC (2021)
Angular Grid (max. ang.)         AngularGrid ... 1 (Lebedev-50)
Angular grid pruning method      GridPruning ... 4 (adaptive)
Weight generation scheme         WeightScheme... mBecke (2022)
Basis function cutoff            BFCut       ... 1.0000e-11
Integration weight cutoff        WCut        ... 1.0000e-14
Partially contracted basis set               ... on
Rotationally invariant grid construction     ... off
Angular grids for H and He will be reduced by one unit

Total number of grid points                  ...     8767
Total number of batches                      ...       78
Average number of points per batch           ...      112
Average number of grid points per atom       ...      548
UseSFitting                                  ... on

GRIDX 2
-------
General Integration Accuracy     IntAcc      ... 4.020
Radial Grid Type                 RadialGrid  ... OptM3 with GC (2021)
Angular Grid (max. ang.)         AngularGrid ... 2 (Lebedev-110)
Angular grid pruning method      GridPruning ... 4 (adaptive)
Weight generation scheme         WeightScheme... mBecke (2022)
Basis function cutoff            BFCut       ... 1.0000e-11
Integration weight cutoff        WCut        ... 1.0000e-14
Partially contracted basis set               ... on
Rotationally invariant grid construction     ... off
Angular grids for H and He will be reduced by one unit

Total number of grid points                  ...    18430
Total number of batches                      ...      154
Average number of points per batch           ...      119
Average number of grid points per atom       ...     1152
UseSFitting                                  ... on

GRIDX 3
-------
General Integration Accuracy     IntAcc      ... 4.338
Radial Grid Type                 RadialGrid  ... OptM3 with GC (2021)
Angular Grid (max. ang.)         AngularGrid ... 3 (Lebedev-194)
Angular grid pruning method      GridPruning ... 4 (adaptive)
Weight generation scheme         WeightScheme... mBecke (2022)
Basis function cutoff            BFCut       ... 1.0000e-11
Integration weight cutoff        WCut        ... 1.0000e-14
Partially contracted basis set               ... on
Rotationally invariant grid construction     ... off
Angular grids for H and He will be reduced by one unit

Total number of grid points                  ...    40273
Total number of batches                      ...      323
Average number of points per batch           ...      124
Average number of grid points per atom       ...     2517
UseSFitting                                  ... on
Initializing property integral containers    ... done (  0.0 sec)

SHARK setup successfully completed in   1.7 seconds

Maximum memory used throughout the entire STARTUP-calculation: 37.6 MB
-------------------------------------------------------------------------------
                                 ORCA GUESS
                   Start orbitals & Density for SCF / CASSCF
-------------------------------------------------------------------------------

------------
SCF SETTINGS
------------
Hamiltonian:
 Density Functional     Method          .... DFT(GTOs)
 Exchange Functional    Exchange        .... WB97X-V
 Correlation Functional Correlation     .... WB97X-V
 Gradients option       PostSCFGGA      .... off
 Hybrid DFT is turned on
   Fraction HF Exchange ScalHFX         ....  0.167000
   Scaling of DF-GGA-X  ScalDFX         ....  0.000000
   Scaling of DF-GGA-C  ScalDFC         ....  1.000000
   Scaling of DF-LDA-C  ScalLDAC        ....  1.000000
   Perturbative correction              ....  0.000000
 Long-range corrected/Screened/Range-Separated Hybrid DFT is turned on
   Amount of maximum screened exact exchange              ....  0.833000
   Range separation parameter mu (erf(mu*r12)/r12)        ....  0.300000
   NL short-range parameter             ....  6.000000
   NL long-range parameter              ....  0.010000
 RI-approximation to the Coulomb term is turned on
   Number of AuxJ basis functions       .... 404
   RIJ-COSX (HFX calculated with COS-X)).... on


General Settings:
 Integral files         IntName         .... sp_solv
 Hartree-Fock type      HFTyp           .... RHF
 Total Charge           Charge          ....    0
 Multiplicity           Mult            ....    1
 Number of Electrons    NEL             ....   48
 Basis Dimension        Dim             ....  246
 Nuclear Repulsion      ENuc            ....    245.1604199035 Eh

Convergence Acceleration:
 AO-DIIS                CNVDIIS         .... on
   Start iteration      DIISMaxIt       ....    12
   Startup error        DIISStart       ....  0.200000
   # of expansion vecs  DIISMaxEq       ....     5
   Bias factor          DIISBfac        ....   1.050
   Max. coefficient     DIISMaxC        ....  10.000
 MO-DIIS                CNVKDIIS        .... off
 Trust-Rad. Augm. Hess. CNVTRAH         .... auto
   Auto Start mean grad. ratio tolernc. ....  1.125000
   Auto Start start iteration           ....     1
   Auto Start num. interpolation iter.  ....    10
   Max. Number of Micro iterations      ....    24
   Max. Number of Macro iterations      .... Maxiter - #DIIS iter
   Number of Davidson start vectors     ....     2
   Converg. threshold    (grad. norm)   ....   1.000e-04
   Grad. Scal. Fac. for Micro threshold ....   0.100
   Minimum threshold for Micro iter.    ....   1.000e-02
   NR start threshold (gradient norm)   ....   1.000e-04
   Initial trust radius                 ....   0.400
   Minimum AH scaling param. (alpha)    ....   1.000
   Maximum AH scaling param. (alpha)    .... 1000.000
   Quad. conv. algorithm                .... NR
   White noise on init. David. guess    .... on
   Maximum white noise                  ....   0.010
   Pseudo random numbers                .... off
   Inactive MOs                         .... canonical
   Orbital update algorithm             .... Taylor
   Preconditioner                       .... Diag
   Full preconditioner red. dimension   ....   250
 SOSCF                  CNVSOSCF        .... on
   Start iteration      SOSCFMaxIt      ....   150
   Startup grad/error   SOSCFStart      ....  0.003300
   Hessian update       SOSCFHessUp     .... L-BFGS
 Level Shifting         CNVShift        .... on
   Level shift para.    LevelShift      ....    0.2500
   Turn off err/grad.   ShiftErr        ....    0.0010
 Zerner damping         CNVZerner       .... off
 Static damping         CNVDamp         .... on
   Fraction old density DampFac         ....    0.7000
   Max. Damping (<1)    DampMax         ....    0.9800
   Min. Damping (>=0)   DampMin         ....    0.0000
   Turn off err/grad.   DampErr         ....    0.1000

SCF Procedure:
 Maximum # iterations   MaxIter         ....   125
 SCF integral mode      SCFMode         .... Direct
   Integral package                     .... SHARK and LIBINT hybrid scheme
 Reset frequency        DirectResetFreq ....    20
 Integral Threshold     Thresh          ....  3.000e-11 Eh
 Primitive CutOff       TCut            ....  1.000e-12 Eh

Convergence Tolerance:
 Convergence Check Mode ConvCheckMode   .... Total+1el-Energy
 Convergence forced     ConvForced      .... 0
 Energy Change          TolE            ....  1.000e-07 Eh
 1-El. energy change                    ....  1.000e-04 Eh
 Orbital Gradient       TolG            ....  1.000e-04
 Orbital Rotation angle TolX            ....  1.000e-04
 DIIS Error             TolErr          ....  1.000e-07

---------------------
INITIAL GUESS: MOREAD
---------------------
Guess MOs are being read from file: sp_solv.ges
Input Geometry matches current geometry (good)
Atom 0: N(Shells)= 11 and 9 - projection required
Input basis set needs projection
NBasis(read)= 169
NBasis(calc)= 246
Basis set overlap was calculated
Using GuessMode=FMatrix for the initial guess
C*T matrix was formed
Effective Fockian was calculated
Effective Fockian was diagonalized
Initial density was built
                      ------------------
                      INITIAL GUESS DONE (   0.0 sec)
                      ------------------
             **** ENERGY FILE WAS UPDATED (sp_solv.en.tmp) ****
Finished Guess after   0.3 sec
Maximum memory used throughout the entire GUESS-calculation: 20.4 MB

-------------------------------------------------------------------------------------------
                                      ORCA LEAN-SCF
                              memory conserving SCF solver
-------------------------------------------------------------------------------------------

--------------------
CPCM SOLVATION MODEL
--------------------
CPCM parameters:
  Epsilon                                         ...      78.3550
  Refrac                                          ...       1.3328
  Rsolv                                           ...       1.3000
  Surface type                                    ... GAUSSIAN VDW
  Discretization scheme                           ... Constant charge density
    Threshold for H atoms                         ...       5.0000 (charges/Ang^2)
    Threshold for non-H atoms                     ...       5.0000 (charges/Ang^2)
  Epsilon function type                           ...         CPCM
Solvent:                                          ... WATER
SMD-CDS solvent descriptors:
  Soln                                            ...       1.3328
  Soln25                                          ...       1.3323
  Sola                                            ...       0.0000
  Solb                                            ...       0.0000
  Solg                                            ...       0.0000
  Solc                                            ...       0.0000
  Solh                                            ...       0.0000
Radii:
  Scheme                                          ... Element-dependent radii
  Radius for C  used is    3.4960 Bohr (=   1.8500 Ang.)
  Radius for O  used is    2.8724 Bohr (=   1.5200 Ang.)
  Radius for H  used is    2.2677 Bohr (=   1.2000 Ang.)
Calculating surface                               ...        done! (  0.0s)
Cavity surface points                             ...         1192
Cavity Volume                                     ...     702.7649
Cavity Surface-area                               ...     471.7411
Calculating surface distance matrix               ...        done! (  0.0s)
Performing Cholesky decomposition & store         ...        done! (  0.1s)
Overall time for CPCM initialization              ...                 0.1s

----------------------------------------D-I-I-S--------------------------------------------
Iteration    Energy (Eh)           Delta-E    RMSDP     MaxDP     DIISErr   Damp  Time(sec)
-------------------------------------------------------------------------------------------
               ***  Starting incremental Fock matrix formation  ***
    1    -271.9902753929152368     0.00e+00  9.63e-04  4.52e-02  4.79e-02  0.700  10.9
    2    -271.9936891489321624    -3.41e-03  8.39e-04  3.81e-02  3.35e-02  0.700   5.8
                               ***Turning on AO-DIIS***
    3    -271.9962917954076147    -2.60e-03  7.01e-04  3.11e-02  2.34e-02  0.700   6.0
    4    -271.9982226105278187    -1.93e-03  1.75e-03  7.76e-02  1.63e-02  0.000   6.1
                              *** Initializing SOSCF ***
---------------------------------------S-O-S-C-F--------------------------------------
Iteration    Energy (Eh)           Delta-E    RMSDP     MaxDP     MaxGrad    Time(sec)
--------------------------------------------------------------------------------------
    5    -272.0032059894138001    -4.98e-03  7.61e-05  3.02e-03  1.14e-03     6.3
               *** Restarting incremental Fock matrix formation ***
    6    -272.0032190445602964    -1.31e-05  3.84e-05  2.33e-03  4.41e-04    12.0
    7    -272.0032237991908914    -4.75e-06  1.75e-05  9.11e-04  1.86e-04     9.5
    8    -272.0032244543897377    -6.55e-07  2.98e-06  1.01e-04  4.92e-05     9.2
    9    -272.0032244858756485    -3.15e-08  2.18e-06  1.46e-04  4.35e-05     8.2
                 **** Energy Check signals convergence ****

               *****************************************************
               *                     SUCCESS                       *
               *           SCF CONVERGED AFTER   9 CYCLES          *
               *****************************************************


------------------
NL GRID GENERATION
------------------

General Integration Accuracy     IntAcc      ... 4.004
Radial Grid Type                 RadialGrid  ... OptM3 with GC (2021)
Angular Grid (max. ang.)         AngularGrid ... 2 (Lebedev-110)
Angular grid pruning method      GridPruning ... 4 (adaptive)
Weight generation scheme         WeightScheme... mBecke (2022)
Basis function cutoff            BFCut       ... 1.0000e-10
Integration weight cutoff        WCut        ... 1.0000e-14
Partially contracted basis set               ... off
Rotationally invariant grid construction     ... off
Angular grids for H and He will be reduced by one unit

Total number of grid points                  ...    20512
Total number of batches                      ...      329
Average number of points per batch           ...       62
Average number of grid points per atom       ...     1282
Final grid set up in    0.3 sec

-------------------------------------------------------------------------------
                    post-SCF DFT-NL dispersion correction                      
-------------------------------------------------------------------------------

SCF Energy:     -272.003224486 
NL    Energy:      0.184803175 
SC+NL Energy:   -271.818421311 
NL done in  :              1.8 sec
-------------------------------------------------------------------------------
Recomputing exchange energy using gridx3       ... done (   19.214 sec)
Old exchange energy                            :    -12.548148228 Eh
New exchange energy                            :    -12.548139133 Eh
Exchange energy change after final integration :      0.000009095 Eh
Total energy after final integration           :   -271.818412217 Eh

SMD CDS free energy correction energy :                 4.06901     Kcal/mol
Total Energy after SMD CDS correction =              -271.811927833 Eh
             **** ENERGY FILE WAS UPDATED (sp_solv.en.tmp) ****

----------------
TOTAL SCF ENERGY
----------------

Total Energy       :       -271.81192783281432 Eh           -7396.37858 eV

Components:
Nuclear Repulsion  :        245.16041990350405 Eh            6671.15418 eV
Electronic Energy  :       -517.14568306985041 Eh          -14072.24946 eV
One Electron Energy:       -852.56834116456116 Eh          -23199.56401 eV
Two Electron Energy:        335.42265809471075 Eh            9127.31455 eV
CPCM Dielectric    :         -0.01796131952925 Eh              -0.48875 eV
SMD CDS (Gcds)     :          0.00648438395238 Eh               0.17645 eV

Virial components:
Potential Energy   :       -542.46629245861254 Eh          -14761.25827 eV
Kinetic Energy     :        270.65436462579828 Eh            7364.87968 eV
Virial Ratio       :          2.00427690574514

DFT components:
N(Alpha)           :       24.000002726188 electrons
N(Beta)            :       24.000002726188 electrons
N(Total)           :       48.000005452375 electrons
E(X)               :      -25.121509648440 Eh       
E(C)               :       -1.943213864819 Eh       
NL Energy, E(C,NL) :        0.184803174559 Eh       
E(XC)              :      -26.879920338700 Eh       

CPCM Solvation Model Properties:
Surface-charge          :         -0.04718070179065
Corrected charge        :          0.00000000000000
Outlying charge corr.   :          0.00018806736801 Eh               0.00512 eV
Free-energy (cav+disp)  :          0.00648438395238 Eh               0.17645 eV

---------------
SCF CONVERGENCE
---------------

  Last Energy change         ...    3.1486e-08  Tolerance :   1.0000e-07
  Last MAX-Density change    ...    1.4634e-04  Tolerance :   1.0000e-05
  Last RMS-Density change    ...    2.1808e-06  Tolerance :   1.0000e-06
  Last DIIS Error            ...    1.1382e-03  Tolerance :   1.0000e-07
  Last Orbital Gradient      ...    4.3532e-05  Tolerance :   1.0000e-04
  Last Orbital Rotation      ...    4.1982e-05  Tolerance :   1.0000e-04


----------------
ORBITAL ENERGIES
----------------

  NO   OCC          E(Eh)            E(eV) 
   0   2.0000     -21.667036      -589.5900 
   1   2.0000     -12.141689      -330.3922 
   2   2.0000     -12.053548      -327.9937 
   3   2.0000     -12.038569      -327.5861 
   4   2.0000     -12.034333      -327.4708 
   5   2.0000     -12.027731      -327.2912 
   6   2.0000      -1.713729       -46.6329 
   7   2.0000      -1.318168       -35.8692 
   8   2.0000      -1.242568       -33.8120 
   9   2.0000      -1.173996       -31.9461 
  10   2.0000      -1.123167       -30.5629 
  11   2.0000      -1.068855       -29.0850 
  12   2.0000      -0.967828       -26.3359 
  13   2.0000      -0.948895       -25.8208 
  14   2.0000      -0.921980       -25.0884 
  15   2.0000      -0.872217       -23.7342 
  16   2.0000      -0.840984       -22.8843 
  17   2.0000      -0.834781       -22.7156 
  18   2.0000      -0.822365       -22.3777 
  19   2.0000      -0.820245       -22.3200 
  20   2.0000      -0.804745       -21.8982 
  21   2.0000      -0.781812       -21.2742 
  22   2.0000      -0.772997       -21.0343 
  23   2.0000      -0.758771       -20.6472 
  24   0.0000      -0.304005        -8.2724 
  25   0.0000      -0.046489        -1.2650 
  26   0.0000      -0.032829        -0.8933 
  27   0.0000      -0.009986        -0.2717 
  28   0.0000      -0.004502        -0.1225 
  29   0.0000       0.016344         0.4448 
  30   0.0000       0.032404         0.8818 
  31   0.0000       0.039476         1.0742 
  32   0.0000       0.049619         1.3502 
  33   0.0000       0.055411         1.5078 
  34   0.0000       0.069488         1.8909 
*Only the first 10 virtual orbitals were printed.

                    ********************************
                    * MULLIKEN POPULATION ANALYSIS *
                    ********************************

-----------------------
MULLIKEN ATOMIC CHARGES
-----------------------
   0 C :   -0.407523
   1 C :    0.013005
   2 C :   -0.417938
   3 C :    0.274470
   4 O :   -0.458784
   5 C :   -0.411886
   6 H :    0.124714
   7 H :    0.134772
   8 H :    0.132277
   9 H :    0.119552
  10 H :    0.145344
  11 H :    0.133964
  12 H :    0.138457
  13 H :    0.149792
  14 H :    0.170793
  15 H :    0.158991
Sum of atomic charges:    0.0000000

--------------------------------
MULLIKEN REDUCED ORBITAL CHARGES
--------------------------------
  0 C s       :     3.258866  s :     3.258866
      pz      :     1.066086  p :     3.086583
      px      :     1.066676
      py      :     0.953822
      dz2     :     0.013084  d :     0.058583
      dxz     :     0.004092
      dyz     :     0.014677
      dx2y2   :     0.014680
      dxy     :     0.012050
      f0      :     0.000938  f :     0.003491
      f+1     :     0.000065
      f-1     :     0.000375
      f+2     :     0.000247
      f-2     :     0.000270
      f+3     :     0.000921
      f-3     :     0.000674

  1 C s       :     3.059930  s :     3.059930
      pz      :     0.974580  p :     2.786346
      px      :     0.885799
      py      :     0.925968
      dz2     :     0.031817  d :     0.133257
      dxz     :     0.010721
      dyz     :     0.022852
      dx2y2   :     0.040372
      dxy     :     0.027494
      f0      :     0.001000  f :     0.007463
      f+1     :     0.000566
      f-1     :     0.000956
      f+2     :     0.000920
      f-2     :     0.000664
      f+3     :     0.001368
      f-3     :     0.001988

  2 C s       :     3.263968  s :     3.263968
      pz      :     1.040333  p :     3.092307
      px      :     1.044538
      py      :     1.007436
      dz2     :     0.022213  d :     0.058261
      dxz     :     0.004305
      dyz     :     0.005876
      dx2y2   :     0.018393
      dxy     :     0.007474
      f0      :     0.000777  f :     0.003402
      f+1     :     0.000315
      f-1     :     0.000510
      f+2     :     0.000304
      f-2     :     0.000213
      f+3     :     0.000745
      f-3     :     0.000538

  3 C s       :     3.172023  s :     3.172023
      pz      :     0.641583  p :     2.341813
      px      :     0.907210
      py      :     0.793020
      dz2     :     0.023673  d :     0.194119
      dxz     :     0.028526
      dyz     :     0.033042
      dx2y2   :     0.067276
      dxy     :     0.041601
      f0      :     0.000993  f :     0.017576
      f+1     :     0.001601
      f-1     :     0.002352
      f+2     :     0.002716
      f-2     :     0.002047
      f+3     :     0.002396
      f-3     :     0.005471

  4 O s       :     3.802799  s :     3.802799
      pz      :     1.391274  p :     4.624573
      px      :     1.705656
      py      :     1.527643
      dz2     :     0.005131  d :     0.029609
      dxz     :     0.003822
      dyz     :     0.006561
      dx2y2   :     0.006632
      dxy     :     0.007463
      f0      :     0.000076  f :     0.001803
      f+1     :     0.000134
      f-1     :     0.000292
      f+2     :     0.000209
      f-2     :     0.000344
      f+3     :     0.000368
      f-3     :     0.000379

  5 C s       :     3.252704  s :     3.252704
      pz      :     1.079075  p :     3.109143
      px      :     1.060521
      py      :     0.969547
      dz2     :     0.007016  d :     0.046835
      dxz     :     0.004621
      dyz     :     0.012363
      dx2y2   :     0.012605
      dxy     :     0.010230
      f0      :     0.000157  f :     0.003205
      f+1     :     0.000283
      f-1     :     0.000797
      f+2     :     0.000297
      f-2     :     0.000199
      f+3     :     0.000800
      f-3     :     0.000672

  6 H s       :     0.854428  s :     0.854428
      pz      :     0.012186  p :     0.020858
      px      :     0.004176
      py      :     0.004497

  7 H s       :     0.844256  s :     0.844256
      pz      :     0.004879  p :     0.020973
      px      :     0.011885
      py      :     0.004208

  8 H s       :     0.846707  s :     0.846707
      pz      :     0.005900  p :     0.021016
      px      :     0.006381
      py      :     0.008736

  9 H s       :     0.858758  s :     0.858758
      pz      :     0.013207  p :     0.021690
      px      :     0.004075
      py      :     0.004409

 10 H s       :     0.833491  s :     0.833491
      pz      :     0.004597  p :     0.021165
      px      :     0.004882
      py      :     0.011685

 11 H s       :     0.845322  s :     0.845322
      pz      :     0.012528  p :     0.020714
      px      :     0.004111
      py      :     0.004075

 12 H s       :     0.840479  s :     0.840479
      pz      :     0.004494  p :     0.021064
      px      :     0.012407
      py      :     0.004164

 13 H s       :     0.829014  s :     0.829014
      pz      :     0.004163  p :     0.021193
      px      :     0.013087
      py      :     0.003943

 14 H s       :     0.807666  s :     0.807666
      pz      :     0.009325  p :     0.021540
      px      :     0.004333
      py      :     0.007882

 15 H s       :     0.819840  s :     0.819840
      pz      :     0.009847  p :     0.021169
      px      :     0.005071
      py      :     0.006251


------------------------
MULLIKEN OVERLAP CHARGES
------------------------
B(  0-C ,  1-C ) :   0.5660 B(  0-C ,  2-C ) :  -0.0739 B(  0-C ,  3-C ) :  -0.0821 
B(  0-C ,  6-H ) :   0.8126 B(  0-C ,  7-H ) :   0.8397 B(  0-C ,  8-H ) :   0.8361 
B(  0-C ,  9-H ) :  -0.0612 B(  1-C ,  2-C ) :   0.5299 B(  1-C ,  3-C ) :   0.4871 
B(  1-C ,  4-O ) :  -0.2879 B(  1-C ,  5-C ) :  -0.2599 B(  1-C ,  7-H ) :  -0.0899 
B(  1-C ,  8-H ) :  -0.0877 B(  1-C ,  9-H ) :   0.7951 B(  1-C , 10-H ) :  -0.0658 
B(  1-C , 11-H ) :  -0.0735 B(  1-C , 12-H ) :  -0.0667 B(  2-C ,  9-H ) :  -0.0776 
B(  2-C , 10-H ) :   0.8265 B(  2-C , 11-H ) :   0.8112 B(  2-C , 12-H ) :   0.8228 
B(  3-C ,  4-O ) :   1.2741 B(  3-C ,  5-C ) :   0.7317 B(  3-C , 13-H ) :  -0.0726 
B(  3-C , 15-H ) :  -0.0956 B(  4-O ,  5-C ) :  -0.1743 B(  5-C , 13-H ) :   0.8000 
B(  5-C , 14-H ) :   0.7658 B(  5-C , 15-H ) :   0.8081 


                     *******************************
                     * LOEWDIN POPULATION ANALYSIS *
                     *******************************

----------------------
LOEWDIN ATOMIC CHARGES
----------------------
   0 C :   -0.283593
   1 C :   -0.273564
   2 C :   -0.266973
   3 C :   -0.294701
   4 O :    0.029516
   5 C :   -0.256043
   6 H :    0.123574
   7 H :    0.125189
   8 H :    0.122346
   9 H :    0.172177
  10 H :    0.125202
  11 H :    0.126512
  12 H :    0.126845
  13 H :    0.133547
  14 H :    0.150645
  15 H :    0.139320

-------------------------------
LOEWDIN REDUCED ORBITAL CHARGES
-------------------------------
  0 C s       :     2.822656  s :     2.822656
      pz      :     1.073163  p :     3.174143
      px      :     1.065604
      py      :     1.035376
      dz2     :     0.057401  d :     0.261916
      dxz     :     0.018810
      dyz     :     0.058603
      dx2y2   :     0.069833
      dxy     :     0.057269
      f0      :     0.004224  f :     0.024878
      f+1     :     0.000901
      f-1     :     0.002505
      f+2     :     0.003639
      f-2     :     0.004232
      f+3     :     0.004944
      f-3     :     0.004435

  1 C s       :     2.732208  s :     2.732208
      pz      :     0.993388  p :     2.992973
      px      :     0.986348
      py      :     1.013238
      dz2     :     0.116985  d :     0.497454
      dxz     :     0.048451
      dyz     :     0.078070
      dx2y2   :     0.139762
      dxy     :     0.114187
      f0      :     0.005589  f :     0.050928
      f+1     :     0.004238
      f-1     :     0.005911
      f+2     :     0.007985
      f-2     :     0.006687
      f+3     :     0.008302
      f-3     :     0.012216

  2 C s       :     2.824290  s :     2.824290
      pz      :     1.066593  p :     3.160804
      px      :     1.050966
      py      :     1.043244
      dz2     :     0.086394  d :     0.257735
      dxz     :     0.020441
      dyz     :     0.030391
      dx2y2   :     0.084499
      dxy     :     0.036010
      f0      :     0.003034  f :     0.024144
      f+1     :     0.002501
      f-1     :     0.003335
      f+2     :     0.004117
      f-2     :     0.003846
      f+3     :     0.004055
      f-3     :     0.003256

  3 C s       :     2.773982  s :     2.773982
      pz      :     0.685801  p :     2.646613
      px      :     0.995390
      py      :     0.965422
      dz2     :     0.081286  d :     0.764473
      dxz     :     0.110850
      dyz     :     0.124731
      dx2y2   :     0.250133
      dxy     :     0.197473
      f0      :     0.007101  f :     0.109633
      f+1     :     0.007766
      f-1     :     0.011279
      f+2     :     0.017013
      f-2     :     0.015235
      f+3     :     0.014632
      f-3     :     0.036607

  4 O s       :     3.401733  s :     3.401733
      pz      :     1.343671  p :     4.497973
      px      :     1.615823
      py      :     1.538478
      dz2     :     0.005933  d :     0.065159
      dxz     :     0.008407
      dyz     :     0.013052
      dx2y2   :     0.019902
      dxy     :     0.017865
      f0      :     0.000423  f :     0.005620
      f+1     :     0.000201
      f-1     :     0.000435
      f+2     :     0.000891
      f-2     :     0.001155
      f+3     :     0.001057
      f-3     :     0.001457

  5 C s       :     2.826583  s :     2.826583
      pz      :     1.072029  p :     3.184305
      px      :     1.061089
      py      :     1.051187
      dz2     :     0.034369  d :     0.222056
      dxz     :     0.016076
      dyz     :     0.061245
      dx2y2   :     0.064150
      dxy     :     0.046216
      f0      :     0.001480  f :     0.023098
      f+1     :     0.002833
      f-1     :     0.003944
      f+2     :     0.001964
      f-2     :     0.003040
      f+3     :     0.005005
      f-3     :     0.004834

  6 H s       :     0.815637  s :     0.815637
      pz      :     0.034553  p :     0.060789
      px      :     0.013087
      py      :     0.013148

  7 H s       :     0.814017  s :     0.814017
      pz      :     0.015302  p :     0.060794
      px      :     0.032958
      py      :     0.012533

  8 H s       :     0.816737  s :     0.816737
      pz      :     0.018136  p :     0.060918
      px      :     0.019512
      py      :     0.023269

  9 H s       :     0.770865  s :     0.770865
      pz      :     0.031762  p :     0.056957
      px      :     0.012227
      py      :     0.012969

 10 H s       :     0.812994  s :     0.812994
      pz      :     0.014661  p :     0.061804
      px      :     0.015220
      py      :     0.031923

 11 H s       :     0.812536  s :     0.812536
      pz      :     0.034961  p :     0.060952
      px      :     0.013134
      py      :     0.012857

 12 H s       :     0.812007  s :     0.812007
      pz      :     0.014313  p :     0.061149
      px      :     0.033931
      py      :     0.012905

 13 H s       :     0.804793  s :     0.804793
      pz      :     0.013132  p :     0.061660
      px      :     0.036071
      py      :     0.012458

 14 H s       :     0.787184  s :     0.787184
      pz      :     0.027502  p :     0.062171
      px      :     0.013577
      py      :     0.021092

 15 H s       :     0.798813  s :     0.798813
      pz      :     0.028650  p :     0.061867
      px      :     0.016082
      py      :     0.017135


---------------------------------
LOEWDIN BOND ORDERS (THRESH 0.050000)
---------------------------------
B(  0-C ,  1-C ) :   1.2215 B(  0-C ,  2-C ) :   0.1426 B(  0-C ,  3-C ) :   0.1428 
B(  0-C ,  6-H ) :   0.8993 B(  0-C ,  7-H ) :   0.8974 B(  0-C ,  8-H ) :   0.9016 
B(  0-C ,  9-H ) :   0.0689 B(  1-C ,  2-C ) :   1.1883 B(  1-C ,  3-C ) :   1.1197 
B(  1-C ,  4-O ) :   0.1608 B(  1-C ,  5-C ) :   0.1354 B(  1-C ,  6-H ) :   0.0778 
B(  1-C ,  7-H ) :   0.0820 B(  1-C ,  8-H ) :   0.0780 B(  1-C ,  9-H ) :   0.7719 
B(  1-C , 10-H ) :   0.0739 B(  1-C , 11-H ) :   0.0741 B(  1-C , 12-H ) :   0.0786 
B(  2-C ,  3-C ) :   0.1544 B(  2-C ,  9-H ) :   0.0698 B(  2-C , 10-H ) :   0.8993 
B(  2-C , 11-H ) :   0.9011 B(  2-C , 12-H ) :   0.8971 B(  3-C ,  4-O ) :   2.5751 
B(  3-C ,  5-C ) :   1.2555 B(  3-C ,  9-H ) :   0.0885 B(  3-C , 13-H ) :   0.0888 
B(  3-C , 14-H ) :   0.0968 B(  3-C , 15-H ) :   0.0844 B(  4-O ,  5-C ) :   0.1770 
B(  5-C , 13-H ) :   0.8905 B(  5-C , 14-H ) :   0.8686 B(  5-C , 15-H ) :   0.8861 


------------------------------------------
LOEWDIN REDUCED ORBITAL POPULATIONS PER MO
-------------------------------------------
THRESHOLD FOR PRINTING IS 0.1%%
                      0         1         2         3         4         5   
                 -21.66704 -12.14169 -12.05355 -12.03857 -12.03433 -12.02773
                   2.00000   2.00000   2.00000   2.00000   2.00000   2.00000
                  --------  --------  --------  --------  --------  --------
 0 C  s               0.0       0.0       0.1       0.0       0.1      99.4
 1 C  s               0.0       0.0      99.1       0.0       0.1       0.1
 2 C  s               0.0       0.0       0.1       0.0      99.4       0.1
 3 C  s               0.0      99.1       0.0       0.0       0.0       0.0
 4 O  s              99.7       0.0       0.0       0.0       0.0       0.0
 5 C  s               0.0       0.0       0.0      99.5       0.0       0.0

                      6         7         8         9        10        11   
                  -1.71373  -1.31817  -1.24257  -1.17400  -1.12317  -1.06885
                   2.00000   2.00000   2.00000   2.00000   2.00000   2.00000
                  --------  --------  --------  --------  --------  --------
 0 C  s               0.1       8.4       5.2      17.5       6.3       2.6
 0 C  pz              0.0       0.1       0.0       0.0       0.1       0.3
 0 C  px              0.3       0.5       0.0       0.0       0.7       1.0
 0 C  py              0.1       3.5       0.5       0.5       0.6       1.7
 0 C  dz2             0.0       0.2       0.0       0.0       0.0       0.1
 0 C  dx2y2           0.0       0.3       0.1       0.1       0.0       0.0
 0 C  dxy             0.0       0.3       0.0       0.0       0.3       0.2
 1 C  s               0.4      24.6       2.4       0.0       1.5       4.3
 1 C  pz              0.2       0.6       0.1       0.6       0.3       1.7
 1 C  px              1.4       0.1       3.9       0.5       9.0       2.6
 1 C  py              0.1       0.0       1.2      16.3       0.3       0.3
 1 C  dz2             0.0       0.3       0.0       0.1       0.0       0.1
 1 C  dxz             0.1       0.0       0.1       0.1       0.4       0.0
 1 C  dyz             0.0       0.0       0.0       0.8       0.0       0.0
 1 C  dx2y2           0.2       0.0       0.6       0.1       1.2       0.1
 1 C  dxy             0.1       0.1       0.2       1.7       0.1       0.1
 1 C  f+3             0.0       0.2       0.0       0.0       0.0       0.0
 2 C  s               0.0       9.3       2.5      21.8       3.6       3.2
 2 C  pz              0.0       0.8       0.1       0.0       0.1       1.1
 2 C  px              0.1       1.4       0.1       0.0       0.8       1.5
 2 C  py              0.0       2.2       0.4       0.6       0.1       0.9
 2 C  dxz             0.0       0.1       0.0       0.0       0.1       0.2
 2 C  dyz             0.0       0.2       0.0       0.0       0.0       0.1
 2 C  dx2y2           0.0       0.0       0.1       0.1       0.1       0.0
 2 C  dxy             0.0       0.4       0.0       0.0       0.2       0.2
 3 C  s              13.2       7.9       6.2       0.1       5.5       1.1
 3 C  pz              3.0       1.1       0.6       0.1       0.3       2.1
 3 C  px              4.3       6.2       3.5       0.0       6.0       7.5
 3 C  py              9.4       1.8      11.4       0.3       2.4       1.9
 3 C  dz2             0.2       0.3       0.1       0.0       0.1       0.1
 3 C  dxz             0.7       0.0       0.1       0.0       0.0       0.4
 3 C  dyz             1.5       0.0       0.0       0.0       0.3       0.2
 3 C  dx2y2           0.4       0.6       0.5       0.0       0.5       0.0
 3 C  dxy             2.2       0.6       1.1       0.7       0.0       0.2
 3 C  f0              0.2       0.0       0.0       0.0       0.0       0.0
 3 C  f-2             0.4       0.0       0.0       0.0       0.0       0.0
 3 C  f+3             0.3       0.0       0.0       0.0       0.0       0.0
 4 O  s              53.0       2.0       1.7       0.2       5.1       7.6
 4 O  pz              0.8       0.4       0.5       0.1       3.4       6.4
 4 O  px              1.1       0.8       0.0       0.2       9.9       5.2
 4 O  py              2.6       0.8       3.1       0.2       6.5      28.0
 4 O  dxz             0.1       0.0       0.0       0.0       0.1       0.0
 4 O  dyz             0.1       0.0       0.1       0.0       0.1       0.1
 4 O  dx2y2           0.0       0.0       0.1       0.0       0.0       0.1
 4 O  dxy             0.2       0.0       0.0       0.0       0.2       0.1
 5 C  s               0.5       3.9      26.4       0.2       7.6       0.3
 5 C  pz              0.1       0.0       0.1       0.0       0.0       0.2
 5 C  px              0.1       0.9       0.3       0.1       0.8       0.3
 5 C  py              1.4       0.8       1.0       0.0       1.3       0.4
 5 C  dz2             0.0       0.1       0.1       0.0       0.1       0.0
 5 C  dyz             0.1       0.0       0.0       0.0       0.0       0.1
 5 C  dx2y2           0.4       0.0       0.1       0.0       0.0       0.3
 5 C  dxy             0.0       0.3       0.1       0.0       0.4       0.0
 5 C  f+3             0.0       0.0       0.1       0.0       0.0       0.0
 6 H  s               0.0       1.4       1.1       4.7       2.3       1.5
 6 H  pz              0.0       0.1       0.1       0.5       0.2       0.1
 7 H  s               0.0       1.4       1.2       4.7       2.8       1.4
 7 H  px              0.0       0.1       0.1       0.4       0.2       0.1
 8 H  s               0.0       1.4       1.1       5.1       2.1       1.1
 8 H  pz              0.0       0.0       0.0       0.1       0.0       0.0
 8 H  px              0.0       0.0       0.0       0.2       0.1       0.1
 8 H  py              0.0       0.1       0.1       0.3       0.1       0.0
 9 H  s               0.1       4.4       0.4       0.0       0.6       3.1
 9 H  pz              0.0       0.4       0.0       0.0       0.1       0.3
10 H  s               0.0       1.6       0.4       6.4       1.3       1.4
10 H  py              0.0       0.1       0.0       0.6       0.1       0.1
11 H  s               0.0       1.5       0.5       6.0       1.3       1.9
11 H  pz              0.0       0.2       0.1       0.6       0.1       0.1
12 H  s               0.0       1.6       0.6       6.0       1.7       1.9
12 H  px              0.0       0.1       0.1       0.6       0.1       0.1
13 H  s               0.1       0.6       5.7       0.1       3.2       0.0
13 H  px              0.0       0.0       0.6       0.0       0.3       0.0
14 H  s               0.1       0.7       5.9       0.1       2.9       0.1
14 H  pz              0.0       0.0       0.3       0.0       0.2       0.0
14 H  py              0.0       0.0       0.3       0.0       0.1       0.0
15 H  s               0.1       0.8       5.6       0.1       2.8       0.5
15 H  pz              0.0       0.0       0.4       0.0       0.2       0.0
15 H  py              0.0       0.0       0.2       0.0       0.0       0.0

                     12        13        14        15        16        17   
                  -0.96783  -0.94890  -0.92198  -0.87222  -0.84098  -0.83478
                   2.00000   2.00000   2.00000   2.00000   2.00000   2.00000
                  --------  --------  --------  --------  --------  --------
 0 C  s               0.0       0.8       0.1       0.2       0.1       0.1
 0 C  pz              0.9       1.9       0.4       8.0       5.4       1.2
 0 C  px              0.9       0.0       0.1       0.5      19.7       2.4
 0 C  py              0.7       7.5       1.9       8.3       0.6       2.7
 0 C  dxz             0.0       0.0       0.0       0.0       0.4       0.1
 0 C  dyz             0.1       0.3       0.0       0.1       0.0       0.0
 0 C  dx2y2           0.2       0.3       0.1       0.2       0.2       0.1
 0 C  dxy             0.0       0.0       0.0       0.2       0.0       0.0
 1 C  s               1.0       2.0       0.3       0.2       0.1       0.2
 1 C  pz              3.4       4.3       2.8      18.2       0.8       0.5
 1 C  px              2.9       9.8       1.5       0.3       2.9       1.6
 1 C  py              0.4       0.6       0.0       1.6      13.8       1.2
 1 C  dz2             0.1       0.3       0.2       0.0       0.0       0.1
 1 C  dxz             0.1       0.0       0.4       0.7       0.0       0.0
 1 C  dx2y2           0.1       0.1       0.1       0.1       0.3       1.3
 1 C  dxy             0.2       0.6       0.1       0.0       0.0       0.1
 2 C  s               0.2       0.2       0.3       0.1       0.1       0.0
 2 C  pz              1.7       2.7       0.1       6.5       8.6       0.1
 2 C  px              0.0       0.3       0.8       0.4       3.7      18.1
 2 C  py              0.9       2.4       2.8      11.9       3.9       2.8
 2 C  dxz             0.0       0.0       0.0       0.1       0.1       0.2
 2 C  dyz             0.2       0.4       0.1       0.0       0.1       0.0
 2 C  dx2y2           0.0       0.2       0.0       0.0       0.0       0.4
 2 C  dxy             0.0       0.0       0.1       0.3       0.0       0.0
 3 C  s               0.1       3.9       0.2       0.0       0.0       0.8
 3 C  pz              0.4       0.7      24.1       1.0       0.1       0.1
 3 C  px              7.9       2.0       0.9       0.1       0.3       0.8
 3 C  py              4.2       8.5       2.2       0.2       0.3       2.9
 3 C  dz2             0.0       0.0       0.8       0.8       0.0       0.1
 3 C  dxz             0.7       0.0       0.4       0.9       0.3       0.4
 3 C  dyz             0.2       0.0       0.4       0.3       0.2       0.2
 3 C  dx2y2           2.7       0.0       0.2       0.4       0.8       1.7
 3 C  dxy             0.5       0.1       0.3       0.0       1.3       1.8
 3 C  f+1             0.0       0.0       0.2       0.0       0.0       0.0
 3 C  f-1             0.0       0.0       0.4       0.1       0.0       0.0
 3 C  f+2             0.2       0.0       0.0       0.1       0.0       0.1
 3 C  f-3             0.4       0.0       0.0       0.0       0.1       0.3
 4 O  s               0.0       0.6       0.0       0.0       0.0       0.1
 4 O  pz              0.1       4.5      36.3       5.3       2.1       1.3
 4 O  px             34.7       2.2       1.5       3.5       2.1      10.1
 4 O  py             11.3       1.5       8.6       0.5       1.0       6.5
 4 O  dz2             0.0       0.0       0.2       0.0       0.0       0.0
 4 O  dyz             0.0       0.0       0.1       0.0       0.0       0.0
 4 O  dx2y2           0.1       0.0       0.0       0.0       0.0       0.2
 5 C  s               1.2       1.3       0.0       0.0       0.0       0.2
 5 C  pz              0.4       0.7       3.8       0.0       0.7       0.2
 5 C  px              0.3       7.8       0.0       1.3       5.0       0.3
 5 C  py              8.7       9.1       1.0       0.4       0.3      14.1
 5 C  dz2             0.2       0.1       0.2       0.0       0.0       0.1
 5 C  dxz             0.0       0.1       0.2       0.0       0.0       0.1
 5 C  dyz             0.1       0.0       0.3       0.0       0.0       0.0
 5 C  dx2y2           0.3       0.0       0.1       0.0       0.1       0.0
 5 C  dxy             0.0       0.9       0.0       0.0       0.0       0.3
 6 H  s               0.4       2.4       0.0       1.2       2.7       1.2
 6 H  pz              0.0       0.2       0.0       0.0       0.1       0.1
 6 H  px              0.0       0.0       0.0       0.0       0.2       0.0
 6 H  py              0.0       0.0       0.0       0.2       0.0       0.0
 7 H  s               0.1       0.4       0.1       1.8       6.7       1.6
 7 H  pz              0.0       0.0       0.0       0.0       0.2       0.0
 8 H  s               0.2       1.6       1.0       4.4       3.3       1.2
 8 H  px              0.0       0.1       0.0       0.2       0.0       0.0
 8 H  py              0.0       0.0       0.0       0.0       0.3       0.0
 9 H  s               2.9       4.3       0.2       7.7       0.0       0.0
 9 H  pz              0.2       0.2       0.0       0.2       0.0       0.0
 9 H  px              0.0       0.1       0.0       0.0       0.0       0.0
 9 H  py              0.0       0.0       0.0       0.0       0.2       0.0
10 H  s               0.4       0.8       1.1       6.0       0.2       3.5
10 H  pz              0.0       0.1       0.0       0.0       0.1       0.0
10 H  px              0.0       0.0       0.0       0.1       0.1       0.1
10 H  py              0.0       0.0       0.0       0.1       0.0       0.1
11 H  s               0.8       1.1       0.1       2.6       3.8       0.1
11 H  pz              0.0       0.0       0.0       0.1       0.1       0.0
11 H  px              0.0       0.0       0.0       0.0       0.1       0.2
11 H  py              0.0       0.0       0.0       0.1       0.1       0.0
12 H  s               0.1       0.0       0.5       0.5       0.8       9.6
12 H  pz              0.0       0.0       0.0       0.0       0.2       0.0
12 H  px              0.0       0.0       0.0       0.0       0.0       0.2
12 H  py              0.0       0.0       0.0       0.1       0.1       0.0
13 H  s               0.6       4.4       0.0       0.6       2.5       0.3
13 H  px              0.0       0.2       0.0       0.0       0.0       0.0
13 H  py              0.1       0.2       0.0       0.0       0.0       0.1
14 H  s               1.9       1.5       1.2       0.1       0.0       2.3
14 H  pz              0.2       0.1       0.0       0.0       0.0       0.1
14 H  px              0.0       0.1       0.0       0.0       0.1       0.0
15 H  s               2.3       1.7       0.2       0.2       1.3       2.6
15 H  pz              0.1       0.1       0.0       0.0       0.1       0.1
15 H  px              0.1       0.2       0.0       0.0       0.0       0.0

                     18        19        20        21        22        23   
                  -0.82237  -0.82024  -0.80474  -0.78181  -0.77300  -0.75877
                   2.00000   2.00000   2.00000   2.00000   2.00000   2.00000
                  --------  --------  --------  --------  --------  --------
 0 C  s               0.0       0.0       0.0       0.2       0.1       0.1
 0 C  pz              0.1       3.0      15.7       1.7       3.6      11.2
 0 C  px              0.1       0.0      10.8       2.9      12.4       0.9
 0 C  py              1.0       2.1       0.0      19.5       0.5       0.1
 0 C  dz2             0.0       0.1       0.6       0.0       0.1       1.4
 0 C  dxz             0.0       0.0       0.1       0.1       0.0       0.1
 0 C  dyz             0.0       0.0       0.1       0.6       0.2       1.2
 0 C  dx2y2           0.0       0.0       0.4       0.4       0.9       0.1
 0 C  dxy             0.0       0.0       0.0       0.9       0.6       0.1
 1 C  s               0.0       0.0       0.0       0.0       0.0       0.2
 1 C  pz              0.0       0.0       0.1       0.0       2.2      13.7
 1 C  px              0.0       0.2       0.0       0.0      11.0       1.4
 1 C  py              1.9       2.8       0.1       9.7       0.2       0.1
 1 C  dz2             0.0       0.0       0.2       0.2       0.4       3.5
 1 C  dxz             0.0       0.0       0.0       0.1       0.0       0.1
 1 C  dyz             0.0       0.1       1.5       0.4       0.3       0.6
 1 C  dx2y2           0.1       0.1       0.0       0.1       2.4       0.1
 1 C  dxy             0.1       0.2       0.8       1.2       0.0       0.0
 1 C  f-1             0.0       0.0       0.1       0.0       0.0       0.0
 1 C  f-2             0.0       0.0       0.0       0.2       0.0       0.0
 1 C  f+3             0.0       0.0       0.0       0.1       0.0       0.1
 1 C  f-3             0.0       0.0       0.1       0.1       0.0       0.0
 2 C  s               0.0       0.0       0.0       0.1       0.1       0.1
 2 C  pz              1.5       1.4      15.5       0.3       2.3      10.4
 2 C  px              3.6       1.8       9.5       0.9       8.8       0.6
 2 C  py              0.3       0.2       0.2      22.3       0.2       0.1
 2 C  dz2             0.0       0.0       1.1       0.5       0.0       2.4
 2 C  dyz             0.0       0.0       0.0       0.2       0.0       0.1
 2 C  dx2y2           0.1       0.0       0.2       1.7       1.1       0.1
 2 C  dxy             0.0       0.0       0.0       0.3       0.0       0.1
 3 C  s               0.0       0.0       0.0       0.0       0.1       0.3
 3 C  pz              0.3       0.1       0.0       0.1       0.2       0.1
 3 C  px              0.1       0.2       0.0       0.1       5.8       3.9
 3 C  py              0.0       0.1       0.1       0.0       2.0       0.4
 3 C  dz2             0.7       0.3       0.0       0.0       0.2       0.2
 3 C  dxz             0.0       0.1       0.0       0.0       1.3       0.1
 3 C  dyz             1.4       0.9       0.0       0.0       0.3       0.1
 3 C  dx2y2           0.0       1.5       0.0       0.0       1.8       1.2
 3 C  dxy             0.1       0.1       0.0       0.5       0.2       0.1
 3 C  f+2             0.1       0.0       0.0       0.0       0.0       0.1
 3 C  f-2             0.1       0.1       0.0       0.0       0.0       0.0
 3 C  f-3             0.3       0.3       0.1       0.0       0.1       0.1
 4 O  pz              2.4       3.1       0.0       0.1       0.2       0.2
 4 O  px              0.5       0.3       0.4       0.0       4.5       3.7
 4 O  py              3.3       0.2       0.1       0.1       2.3       0.4
 4 O  dx2y2           0.0       0.0       0.0       0.0       0.2       0.1
 5 C  s               0.0       0.0       0.0       0.0       0.2       0.0
 5 C  pz             31.6      14.5       0.5       0.0       0.6       0.2
 5 C  px              9.9      20.6       0.7       0.1       3.6       1.2
 5 C  py              1.0       6.6       0.3       0.5       4.7       0.9
 5 C  dz2             0.3       0.4       0.0       0.0       0.0       0.0
 5 C  dxz             0.4       0.0       0.0       0.0       0.0       0.0
 5 C  dyz             1.6       0.5       0.0       0.0       0.2       0.0
 5 C  dx2y2           0.2       1.4       0.1       0.0       0.1       0.1
 6 H  s               0.1       2.2       8.6       0.2       2.1       8.5
 6 H  pz              0.0       0.1       0.2       0.0       0.0       0.1
 6 H  px              0.0       0.0       0.1       0.0       0.2       0.0
 6 H  py              0.0       0.0       0.0       0.3       0.0       0.0
 7 H  s               0.0       0.2      10.3       0.9       4.7       2.6
 7 H  pz              0.0       0.0       0.0       0.1       0.2       0.1
 7 H  px              0.0       0.0       0.3       0.0       0.0       0.1
 7 H  py              0.0       0.0       0.0       0.3       0.0       0.0
 8 H  s               0.2       0.1       0.0      13.4       3.9       0.8
 8 H  pz              0.0       0.1       0.2       0.1       0.0       0.1
 8 H  px              0.0       0.0       0.1       0.1       0.0       0.1
 8 H  py              0.0       0.0       0.0       0.0       0.2       0.0
 9 H  s               0.1       0.1       0.0       0.2       1.5      12.8
 9 H  px              0.0       0.0       0.0       0.0       0.2       0.0
 9 H  py              0.0       0.1       0.0       0.1       0.0       0.0
10 H  s               0.8       0.5       0.2      14.3       1.3       0.4
10 H  pz              0.0       0.0       0.2       0.1       0.0       0.1
10 H  px              0.0       0.0       0.1       0.0       0.1       0.0
10 H  py              0.1       0.1       0.0       0.1       0.1       0.0
11 H  s               0.6       0.4      10.0       0.8       0.8       8.1
11 H  pz              0.0       0.0       0.2       0.0       0.0       0.1
11 H  px              0.1       0.0       0.1       0.0       0.1       0.0
11 H  py              0.0       0.0       0.0       0.3       0.0       0.0
12 H  s               1.3       0.6       8.1       1.2       4.1       2.0
12 H  pz              0.1       0.0       0.1       0.0       0.1       0.1
12 H  px              0.0       0.0       0.2       0.0       0.0       0.1
12 H  py              0.0       0.0       0.0       0.3       0.0       0.0
13 H  s               3.9      15.5       0.5       0.0       1.4       0.7
13 H  pz              0.5       0.1       0.0       0.0       0.0       0.0
13 H  px              0.1       0.4       0.0       0.0       0.0       0.0
13 H  py              0.0       0.0       0.0       0.0       0.1       0.0
14 H  s               5.8      14.6       0.5       0.1       1.5       0.0
14 H  pz              0.0       0.2       0.0       0.0       0.0       0.0
14 H  px              0.2       0.1       0.0       0.0       0.1       0.0
14 H  py              0.3       0.2       0.0       0.0       0.0       0.0
15 H  s              21.6       0.1       0.0       0.0       0.1       0.1
15 H  pz              0.2       0.2       0.0       0.0       0.0       0.0
15 H  px              0.0       0.3       0.0       0.0       0.0       0.0
15 H  py              0.2       0.1       0.0       0.0       0.1       0.0

                     24        25        26        27        28        29   
                  -0.30400  -0.04649  -0.03283  -0.00999  -0.00450   0.01634
                   0.00000   0.00000   0.00000   0.00000   0.00000   0.00000
                  --------  --------  --------  --------  --------  --------
 0 C  s               0.0       0.9       6.4       0.4       0.7       4.8
 0 C  pz              0.0       0.1       0.3       0.5       0.7       0.6
 0 C  px              0.0       0.4       0.4       3.6       0.1       0.1
 0 C  py              0.0       0.1       5.1       6.9       0.2       0.3
 0 C  dz2             0.0       0.5       1.0       1.4       1.2       0.4
 0 C  dxz             0.0       0.0       0.0       0.3       0.0       0.0
 0 C  dyz             0.0       0.0       0.0       0.5       2.3       0.2
 0 C  dx2y2           0.0       0.2       0.0       7.1       0.7       0.1
 0 C  dxy             0.0       1.1       3.2       0.7       0.4       0.3
 0 C  f0              0.0       0.0       0.0       0.0       0.0       0.2
 0 C  f+2             0.0       0.0       0.0       0.1       0.0       0.0
 0 C  f-2             0.0       0.0       0.0       0.0       0.1       0.0
 0 C  f+3             0.0       0.0       0.3       0.1       0.1       0.0
 0 C  f-3             0.0       0.0       0.0       0.2       0.1       0.0
 1 C  s               0.0       4.3       0.6       9.5       1.2       0.2
 1 C  pz              0.2       0.5       1.5       0.6       7.6       0.6
 1 C  px              0.1       7.4       1.4       6.4       0.8       2.8
 1 C  py              0.1       0.9       7.9       0.2       2.5       0.5
 1 C  dz2             1.2       0.2       4.6       0.0       2.1       0.2
 1 C  dxz             3.1       1.2       0.0       0.7       0.1       1.1
 1 C  dyz             0.0       0.3       0.7       0.0       4.0       0.1
 1 C  dx2y2           0.1       5.4       0.1       4.5       0.4       1.6
 1 C  dxy             0.8       0.2       8.2       0.0       1.9       0.1
 1 C  f0              0.1       0.0       0.0       0.1       0.1       0.0
 1 C  f+1             0.1       0.1       0.0       0.0       0.0       0.0
[...]
 5 C  dyz             0.1       0.1       0.4       0.1       0.0       0.0
 5 C  dx2y2           0.3       0.1       0.1       0.2       0.0       0.0
 5 C  dxy             0.0       0.0       0.1       0.8       0.0       0.0
 5 C  f0              0.0       0.0       0.2       0.0       0.0       0.0
 5 C  f+1             0.0       0.0       0.1       0.0       0.1       0.0
 5 C  f-1             0.0       0.4       0.1       0.0       0.0       0.0
 5 C  f+2             0.1       0.1       0.0       0.0       0.2       0.1
 5 C  f-2             0.0       0.0       0.6       0.1       0.0       0.0
 5 C  f+3             0.0       0.0       0.0       0.3       0.1       0.0
 5 C  f-3             0.0       0.1       0.1       0.2       0.0       0.0
15 H  s               0.0       0.0       0.1       0.0       0.0       0.0

                    234       235       236       237       238       239   
                   5.92019   6.08325   6.09396   6.39463   6.58786   6.60231
                   0.00000   0.00000   0.00000   0.00000   0.00000   0.00000
                  --------  --------  --------  --------  --------  --------
 1 C  s               0.0       0.4       0.5       0.0       0.1       0.1
 1 C  pz              0.1       0.1       0.0       0.0       0.0       0.0
 1 C  px              0.0       0.4       0.6       0.0       0.0       0.1
 1 C  py              0.0       0.2       0.1       0.0       0.0       0.0
 1 C  dxz             0.1       0.1       0.1       0.0       0.0       0.0
 1 C  dx2y2           0.0       0.1       0.0       0.0       0.0       0.1
 1 C  dxy             0.0       0.4       0.5       0.0       0.1       0.1
 1 C  f+3             0.0       0.1       0.1       0.0       0.0       0.1
 1 C  f-3             0.0       0.5       0.8       0.0       0.0       0.0
 3 C  s               0.0       0.9       0.5       0.0       1.9       2.2
 3 C  pz              0.0       0.0       0.0       1.6       0.2       0.2
 3 C  px              0.0       0.0       0.8       0.1       0.9       1.0
 3 C  py              0.0       0.2       0.1       0.2       0.8       1.1
 3 C  dz2             0.0       0.3       0.1       1.4       0.0       0.0
 3 C  dxz             0.5       0.3       0.6       0.4       0.1       0.5
 3 C  dyz             0.2       0.0       0.2       0.9       0.4       0.1
 3 C  dx2y2           0.2       0.9       2.9       0.1       1.8       1.2
 3 C  dxy             0.0       1.3       0.5       0.4       0.1       0.6
 3 C  f0              0.0       0.0       0.0       0.0       0.1       0.1
 3 C  f+1             0.1       0.0       0.0       0.2       0.0       0.0
 3 C  f-1             0.0       0.0       0.0       0.4       0.0       0.0
 3 C  f+2             0.1       0.9       3.1       0.0       0.6       0.0
 3 C  f-2             0.0       0.3       0.6       0.0       0.2       0.8
 3 C  f+3             0.0       0.2       0.3       0.1       0.8       0.5
 3 C  f-3             0.0       2.8       7.9       0.0       0.2       0.6
 4 O  s               0.0       0.2       0.1       0.0       0.9       1.0
 4 O  pz              0.0       0.0       0.0       1.9       0.2       0.3
 4 O  px              0.0       0.4       0.8       0.2       0.5       2.7
 4 O  py              0.0       0.2       0.5       0.3       2.3       0.1
 4 O  dz2             0.1      33.2      11.1      29.8       1.5       1.8
 4 O  dxz            51.9       8.6       0.4       8.7       0.1      17.8
 4 O  dyz            25.1       3.2       7.4      18.1      21.2       4.3
 4 O  dx2y2          15.2      16.2      11.8       1.5      39.3       9.3
 4 O  dxy             1.7      12.5      17.4       9.0       4.7      32.8
 4 O  f0              0.0       1.7       0.4       0.1       1.6       1.8
 4 O  f+1             0.9       0.2       0.0       5.8       0.0       0.0
 4 O  f-1             0.5       0.4       0.0      13.0       0.0       0.0
 4 O  f+2             1.3       2.9       8.1       0.5       7.3       1.7
 4 O  f-2             0.1       0.2       1.5       2.1       0.6       6.4
 4 O  f+3             0.1       0.3       2.5       2.7       3.8       0.6
 4 O  f-3             0.9       7.2      14.1       0.2       6.6       9.2
 5 C  s               0.0       0.5       0.0       0.0       0.1       0.1
 5 C  pz              0.1       0.0       0.1       0.0       0.0       0.0
 5 C  px              0.0       0.0       0.1       0.0       0.1       0.0
 5 C  py              0.0       0.3       0.0       0.0       0.0       0.0
 5 C  dyz             0.0       0.0       0.2       0.0       0.0       0.0
 5 C  dx2y2           0.0       0.1       0.7       0.0       0.0       0.0
 5 C  dxy             0.0       0.1       0.2       0.0       0.0       0.1
 5 C  f+2             0.0       0.0       0.1       0.0       0.0       0.0
 5 C  f-3             0.0       0.1       0.8       0.0       0.0       0.0

                    240       241       242       243       244       245   
                  20.72492  20.78946  20.82408  21.02781  21.41835  41.50578
                   0.00000   0.00000   0.00000   0.00000   0.00000   0.00000
                  --------  --------  --------  --------  --------  --------
 0 C  s               0.0      62.5      35.7       0.1       0.0       0.0
 1 C  s               0.7       0.1       0.0      97.3       0.6       0.0
 1 C  py              0.0       0.0       0.1       0.0       0.0       0.0
 2 C  s              56.2      15.7      26.1       0.6       0.0       0.0
 3 C  s               0.2       0.1       0.5       0.5      95.6       0.0
 3 C  px              0.0       0.0       0.0       0.1       0.1       0.0
 3 C  py              0.1       0.0       0.1       0.0       0.2       0.0
 3 C  dx2y2           0.0       0.0       0.0       0.1       0.0       0.0
 4 O  s               0.0       0.0       0.0       0.1       1.1      99.9
 4 O  pz              0.0       0.0       0.0       0.0       0.1       0.0
 4 O  px              0.0       0.0       0.0       0.0       0.2       0.0
 4 O  py              0.0       0.0       0.0       0.0       0.4       0.0
 5 C  s              41.4      19.9      36.0       0.2       0.8       0.0
 6 H  s               0.0       0.2       0.1       0.0       0.0       0.0
 7 H  s               0.0       0.1       0.1       0.0       0.0       0.0
 8 H  s               0.0       0.2       0.1       0.0       0.0       0.0
 9 H  s               0.0       0.0       0.0       0.3       0.0       0.0
 9 H  pz              0.0       0.0       0.0       0.1       0.0       0.0
10 H  s               0.1       0.1       0.1       0.0       0.0       0.0
11 H  s               0.1       0.0       0.1       0.0       0.0       0.0
12 H  s               0.1       0.0       0.1       0.0       0.0       0.0



                      *****************************
                      * MAYER POPULATION ANALYSIS *
                      *****************************

  NA   - Mulliken gross atomic population
  ZA   - Total nuclear charge
  QA   - Mulliken gross atomic charge
  VA   - Mayer's total valence
  BVA  - Mayer's bonded valence
  FA   - Mayer's free valence

  ATOM       NA         ZA         QA         VA         BVA        FA
  0 C      6.4075     6.0000    -0.4075     3.9447     3.9447    -0.0000
  1 C      5.9870     6.0000     0.0130     3.7206     3.7206     0.0000
  2 C      6.4179     6.0000    -0.4179     3.8956     3.8956     0.0000
  3 C      5.7255     6.0000     0.2745     3.9599     3.9599     0.0000
  4 O      8.4588     8.0000    -0.4588     2.0123     2.0123    -0.0000
  5 C      6.4119     6.0000    -0.4119     3.8455     3.8455    -0.0000
  6 H      0.8753     1.0000     0.1247     0.9777     0.9777     0.0000
  7 H      0.8652     1.0000     0.1348     0.9713     0.9713    -0.0000
  8 H      0.8677     1.0000     0.1323     0.9740     0.9740    -0.0000
  9 H      0.8804     1.0000     0.1196     0.9648     0.9648     0.0000
 10 H      0.8547     1.0000     0.1453     0.9658     0.9658     0.0000
 11 H      0.8660     1.0000     0.1340     0.9722     0.9722     0.0000
 12 H      0.8615     1.0000     0.1385     0.9691     0.9691     0.0000
 13 H      0.8502     1.0000     0.1498     0.9847     0.9847     0.0000
 14 H      0.8292     1.0000     0.1708     0.9638     0.9638    -0.0000
 15 H      0.8410     1.0000     0.1590     0.9664     0.9664    -0.0000

  Mayer bond orders larger than 0.100000
B(  0-C ,  1-C ) :   0.9769 B(  0-C ,  6-H ) :   0.9700 B(  0-C ,  7-H ) :   0.9777 
B(  0-C ,  8-H ) :   0.9778 B(  1-C ,  2-C ) :   0.9375 B(  1-C ,  3-C ) :   0.9681 
B(  1-C ,  9-H ) :   0.9366 B(  2-C , 10-H ) :   0.9720 B(  2-C , 11-H ) :   0.9712 
B(  2-C , 12-H ) :   0.9737 B(  3-C ,  4-O ) :   1.9654 B(  3-C ,  5-C ) :   0.9915 
B(  5-C , 13-H ) :   0.9668 B(  5-C , 14-H ) :   0.9378 B(  5-C , 15-H ) :   0.9623 


-------
TIMINGS
-------

Total SCF time: 0 days 0 hours 1 min 35 sec 

Total time                  ....      95.664 sec
Sum of individual times     ....      93.469 sec  ( 97.7%)

SCF preparation             ....       0.282 sec  (  0.3%)
Fock matrix formation       ....      92.040 sec  ( 96.2%)
  Startup                   ....       0.057 sec  (  0.1% of F)
  Split-RI-J                ....       3.640 sec  (  4.0% of F)
  Chain of spheres X        ....      73.895 sec  ( 80.3% of F)
  XC integration            ....      11.536 sec  ( 12.5% of F)
    XC Preparation          ....       0.000 sec  (  0.0% of XC)
    Basis function eval.    ....       2.636 sec  ( 22.9% of XC)
    Density eval.           ....       2.212 sec  ( 19.2% of XC)
    XC-Functional eval.     ....       2.547 sec  ( 22.1% of XC)
    XC-Potential eval.      ....       3.251 sec  ( 28.2% of XC)
  CPCM terms                ....       4.181 sec  (  4.5% of F)
Diagonalization             ....       0.000 sec  (  0.0%)
Density matrix formation    ....       0.192 sec  (  0.2%)
Total Energy calculation    ....       0.047 sec  (  0.0%)
Population analysis         ....       0.121 sec  (  0.1%)
Orbital Transformation      ....       0.059 sec  (  0.1%)
Orbital Orthonormalization  ....       0.000 sec  (  0.0%)
DIIS solution               ....       0.277 sec  (  0.3%)
  MO trafo                  ....       0.000 sec  (  0.0 % of DIIS)
  Orb grad                  ....       0.000 sec  (  0.0 % of DIIS)
  Energy W gradient         ....       0.000 sec  (  0.0 % of DIIS)
  DIIS error                ....       0.008 sec  (  3.0 % of DIIS)
  DIIS work                 ....       0.226 sec  ( 81.5 % of DIIS)
  Form Q                    ....       0.000 sec  (  0.0 % of DIIS)
  Form QpQm                 ....       0.000 sec  (  0.0 % of DIIS)
  Exp/Cayley                ....       0.000 sec  (  0.0 % of DIIS)
  Orb update                ....       0.000 sec  (  0.0 % of DIIS)
  Wake-sleep                ....       0.011 sec  (  3.9 % of DIIS)
SOSCF solution              ....       0.180 sec  (  0.2%)
  MO trafo                  ....       0.066 sec  ( 36.6 % of SOSCF)
  Orb grad                  ....       0.002 sec  (  1.4 % of SOSCF)
  Rot update                ....       0.059 sec  ( 32.8 % of SOSCF)
  Step                      ....       0.053 sec  ( 29.2 % of SOSCF)
Grid generation             ....       0.270 sec  (  0.3%)
Finished LeanSCF after  95.7 sec

Maximum memory used throughout the entire LEANSCF-calculation: 30.7 MB
------------------   -----------------
gCP correction             0.010792698
------------------   -----------------

-------------------------   --------------------
FINAL SINGLE POINT ENERGY      -271.801135135114
-------------------------   --------------------


------------------------------------------------------------------------------
                              ORCA PROPERTY CALCULATIONS
------------------------------------------------------------------------------

GBWName                                 ... sp_solv.gbw
Number of atoms                         ...     16
Number of basis functions               ...    246
Max core memory                         ...   1024 MB

Electric properties:
Dipole moment                           ... YES
Quadrupole moment                       ...  NO
Static polarizability (Dipole/Dipole)   ...  NO
Static polarizability (Dipole/Quad.)    ...  NO
Static polarizability (Quad./Quad.)     ...  NO
Static polarizability (Velocity)        ...  NO

Atomic electric properties:
Dipole moment                           ...  NO
Quadrupole moment                       ...  NO
Static polarizability                   ...  NO

Choice of electric origin               ... Center of mass
Position of electric origin             ...    -0.040926     0.050169    -0.091411

General magnetic properties:
Magnetizability                         ...  NO

EPR properties:
g-Tensor (aka g-matrix)                 ...  NO
Zero-Field splitting spin-orbit         ...  NO
Zero-field splitting spin-spin          ...  NO
Hyperfine couplings                     ...  NO (   0 nuclei)
Quadrupole couplings                    ...  NO (   0 nuclei)
Contact density                         ...  NO (   0 nuclei)

NMR properties:
Chemical shifts                         ...  NO (   0 nuclei)
Spin-rotation constants                 ...  NO (   0 nuclei)
Spin-spin couplings                     ...  NO (   0 nuclei,    0 pairs)

Choice of magnetic origin               ... GIAO
Position of magnetic origin             ...     0.000000     0.000000     0.000000

Properties with geometric perturbations:
SCF Hessian                             ...  NO
IR spectrum                             ...  NO
VCD spectrum                            ...  NO
X-ray spectroscopy properties:
SCF XES/XAS/RIXS spectra                ...  NO


-------------
DIPOLE MOMENT
-------------

Method             : SCF
Type of density    : Electron Density
Multiplicity       :   1
Irrep              :   0
Energy             :  -271.8119278328143196 Eh
Relativity type    : 
Basis              : AO
                                X                 Y                 Z
Electronic contribution:     -4.218417071       2.008532495       0.351964883
Nuclear contribution   :      5.153209248      -3.369766944      -1.071064877
                        -----------------------------------------
Total Dipole Moment    :      0.934792177      -1.361234450      -0.719099994
                        -----------------------------------------
Magnitude (a.u.)       :      1.801083130
Magnitude (Debye)      :      4.577989499



--------------------
Rotational spectrum 
--------------------
 
Rotational constants in cm-1:             0.156327             0.103170             0.070175 
Rotational constants in MHz :          4686.574285          3092.948172          2103.780639 

Dipole components along the rotational axes: 
x,y,z [a.u.] :     0.430375    -1.643124    -0.599016 
x,y,z [Debye]:     1.093926    -4.176490    -1.522577 

 

Dipole moment calculation done in   0.0 sec 

Maximum memory used throughout the entire PROP-calculation: 18.0 MB

--------------------------------
SUGGESTED CITATIONS FOR THIS RUN
--------------------------------

Below you find a list of papers that are relevant to this ORCA run
We neither can nor want to force you to cite these papers, but we appreciate if you do
You receive ORCA, which is the product of decades of hard work by many enthusiastic individuals, for free
The only thing we kindly ask in return is that you cite our papers,
We deeply appreciate it, if you show your appreciation for ORCA by not just citing the generic ORCA reference.

Please note that relegating all ORCA citations to the supporting information does *not* help us.
SI sections are not indexed - citations you put there will not count into any citation statistics
But we need these citations in order to attract the funding resources that allow us to do what we are doing

Therefore, if you are a happy ORCA user, please consider citing a few of the papers listed below in the main body of your paper

In addition to the list printed below, the program has created the file sp_solv.bibtex that contains the list in bibtex format
You can import this file easily into all common literature databanks and citation aid programs


List of essential papers. We consider these as the minimum necessary citations

  1. Neese,F.
     Software update: the ORCA program system, version 5.0
     WIRES Comput. Molec. Sci., 2022 12(1)e1606
     doi.org/10.1002/wcms.1606

List of papers to cite with high priority. The work reported in these papers was absolutely
necessary for this run to complete.
Our perspective: the developers of density functionals and basis sets usually get cited in chemistry papers
Good! But without the algorithms to do something with them, the functionals or basis sets would not do anything.
Hence, in our opinion, the algorithm design and method developments papers are equally worthy of getting cited

  1. Neese,F.
     An improvement of the resolution of the identity approximation for the formation of the Coulomb matrix
     J. Comp. Chem., 2003 24(14)1740-1747
     doi.org/10.1002/jcc.10318
  2. Neese,F.; Wennmohs,F.; Hansen,A.; Becker,U.
     Efficient, approximate and parallel Hartree-Fock and hybrid DFT calculations. A 'chain-of-spheres' algorithm for the Hartree-Fock exchange
     Chem. Phys., 2009 356(1-3)98-109
     doi.org/10.1016/j.chemphys.2008.10.036
  3. Garcia-Rates,M.; Neese,F.
     Effect of the Solute Cavity on the Solvation Energy and its Derivatives within the Framework of the Gaussian Charge Scheme
     J. Comput. Chem., 2020 41 922-939
     doi.org/10.1002/jcc.26139
  4. Helmich-Paris,B.; de Souza,B.; Neese,F.; Izsák,R.
     An improved chain of spheres for exchange algorithm
     J. Chem. Phys., 2021 155 104109
     doi.org/doi: 10.1063/5.0058766.
  5. Neese,F.
     The SHARK Integral Generation and Digestion System
     J. Comp. Chem., 2022  1-16
     doi.org/10.1002/jcc.26942

List of suggested additional citations. These are papers that are important in the 'surrounding' of 
of this run, or papers that preceded the highly important papers. If you like your results we are grateful for a citation.

  1. Izsak,R.; Neese,F.
     An overlap fitted chain of spheres exchange method
     J. Chem. Phys., 2011 135 144105
     doi.org/10.1063/1.3646921
  2. Izsak,R.; Hansen,A.; Neese,F.
     The resolution of identity and chain of spheres approximations for the LPNO-CCSD singles Fock term
     Molec. Phys., 2012 110 2413-2417
     doi.org/10.1080/00268976.2012.687466
  3. Neese,F.
     The ORCA program system
     WIRES Comput. Molec. Sci., 2012 2(1)73-78
     doi.org/10.1002/wcms.81
  4. Izsak,R.; Neese,F.; Klopper,W.
     Robust fitting techniques in the chain of spheres approximation to the Fock exchange: The role of the complementary space
     J. Chem. Phys., 2013 139 
     doi.org/10.1063/1.4819264
  5. Neese,F.
     Software update: the ORCA program system, version 4.0
     WIRES Comput. Molec. Sci., 2018 8(1)1-6
     doi.org/10.1002/wcms.1327
  6. Neese,F.; Wennmohs,F.; Becker,U.; Riplinger,C.
     The ORCA quantum chemistry program package
     J. Chem. Phys., 2020 152 Art. No. L224108
     doi.org/10.1063/5.0004608

List of optional additional citations

  1. Neese,F.
     Approximate second-order SCF convergence for spin unrestricted wavefunctions
     Chem. Phys. Lett., 2000 325(1-3)93-98
     doi.org/10.1016/s0009-2614(00)00662-x

Timings for individual modules:

Sum of individual times          ...       97.850 sec (=   1.631 min)
Startup calculation              ...        1.700 sec (=   0.028 min)   1.7 %
SCF iterations                   ...       96.056 sec (=   1.601 min)  98.2 %
Property calculations            ...        0.094 sec (=   0.002 min)   0.1 %
                             ****ORCA TERMINATED NORMALLY****
TOTAL RUN TIME: 0 days 0 hours 1 minutes 38 seconds 498 msec
