24
 energy: -687.116695275236 gnorm: 0.009752414492 xtb: 6.7.1 (edcfbbe)
C           -2.55344907799954       -0.92439375477459        0.37955151872559
C           -1.11709918892756       -0.48940945744600        0.62282311284271
H           -0.95730941904322       -0.45579852367689        1.71400248384304
C           -0.79063815724914        0.88456053253708        0.03279903873263
H           -0.99388266181166        0.87289446766156       -1.04952233804005
C            0.68321112271363        1.20870439941798        0.24073147517217
H            0.87310864694623        1.31994824847329        1.32014455181364
C            1.55397383632128        0.08213277281374       -0.29809594276961
H            1.41828776576358        0.00617680219337       -1.38984540321136
C            1.12342839858609       -1.24724837951753        0.32773195856542
H            1.27739220619580       -1.23057151445039        1.41772810112347
O           -0.25874796644933       -1.47759783645165        0.03592675734121
O            1.85807388123705       -2.33363128850022       -0.16545476637927
O            2.90766521234292        0.39060007928683        0.02653368641631
O            0.94384247330603        2.44260062462743       -0.43221248103125
O           -1.62551164678301        1.83927203719245        0.68818871458233
O           -2.90059680286292       -0.98557841171624       -1.01083997329743
H           -3.22630061428218       -0.25034648510748        0.92315671734708
H           -2.68091194891282       -1.93652674703388        0.78068065763437
H            1.84340017061567       -2.29076726062987       -1.13847711647375
H            3.47420709979983       -0.23515869461338       -0.44192077027835
H            1.80894932758375        2.75870490487399       -0.14021489934726
H           -1.43949071137626        2.70006068881118        0.29132750149217
H           -3.08626754429274       -0.08396176400955       -1.31076303709228
24
 energy: -687.116761120560 gnorm: 0.003448849238 xtb: 6.7.1 (edcfbbe)
C           -2.55333711635524       -0.92412272309228        0.38035512192886
C           -1.11771814054774       -0.48787375491709        0.62167229766470
H           -0.95645828686461       -0.45451195132866        1.71265619768156
C           -0.79040871272913        0.88492408104251        0.03108396057740
H           -0.99285880909877        0.87323443961222       -1.05132183415437
C            0.68253845946832        1.20855607201914        0.24100709899975
H            0.87170026039821        1.31901413708813        1.32051325621812
C            1.55301576421553        0.08191290243861       -0.29760630847432
H            1.41946970584749        0.00639951932098       -1.38928194440867
C            1.12303245353813       -1.24704795514350        0.32739991816289
H            1.27660655600993       -1.23276143549041        1.41711731751624
O           -0.25909049470838       -1.47714767953668        0.03412739513326
O            1.85801485616135       -2.33419938819156       -0.16818376499546
O            2.90761056948802        0.39092975309463        0.02864882430694
O            0.94405262345833        2.44491268292943       -0.43131596553104
O           -1.62740036185014        1.84068732296269        0.68542772648993
O           -2.90401701529167       -0.98700987211969       -1.00850831380249
H           -3.22705028123138       -0.25355548121648        0.92588052143295
H           -2.67929845429805       -1.93553587628447        0.77954224293925
H            1.84547100030002       -2.28992333417052       -1.13756390360873
H            3.47432324406298       -0.23641941315456       -0.43930052190331
H            1.81081372763797        2.75848347705991       -0.14272637762398
H           -1.43616521579495        2.70339671579572        0.29404942961901
H           -3.08751180543995       -0.08767700651477       -1.30969274547583
24
 energy: -687.116785034292 gnorm: 0.001607308992 xtb: 6.7.1 (edcfbbe)
C           -2.55376437522920       -0.92464131032037        0.38187255590586
C           -1.11893279032625       -0.48638612487180        0.62033211447063
H           -0.95552764057385       -0.45292528705961        1.71091820001871
C           -0.79085320006731        0.88500695599283        0.02840488391448
H           -0.99222649522543        0.87299360480206       -1.05412346461166
C            0.68106492056965        1.20798234200150        0.24136221288977
H            0.86916893370428        1.31850619150581        1.32091188967756
C            1.55237723571228        0.08214582283425       -0.29703150558649
H            1.42167248031298        0.00726359741229       -1.38878708501710
C            1.12216812037558       -1.24650597613858        0.32643176400629
H            1.27544151034845       -1.23492880982031        1.41589273812972
O           -0.25985427119346       -1.47670157052100        0.03188437748939
O            1.85766620099624       -2.33383057283743       -0.17069528563505
O            2.90770393260961        0.39175459045156        0.03189055688182
O            0.94394383362103        2.44618427127030       -0.43056074315902
O           -1.62997446770710        1.84197378422965        0.68122566028447
O           -2.90795869243313       -0.98820627433829       -1.00565625101595
H           -3.22783744620516       -0.25667885865814        0.92971551682964
H           -2.67642966831675       -1.93595538998627        0.78026612153241
H            1.84790191457436       -2.28763937197376       -1.13836176104438
H            3.47438557289164       -0.23738154677707       -0.43457147309431
H            1.81348981955070        2.75577572195589       -0.14621587615279
H           -1.43020744333349        2.70667664214816        0.29762769631278
H           -3.08808316244054       -0.08981730368401       -1.30875306514101
24
 energy: -687.116800872898 gnorm: 0.002885079580 xtb: 6.7.1 (edcfbbe)
C           -2.55460505851554       -0.92558511249374        0.38461139627745
C           -1.12028788629920       -0.48495439290215        0.61829494333904
H           -0.95333020994554       -0.45068435132253        1.70815674082763
C           -0.79210165280925        0.88476360552745        0.02409841198741
H           -0.99123991987913        0.87154128959356       -1.05872009149483
C            0.67841382926474        1.20778586779972        0.24125358298172
H            0.86408742460515        1.31843324894542        1.32105323542730
C            1.55127985969058        0.08284214004979       -0.29571918663448
H            1.42541942309206        0.00969435202339       -1.38788721703174
C            1.12080593270958       -1.24643497098653        0.32436263545002
H            1.27350053102530       -1.23815127059078        1.41370666357855
O           -0.26087510812269       -1.47626922021165        0.02810446237675
O            1.85723545839104       -2.33309105066469       -0.17451828457325
O            2.90664483983472        0.39338275159603        0.03836713048537
O            0.94313953920184        2.44787014551458       -0.42963739112464
O           -1.63408979900401        1.84343295846010        0.67353901244812
O           -2.91486693801015       -0.98989953736570       -1.00088196317720
H           -3.22852534298997       -0.26040073163578        0.93625397327384
H           -2.67233274159180       -1.93743119066061        0.78265389161909
H            1.85200998193159       -2.28321626147194       -1.14172532751947
H            3.47375769483632       -0.23801152634842       -0.42485941983454
H            1.81798613371543        2.74971511139280       -0.15264180955346
H           -1.41851397729833        2.71067455264323        0.30322733386983
H           -3.08817649842503       -0.09134123657781       -1.30711262989555
24
 energy: -687.116810062822 gnorm: 0.002144977235 xtb: 6.7.1 (edcfbbe)
C           -2.55510776001127       -0.92606758178895        0.38603640022281
C           -1.12051776275128       -0.48497048243136        0.61747781430401
H           -0.95209072638724       -0.45033200841563        1.70703332050290
C           -0.79292719099286        0.88444140836117        0.02225049641381
H           -0.99086702378309        0.86989537025528       -1.06078721878466
C            0.67721893657407        1.20792812447480        0.24096021967189
H            0.86141619207204        1.31865472568054        1.32103320101048
C            1.55119146539534        0.08351463752955       -0.29511464962964
H            1.42731419746194        0.01127223241346       -1.38763196455255
C            1.12025851774973       -1.24653602448823        0.32326489337281
H            1.27250252622293       -1.23911644155239        1.41275319576801
O           -0.26127626924769       -1.47609683971570        0.02644528972889
O            1.85696760386797       -2.33232130483457       -0.17628406290210
O            2.90578912797030        0.39435658341511        0.04168539196608
O            0.94242409087042        2.44790236612458       -0.42944389994136
O           -1.63584911022906        1.84350442605284        0.66969558086984
O           -2.91786019456376       -0.99016333671051       -0.99877732111357
H           -3.22827216901817       -0.26116383395314        0.93920403726904
H           -2.67162050104341       -1.93830247627694        0.78416527969991
H            1.85330078733641       -2.28068481415009       -1.14402653681793
H            3.47370897161897       -0.23761531197127       -0.41948143312332
H            1.81978388913571        2.74600572410703       -0.15609189725302
H           -1.41280139199136        2.71131635911833        0.30547871380929
H           -3.08735023799254       -0.09075611699151       -1.30586457450699
24
 energy: -687.116820963159 gnorm: 0.001437996949 xtb: 6.7.1 (edcfbbe)
C           -2.55627922122869       -0.92709217988105        0.38985240425894
C           -1.12066025546123       -0.48565697903111        0.61536278183489
H           -0.94863195929634       -0.44989821838320        1.70425128270651
C           -0.79510559929739        0.88329672161627        0.01761633493754
H           -0.98939301246246        0.86471909075412       -1.06620246358696
C            0.67419357808845        1.20868937025652        0.24008334775617
H            0.85449301369487        1.31900436732735        1.32102997952927
C            1.55114900929088        0.08546691893686       -0.29335032755563
H            1.43217875657990        0.01549081765873       -1.38678052906092
C            1.11876567915520       -1.24691425149019        0.32019206676469
H            1.26997762277089       -1.24168498131679        1.41006436586627
O           -0.26235866625997       -1.47584653413239        0.02200001123909
O            1.85652304308223       -2.33037442599944       -0.18130622309585
O            2.90328856861318        0.39711795707482        0.05051741259127
O            0.94030578042730        2.44827505363558       -0.42873581908807
O           -1.64043924391995        1.84323592898712        0.65926191322977
O           -2.92559834530466       -0.99037422916712       -0.99332500732143
H           -3.22706501311191       -0.26250067927622        0.94675778855604
H           -2.67071296618490       -1.94003528056871        0.78795227156563
H            1.85600782117974       -2.27466520259563       -1.14984094560561
H            3.47397946856976       -0.23610369287849       -0.40498514782875
H            1.82414658654840        2.73693748575710       -0.16553639995717
H           -1.39820302366392        2.71254901532110        0.31109957528349
H           -3.08522437095591       -0.08896998692688       -1.30199790061529
24
 energy: -687.116822794601 gnorm: 0.000501528903 xtb: 6.7.1 (edcfbbe)
C           -2.55614769895281       -0.92695287065987        0.38994561316825
C           -1.12029905622682       -0.48606803333058        0.61538894237802
H           -0.94814690470213       -0.45040114499307        1.70432794912568
C           -0.79510567517457        0.88297041676991        0.01729664718813
H           -0.98884025730541        0.86345595845445       -1.06665297314137
C            0.67416696205651        1.20879717321283        0.24010271066517
H            0.85415883241519        1.31883863056760        1.32120713892763
C            1.55135653272464        0.08567905806008       -0.29336237905347
H            1.43253077893484        0.01578355176645       -1.38682838848716
C            1.11913307367410       -1.24698099073769        0.32017564520558
H            1.27005284440024       -1.24212593001884        1.41005969025455
O           -0.26218959821092       -1.47569210853907        0.02195854485171
O            1.85658060984729       -2.33028009900994       -0.18191669401710
O            2.90286022745571        0.39741917836578        0.05108101326376
O            0.93973971281076        2.44831500762119       -0.42837157045035
O           -1.64091376760091        1.84266935419022        0.65791243084808
O           -2.92577352074065       -0.98954300359644       -0.99323119343169
H           -3.22617813203614       -0.26189848200168        0.94708176807311
H           -2.67144084286234       -1.93973414062716        0.78789317661759
H            1.85483964695680       -2.27474632481008       -1.15009576501899
H            3.47451167494712       -0.23557286364670       -0.40359361514150
H            1.82378760648124        2.73697225079850       -0.16672651227857
H           -1.39819619286804        2.71190978424014        0.31134149671983
H           -3.08514939041676       -0.08814802174014       -1.30101285500053
24
 energy: -687.116822794601 gnorm: 0.000501528903 xtb: 6.7.1 (edcfbbe)
C           -2.55614769895281       -0.92695287065987        0.38994561316825
C           -1.12029905622682       -0.48606803333058        0.61538894237802
H           -0.94814690470213       -0.45040114499307        1.70432794912568
C           -0.79510567517457        0.88297041676991        0.01729664718813
H           -0.98884025730541        0.86345595845445       -1.06665297314137
C            0.67416696205651        1.20879717321283        0.24010271066517
H            0.85415883241519        1.31883863056760        1.32120713892763
C            1.55135653272464        0.08567905806008       -0.29336237905347
H            1.43253077893484        0.01578355176645       -1.38682838848716
C            1.11913307367410       -1.24698099073769        0.32017564520558
H            1.27005284440024       -1.24212593001884        1.41005969025455
O           -0.26218959821092       -1.47569210853907        0.02195854485171
O            1.85658060984729       -2.33028009900994       -0.18191669401710
O            2.90286022745571        0.39741917836578        0.05108101326376
O            0.93973971281076        2.44831500762119       -0.42837157045035
O           -1.64091376760091        1.84266935419022        0.65791243084808
O           -2.92577352074065       -0.98954300359644       -0.99323119343169
H           -3.22617813203614       -0.26189848200168        0.94708176807311
H           -2.67144084286234       -1.93973414062716        0.78789317661759
H            1.85483964695680       -2.27474632481008       -1.15009576501899
H            3.47451167494712       -0.23557286364670       -0.40359361514150
H            1.82378760648124        2.73697225079850       -0.16672651227857
H           -1.39819619286804        2.71190978424014        0.31134149671983
H           -3.08514939041676       -0.08814802174014       -1.30101285500053
