
                                 *****************
                                 * O   R   C   A *
                                 *****************

                                            #,                                       
                                            ###                                      
                                            ####                                     
                                            #####                                    
                                            ######                                   
                                           ########,                                 
                                     ,,################,,,,,                         
                               ,,#################################,,                 
                          ,,##########################################,,             
                       ,#########################################, ''#####,          
                    ,#############################################,,   '####,        
                  ,##################################################,,,,####,       
                ,###########''''           ''''###############################       
              ,#####''   ,,,,##########,,,,          '''####'''          '####       
            ,##' ,,,,###########################,,,                        '##       
           ' ,,###''''                  '''############,,,                           
         ,,##''                                '''############,,,,        ,,,,,,###''
      ,#''                                            '''#######################'''  
     '                                                          ''''####''''         
             ,#######,   #######,   ,#######,      ##                                
            ,#'     '#,  ##    ##  ,#'     '#,    #''#        ,####,   ,####,        
            ##       ##  ##   ,#'  ##            #'  '#       #'       #'  '#        
            ##       ##  #######   ##           ,######,      #####,   #    #        
            '#,     ,#'  ##    ##  '#,     ,#' ,#      #,     #,   #   #,  ,#        
             '#######'   ##     ##  '#######'  #'      '#     '####' # '####'        



                #########################################################
                #                        -***-                          #
                #          Department of theory and spectroscopy        #
                #                                                       #
                #                      Frank Neese                      #
                #                                                       #
                #     Directorship, Architecture, Infrastructure        #
                #                    SHARK, DRIVERS                     #
                #        Core code/Algorithms in most modules           #
                #                                                       #
                #        Max Planck Institute fuer Kohlenforschung      #
                #                Kaiser Wilhelm Platz 1                 #
                #                 D-45470 Muelheim/Ruhr                 #
                #                      Germany                          #
                #                                                       #
                #                  All rights reserved                  #
                #                        -***-                          #
                #########################################################


                         Program Version 6.0.0  -   RELEASE  -


 With contributions from (in alphabetic order):
   Daniel Aravena         : Magnetic Suceptibility
   Michael Atanasov       : Ab Initio Ligand Field Theory (pilot matlab implementation)
   Alexander A. Auer      : GIAO ZORA, VPT2 properties, NMR spectrum
   Ute Becker             : All parallelization in ORCA, NUMFREQ, NUMCALC
   Giovanni Bistoni       : ED, misc. LED, open-shell LED, HFLD
   Martin Brehm           : Molecular dynamics
   Dmytro Bykov           : pre 5.0 version of the SCF Hessian
   Marcos Casanova-Páez   : Triplet and SCS-CIS(D). UHF-(DLPNO)-IP/EA/STEOM-CCSD. UHF-CVS-IP/STEOM-CCSD
   Vijay G. Chilkuri      : MRCI spin determinant printing, contributions to CSF-ICE
   Pauline Colinet        : FMM embedding
   Dipayan Datta          : RHF DLPNO-CCSD density
   Achintya Kumar Dutta   : EOM-CC, STEOM-CC
   Nicolas Foglia         : Exact transition moments, OPA infrastructure, MCD improvements
   Dmitry Ganyushin       : Spin-Orbit,Spin-Spin,Magnetic field MRCI
   Miquel Garcia          : C-PCM and meta-GGA Hessian, CCSD/C-PCM, Gaussian charge scheme
   Tiago L. C. Gouveia    : GS-ROHF, GS-ROCIS
   Yang Guo               : DLPNO-NEVPT2, F12-NEVPT2, CIM, IAO-localization
   Andreas Hansen         : Spin unrestricted coupled pair/coupled cluster methods
   Ingolf Harden          : AUTO-CI MPn and infrastructure 
   Benjamin Helmich-Paris : MC-RPA, TRAH-(SCF,CASSCF), AVAS, COSX integrals, SCF dyn. polar.
   Lee Huntington         : MR-EOM, pCC
   Robert Izsak           : Overlap fitted RIJCOSX, COSX-SCS-MP3, EOM
   Riya Kayal             : Wick's Theorem for AUTO-CI, AUTO-CI UHF-CCSDT
   Emily Kempfer          : AUTO-CI, RHF CISDT and CCSDT
   Christian Kollmar      : KDIIS, OOCD, Brueckner-CCSD(T), CCSD density, CASPT2, CASPT2-K, improved NEVPT2
   Axel Koslowski         : Symmetry handling
   Simone Kossmann        : Meta GGA functionals, TD-DFT gradient, OOMP2, (MP2 Hessian; deprecated post 5.0)
   Lucas Lang             : DCDCAS
   Marvin Lechner         : AUTO-CI (C++ implementation), FIC-MRCC
   Spencer Leger          : CASSCF response
   Dagmar Lenk            : GEPOL surface, SMD, ORCA-2-JSON
   Dimitrios Liakos       : Extrapolation schemes; Compound Job, initial MDCI parallelization
   Dimitrios Manganas     : Further ROCIS development; embedding schemes. LFT, Crystal Embedding
   Dimitrios Pantazis     : SARC Basis sets
   Anastasios Papadopoulos: AUTO-CI, single reference methods and gradients
   Taras Petrenko         : pre 6.0 DFT Hessian and TD-DFT gradient, (ASA, deprecated), ECA, 1-Electron XAS/XES, NRVS
   Peter Pinski           : DLPNO-MP2, DLPNO-MP2 Gradient
   Christoph Reimann      : Effective Core Potentials
   Marius Retegan         : Local ZFS, SOC
   Christoph Riplinger    : Optimizer, TS searches, QM/MM, DLPNO-CCSD(T), (RO)-DLPNO pert. Triples
   Michael Roemelt        : Original ROCIS implementation
   Masaaki Saitow         : Open-shell DLPNO-CCSD energy and density
   Barbara Sandhoefer     : DKH picture change effects
   Kantharuban Sivalingam : CASSCF convergence/infrastructure, NEVPT2 and variants, FIC-MRCI
   Bernardo de Souza      : ESD, SOC TD-DFT
   Georgi Stoychev        : AutoAux, RI-MP2 NMR, DLPNO-MP2 response, X2C
   Van Anh Tran           : RI-MP2 g-tensors
   Willem Van den Heuvel  : Paramagnetic NMR
   Zikuan Wang            : NOTCH, Electric field optimization 
   Frank Wennmohs         : Technical directorship and infrastructure
   Hang Xu                : AUTO-CI-Response properties 


 We gratefully acknowledge several colleagues who have allowed us to
 interface, adapt or use parts of their codes:
   Stefan Grimme, W. Hujo, H. Kruse, P. Pracht,  : VdW corrections, initial TS optimization,
                  C. Bannwarth, S. Ehlert,         DFT functionals, gCP, sTDA/sTD-DF
                  L. Wittmann, M. Mueller
   Ed Valeev, F. Pavosevic, A. Kumar             : LibInt (2-el integral package), F12 methods
   Garnet Chan, S. Sharma, J. Yang, R. Olivares  : DMRG
   Ulf Ekstrom                                   : XCFun DFT Library
   Mihaly Kallay                                 : mrcc  (arbitrary order and MRCC methods)
   Frank Weinhold                                : gennbo (NPA and NBO analysis)
   Simon Mueller                                 : openCOSMO-RS
   Christopher J. Cramer and Donald G. Truhlar   : smd solvation model
   Lars Goerigk                                  : TD-DFT with DH, B97 family of functionals
   V. Asgeirsson, H. Jonsson                     : NEB implementation
   FAccTs GmbH                                   : IRC, NEB, NEB-TS, DLPNO-Multilevel, CI-OPT
                                                   MM, QMMM, 2- and 3-layer-ONIOM, Crystal-QMMM,
                                                   LR-CPCM, SF, NACMEs, symmetry and pop. for TD-DFT,
                                                   nearIR, NL-DFT gradient (VV10), updates on ESD,
                                                   ML-optimized integration grids, MBIS, APM,
                                                   GOAT, DOCKER, SOLVATOR, interface openCOSMO-RS
   S Lehtola, MJT Oliveira, MAL Marques          : LibXC Library
   Liviu Ungur et al                             : ANISO software


 Your calculation uses the libint2 library for the computation of 2-el integrals
 For citations please refer to: http://libint.valeyev.net

 Your ORCA version has been built with support for libXC version: 6.2.2
 For citations please refer to: https://libxc.gitlab.io

 This ORCA versions uses:
   CBLAS   interface :  Fast vector & matrix operations
   LAPACKE interface :  Fast linear algebra routines
   SCALAPACK package :  Parallel linear algebra routines
   Shared memory     :  Shared parallel matrices
   BLAS/LAPACK       :  OpenBLAS 0.3.27  USE64BITINT DYNAMIC_ARCH NO_AFFINITY SkylakeX SINGLE_THREADED
        Core in use  :  SkylakeX
   Copyright (c) 2011-2014, The OpenBLAS Project


Your calculation utilizes the geometrical counterpoise correction gCP
Please cite in your paper:
H.Kruse, S. Grimme J.Chem.Phys., 136, (2012), 154101 
   

Your calculation utilizes the DFT-NL dispersion correction.
Cite in your paper:
Vydrov, O. A.; Van Voorhis, T. J. Chem. Phys. 2010, 133, 244103
Hujo, W.; Grimme, S. J. Chem. Theory Comput. 2011, 7, 3866 
   

================================================================================

----- Orbital basis set information -----
Your calculation utilizes the basis: def2-TZVP
   F. Weigend and R. Ahlrichs, Phys. Chem. Chem. Phys. 7, 3297 (2005).

----- AuxJ basis set information -----
Your calculation utilizes the auxiliary basis: def2/J
   F. Weigend, Phys. Chem. Chem. Phys. 8, 1057 (2006).

================================================================================
                                        WARNINGS
                       Please study these warnings very carefully!
================================================================================


================================================================================
                                       INPUT FILE
================================================================================
NAME = sp_gas.inp
|  1> ! wb97x-v def2-tzvp def2/J RIJCOSX DEFGRID2 scfconv7 GCP(DFT/TZ) printgap
|  2> %output
|  3>     printlevel normal
|  4> end
|  5> * xyz 0 1
|  6> C -0.17636507356045844 -2.3517387783009127 -0.015127668467701439
|  7> C 0.4849280587838125 -1.0069204460842618 -0.003724683092109305
|  8> C 1.8847474152974042 -0.9605772735528069 -0.004269177228258645
|  9> C 2.5924710727933835 0.23374739404155398 0.002978363747813679
| 10> C 1.914938885473686 1.451215737977318 0.00901086542050879
| 11> C 0.5321312745532453 1.455037814895951 0.007050693894488014
| 12> C -0.1655526411075231 0.24409474938669037 0.0019652481368114937
| 13> N -1.6267031566944705 0.34679660374708887 0.002574641180076429
| 14> O -2.1359792815787304 1.469735838307254 -0.04082692897811755
| 15> O -2.298843284358375 -0.6826791273608604 0.04849540076015906
| 16> H -0.7992046373115902 -2.5013007921817105 0.8710067576698864
| 17> H -0.8294045369284055 -2.4727023488430038 -0.883815168807964
| 18> H 0.5910885092151557 -3.127954882546445 -0.04072391402980972
| 19> H 2.426712349146209 -1.9007159002976153 -0.011039566994082688
| 20> H 3.6773776340417017 0.21336766736047758 0.003474863754407327
| 21> H 2.458839356899971 2.389069271658858 0.015182626523231754
| 22> H -0.017063781040899628 2.3871692635200707 0.012181836102404952
| 23> *
| 24> 
| 25>                          ****END OF INPUT****
================================================================================

                       ****************************
                       * Single Point Calculation *
                       ****************************

---------------------------------
CARTESIAN COORDINATES (ANGSTROEM)
---------------------------------
  C     -0.176365   -2.351739   -0.015128
  C      0.484928   -1.006920   -0.003725
  C      1.884747   -0.960577   -0.004269
  C      2.592471    0.233747    0.002978
  C      1.914939    1.451216    0.009011
  C      0.532131    1.455038    0.007051
  C     -0.165553    0.244095    0.001965
  N     -1.626703    0.346797    0.002575
  O     -2.135979    1.469736   -0.040827
  O     -2.298843   -0.682679    0.048495
  H     -0.799205   -2.501301    0.871007
  H     -0.829405   -2.472702   -0.883815
  H      0.591089   -3.127955   -0.040724
  H      2.426712   -1.900716   -0.011040
  H      3.677378    0.213368    0.003475
  H      2.458839    2.389069    0.015183
  H     -0.017064    2.387169    0.012182

----------------------------
CARTESIAN COORDINATES (A.U.)
----------------------------
  NO LB      ZA    FRAG     MASS         X           Y           Z
   0 C     6.0000    0    12.011   -0.333282   -4.444142   -0.028587
   1 C     6.0000    0    12.011    0.916381   -1.902804   -0.007039
   2 C     6.0000    0    12.011    3.561656   -1.815228   -0.008068
   3 C     6.0000    0    12.011    4.899060    0.441719    0.005628
   4 C     6.0000    0    12.011    3.618710    2.742400    0.017028
   5 C     6.0000    0    12.011    1.005582    2.749623    0.013324
   6 C     6.0000    0    12.011   -0.312849    0.461272    0.003714
   7 N     7.0000    0    14.007   -3.074023    0.655351    0.004865
   8 O     8.0000    0    15.999   -4.036416    2.777398   -0.077152
   9 O     8.0000    0    15.999   -4.344184   -1.290077    0.091643
  10 H     1.0000    0     1.008   -1.510278   -4.726773    1.645964
  11 H     1.0000    0     1.008   -1.567347   -4.672730   -1.670169
  12 H     1.0000    0     1.008    1.116995   -5.910978   -0.076957
  13 H     1.0000    0     1.008    4.585822   -3.591833   -0.020862
  14 H     1.0000    0     1.008    6.949237    0.403206    0.006567
  15 H     1.0000    0     1.008    4.646533    4.514687    0.028691
  16 H     1.0000    0     1.008   -0.032246    4.511096    0.023020

--------------------------------
INTERNAL COORDINATES (ANGSTROEM)
--------------------------------
 C      0   0   0     0.000000000000     0.00000000     0.00000000
 C      1   0   0     1.498657726643     0.00000000     0.00000000
 C      2   1   0     1.400586383264   118.08001542     0.00000000
 C      3   2   1     1.388285530377   122.54533874   179.86304740
 C      4   3   2     1.393310957545   120.25459024   359.89540104
 C      5   4   3     1.382814282311   119.25396387   359.96954214
 C      6   5   4     1.397559235179   119.79008777     0.13608559
 N      7   6   5     1.464755567134   115.92746594   179.89790345
 O      8   7   6     1.233790254534   118.39574538     2.54810377
 O      8   7   6     1.230325708224   119.09850701   182.67828911
 H      1   2   3     1.093403923240   111.58818148   119.25881265
 H      1   2   3     1.093485573458   111.64370777   238.65323684
 H      1   2   3     1.091856954913   109.14508679   358.98722534
 H      3   2   1     1.085187755735   118.06569436   359.88722256
 H      4   3   2     1.085098072255   119.57335449   179.92227840
 H      5   4   3     1.084174830962   120.79319756   179.96972959
 H      6   5   4     1.081901370377   120.66332676   179.96576161

---------------------------
INTERNAL COORDINATES (A.U.)
---------------------------
 C      0   0   0     0.000000000000     0.00000000     0.00000000
 C      1   0   0     2.832052671841     0.00000000     0.00000000
 C      2   1   0     2.646724691268   118.08001542     0.00000000
 C      3   2   1     2.623479448098   122.54533874   179.86304740
 C      4   3   2     2.632976129153   120.25459024   359.89540104
 C      5   4   3     2.613140287643   119.25396387   359.96954214
 C      6   5   4     2.641004210422   119.79008777     0.13608559
 N      7   6   5     2.767986875019   115.92746594   179.89790345
 O      8   7   6     2.331525687771   118.39574538     2.54810377
 O      8   7   6     2.324978644066   119.09850701   182.67828911
 H      1   2   3     2.066233968678   111.58818148   119.25881265
 H      1   2   3     2.066388265230   111.64370777   238.65323684
 H      1   2   3     2.063310622203   109.14508679   358.98722534
 H      3   2   1     2.050707662224   118.06569436   359.88722256
 H      4   3   2     2.050538185008   119.57335449   179.92227840
 H      5   4   3     2.048793511809   120.79319756   179.96972959
 H      6   5   4     2.044497293927   120.66332676   179.96576161

---------------------
BASIS SET INFORMATION
---------------------
There are 4 groups of distinct atoms

 Group   1 Type C   : 11s6p2d1f contracted to 5s3p2d1f pattern {62111/411/11/1}
 Group   2 Type N   : 11s6p2d1f contracted to 5s3p2d1f pattern {62111/411/11/1}
 Group   3 Type O   : 11s6p2d1f contracted to 5s3p2d1f pattern {62111/411/11/1}
 Group   4 Type H   : 5s1p contracted to 3s1p pattern {311/1}

Atom   0C    basis set group =>   1
Atom   1C    basis set group =>   1
Atom   2C    basis set group =>   1
Atom   3C    basis set group =>   1
Atom   4C    basis set group =>   1
Atom   5C    basis set group =>   1
Atom   6C    basis set group =>   1
Atom   7N    basis set group =>   2
Atom   8O    basis set group =>   3
Atom   9O    basis set group =>   3
Atom  10H    basis set group =>   4
Atom  11H    basis set group =>   4
Atom  12H    basis set group =>   4
Atom  13H    basis set group =>   4
Atom  14H    basis set group =>   4
Atom  15H    basis set group =>   4
Atom  16H    basis set group =>   4
---------------------------------
AUXILIARY/J BASIS SET INFORMATION
---------------------------------
There are 4 groups of distinct atoms

 Group   1 Type C   : 12s5p4d2f1g contracted to 6s4p3d1f1g pattern {711111/2111/211/2/1}
 Group   2 Type N   : 12s5p4d2f1g contracted to 6s4p3d1f1g pattern {711111/2111/211/2/1}
 Group   3 Type O   : 12s5p4d2f1g contracted to 6s4p3d1f1g pattern {711111/2111/211/2/1}
 Group   4 Type H   : 5s2p1d contracted to 3s1p1d pattern {311/2/1}

Atom   0C    basis set group =>   1
Atom   1C    basis set group =>   1
Atom   2C    basis set group =>   1
Atom   3C    basis set group =>   1
Atom   4C    basis set group =>   1
Atom   5C    basis set group =>   1
Atom   6C    basis set group =>   1
Atom   7N    basis set group =>   2
Atom   8O    basis set group =>   3
Atom   9O    basis set group =>   3
Atom  10H    basis set group =>   4
Atom  11H    basis set group =>   4
Atom  12H    basis set group =>   4
Atom  13H    basis set group =>   4
Atom  14H    basis set group =>   4
Atom  15H    basis set group =>   4
Atom  16H    basis set group =>   4

Checking for AutoStart:
The File: sp_gas.gbw exists
Trying to determine its content:
     ... Fine, the file contains calculation information
     ... Fine, the calculation information was read
     ... Fine, the file contains a basis set
     ... Fine, the basis set was read
     ... Fine, the file contains a geometry
     ... Fine, the geometry was read
     ... Fine, the file contains a set of orbitals
     ... Fine, the orbitals can be read
     => possible old guess file was deleted
     => GBW file was renamed to GES file
     => GES file is set as startup file
     => Guess is set to MORead
     ... now leaving AutoStart

------------------------------------------------------------------------------
                             ORCA STARTUP CALCULATIONS
                           -- RI-GTO INTEGRALS CHOSEN --
------------------------------------------------------------------------------
------------------------------------------------------------------------------
                   ___                                                        
                  /   \      - P O W E R E D   B Y -                         
                 /     \                                                     
                 |  |  |   _    _      __       _____    __    __             
                 |  |  |  | |  | |    /  \     |  _  \  |  |  /  |          
                  \  \/   | |  | |   /    \    | | | |  |  | /  /          
                 / \  \   | |__| |  /  /\  \   | |_| |  |  |/  /          
                |  |  |   |  __  | /  /__\  \  |    /   |      \           
                |  |  |   | |  | | |   __   |  |    \   |  |\   \          
                \     /   | |  | | |  |  |  |  | |\  \  |  | \   \       
                 \___/    |_|  |_| |__|  |__|  |_| \__\ |__|  \__/        
                                                                              
                      - O R C A' S   B I G   F R I E N D -                    
                                      &                                       
                       - I N T E G R A L  F E E D E R -                       
                                                                              
 v1 FN, 2020, v2 2021, v3 2022-2024                                           
------------------------------------------------------------------------------


----------------------
SHARK INTEGRAL PACKAGE
----------------------

Number of atoms                             ...     17
Number of basis functions                   ...    352
Number of shells                            ...    138
Maximum angular momentum                    ...      3
Integral batch strategy                     ... SHARK/LIBINT Hybrid
RI-J (if used) integral strategy            ... SPLIT-RIJ (Revised 2003 algorithm where possible)
Printlevel                                  ...      1
Contraction scheme used                     ... SEGMENTED contraction
Prescreening option                         ... SCHWARTZ
   Thresh                                   ... 3.000e-11
   Tcut                                     ... 1.000e-12
   Tpresel                                  ... 1.000e-12 
Coulomb Range Separation                    ... NOT USED
Exchange Range Separation                   ... Long Range
   Mu parameter                             ... 3.000e-01
   Scaling (regular/separated)              ... 1.670e-01 8.330e-01
Multipole approximations                    ... NOT USED
Finite Nucleus Model                        ... NOT USED
CABS basis                                  ... NOT available
Auxiliary Coulomb fitting basis             ... AVAILABLE
   # of basis functions in Aux-J            ...    567
   # of shells in Aux-J                     ...    185
   Maximum angular momentum in Aux-J        ...      4
Auxiliary J/K fitting basis                 ... NOT available
Auxiliary Correlation fitting basis         ... NOT available
Auxiliary 'external' fitting basis          ... NOT available

Checking pre-screening integrals            ... done (  0.0 sec) Dimension = 138
Check shell pair data                       ... done (  0.0 sec)
Shell pair information
Shell pair cut-off parameter TPreSel        ...   1.0e-12
Total number of shell pairs                 ...      9591
Shell pairs after pre-screening             ...      8611
Total number of primitive shell pairs       ...     29644
Primitive shell pairs kept                  ...     19597
          la=0 lb=0:   2175 shell pairs
          la=1 lb=0:   2387 shell pairs
          la=1 lb=1:    665 shell pairs
          la=2 lb=0:   1280 shell pairs
          la=2 lb=1:    699 shell pairs
          la=2 lb=2:    199 shell pairs
          la=3 lb=0:    618 shell pairs
          la=3 lb=1:    350 shell pairs
          la=3 lb=2:    187 shell pairs
          la=3 lb=3:     51 shell pairs

Calculating one electron integrals          ... done (  0.0 sec)
Calculating RI/J V-Matrix + Cholesky decomp.... done (  0.1 sec)
Calculating Nuclear repulsion               ... done (  0.0 sec) ENN=    505.145854540263 Eh

Diagonalization of the overlap matrix:
Smallest eigenvalue                        ... 7.019e-06
Time for diagonalization                   ...    0.014 sec
Threshold for overlap eigenvalues          ... 1.000e-07
Number of eigenvalues below threshold      ... 0
Time for construction of square roots      ...    0.022 sec
Total time needed                          ...    0.044 sec

-------------------
DFT GRID GENERATION
-------------------

General Integration Accuracy     IntAcc      ... 4.388
Radial Grid Type                 RadialGrid  ... OptM3 with GC (2021)
Angular Grid (max. ang.)         AngularGrid ... 4 (Lebedev-302)
Angular grid pruning method      GridPruning ... 4 (adaptive)
Weight generation scheme         WeightScheme... mBecke (2022)
Basis function cutoff            BFCut       ... 1.0000e-11
Integration weight cutoff        WCut        ... 1.0000e-14
Partially contracted basis set               ... off
Rotationally invariant grid construction     ... off
Angular grids for H and He will be reduced by one unit

Total number of grid points                  ...    82667
Total number of batches                      ...     1300
Average number of points per batch           ...       63
Average number of grid points per atom       ...     4863

--------------------
COSX GRID GENERATION
--------------------

GRIDX 1
-------
General Integration Accuracy     IntAcc      ... 3.816
Radial Grid Type                 RadialGrid  ... OptM3 with GC (2021)
Angular Grid (max. ang.)         AngularGrid ... 1 (Lebedev-50)
Angular grid pruning method      GridPruning ... 4 (adaptive)
Weight generation scheme         WeightScheme... mBecke (2022)
Basis function cutoff            BFCut       ... 1.0000e-11
Integration weight cutoff        WCut        ... 1.0000e-14
Partially contracted basis set               ... on
Rotationally invariant grid construction     ... off
Angular grids for H and He will be reduced by one unit

Total number of grid points                  ...    10547
Total number of batches                      ...       90
Average number of points per batch           ...      117
Average number of grid points per atom       ...      620
UseSFitting                                  ... on

GRIDX 2
-------
General Integration Accuracy     IntAcc      ... 4.020
Radial Grid Type                 RadialGrid  ... OptM3 with GC (2021)
Angular Grid (max. ang.)         AngularGrid ... 2 (Lebedev-110)
Angular grid pruning method      GridPruning ... 4 (adaptive)
Weight generation scheme         WeightScheme... mBecke (2022)
Basis function cutoff            BFCut       ... 1.0000e-11
Integration weight cutoff        WCut        ... 1.0000e-14
Partially contracted basis set               ... on
Rotationally invariant grid construction     ... off
Angular grids for H and He will be reduced by one unit

Total number of grid points                  ...    23242
Total number of batches                      ...      190
Average number of points per batch           ...      122
Average number of grid points per atom       ...     1367
UseSFitting                                  ... on

GRIDX 3
-------
General Integration Accuracy     IntAcc      ... 4.338
Radial Grid Type                 RadialGrid  ... OptM3 with GC (2021)
Angular Grid (max. ang.)         AngularGrid ... 3 (Lebedev-194)
Angular grid pruning method      GridPruning ... 4 (adaptive)
Weight generation scheme         WeightScheme... mBecke (2022)
Basis function cutoff            BFCut       ... 1.0000e-11
Integration weight cutoff        WCut        ... 1.0000e-14
Partially contracted basis set               ... on
Rotationally invariant grid construction     ... off
Angular grids for H and He will be reduced by one unit

Total number of grid points                  ...    51190
Total number of batches                      ...      409
Average number of points per batch           ...      125
Average number of grid points per atom       ...     3011
UseSFitting                                  ... on
Initializing property integral containers    ... done (  0.0 sec)

SHARK setup successfully completed in   2.6 seconds

Maximum memory used throughout the entire STARTUP-calculation: 52.9 MB
-------------------------------------------------------------------------------
                                 ORCA GUESS
                   Start orbitals & Density for SCF / CASSCF
-------------------------------------------------------------------------------

------------
SCF SETTINGS
------------
Hamiltonian:
 Density Functional     Method          .... DFT(GTOs)
 Exchange Functional    Exchange        .... WB97X-V
 Correlation Functional Correlation     .... WB97X-V
 Gradients option       PostSCFGGA      .... off
 Hybrid DFT is turned on
   Fraction HF Exchange ScalHFX         ....  0.167000
   Scaling of DF-GGA-X  ScalDFX         ....  0.000000
   Scaling of DF-GGA-C  ScalDFC         ....  1.000000
   Scaling of DF-LDA-C  ScalLDAC        ....  1.000000
   Perturbative correction              ....  0.000000
 Long-range corrected/Screened/Range-Separated Hybrid DFT is turned on
   Amount of maximum screened exact exchange              ....  0.833000
   Range separation parameter mu (erf(mu*r12)/r12)        ....  0.300000
   NL short-range parameter             ....  6.000000
   NL long-range parameter              ....  0.010000
 RI-approximation to the Coulomb term is turned on
   Number of AuxJ basis functions       .... 567
   RIJ-COSX (HFX calculated with COS-X)).... on


General Settings:
 Integral files         IntName         .... sp_gas
 Hartree-Fock type      HFTyp           .... RHF
 Total Charge           Charge          ....    0
 Multiplicity           Mult            ....    1
 Number of Electrons    NEL             ....   72
 Basis Dimension        Dim             ....  352
 Nuclear Repulsion      ENuc            ....    505.1458545403 Eh

Convergence Acceleration:
 AO-DIIS                CNVDIIS         .... on
   Start iteration      DIISMaxIt       ....    12
   Startup error        DIISStart       ....  0.200000
   # of expansion vecs  DIISMaxEq       ....     5
   Bias factor          DIISBfac        ....   1.050
   Max. coefficient     DIISMaxC        ....  10.000
 MO-DIIS                CNVKDIIS        .... off
 Trust-Rad. Augm. Hess. CNVTRAH         .... auto
   Auto Start mean grad. ratio tolernc. ....  1.125000
   Auto Start start iteration           ....     1
   Auto Start num. interpolation iter.  ....    10
   Max. Number of Micro iterations      ....    24
   Max. Number of Macro iterations      .... Maxiter - #DIIS iter
   Number of Davidson start vectors     ....     2
   Converg. threshold    (grad. norm)   ....   1.000e-04
   Grad. Scal. Fac. for Micro threshold ....   0.100
   Minimum threshold for Micro iter.    ....   1.000e-02
   NR start threshold (gradient norm)   ....   1.000e-04
   Initial trust radius                 ....   0.400
   Minimum AH scaling param. (alpha)    ....   1.000
   Maximum AH scaling param. (alpha)    .... 1000.000
   Quad. conv. algorithm                .... NR
   White noise on init. David. guess    .... on
   Maximum white noise                  ....   0.010
   Pseudo random numbers                .... off
   Inactive MOs                         .... canonical
   Orbital update algorithm             .... Taylor
   Preconditioner                       .... Diag
   Full preconditioner red. dimension   ....   250
 SOSCF                  CNVSOSCF        .... on
   Start iteration      SOSCFMaxIt      ....   150
   Startup grad/error   SOSCFStart      ....  0.003300
   Hessian update       SOSCFHessUp     .... L-BFGS
 Level Shifting         CNVShift        .... on
   Level shift para.    LevelShift      ....    0.2500
   Turn off err/grad.   ShiftErr        ....    0.0010
 Zerner damping         CNVZerner       .... off
 Static damping         CNVDamp         .... on
   Fraction old density DampFac         ....    0.7000
   Max. Damping (<1)    DampMax         ....    0.9800
   Min. Damping (>=0)   DampMin         ....    0.0000
   Turn off err/grad.   DampErr         ....    0.1000

SCF Procedure:
 Maximum # iterations   MaxIter         ....   125
 SCF integral mode      SCFMode         .... Direct
   Integral package                     .... SHARK and LIBINT hybrid scheme
 Reset frequency        DirectResetFreq ....    20
 Integral Threshold     Thresh          ....  3.000e-11 Eh
 Primitive CutOff       TCut            ....  1.000e-12 Eh

Convergence Tolerance:
 Convergence Check Mode ConvCheckMode   .... Total+1el-Energy
 Convergence forced     ConvForced      .... 0
 Energy Change          TolE            ....  1.000e-07 Eh
 1-El. energy change                    ....  1.000e-04 Eh
 Orbital Gradient       TolG            ....  1.000e-04
 Orbital Rotation angle TolX            ....  1.000e-04
 DIIS Error             TolErr          ....  1.000e-07

---------------------
INITIAL GUESS: MOREAD
---------------------
Guess MOs are being read from file: sp_gas.ges
Input Geometry matches current geometry (good)
Atom 0: N(Shells)= 11 and 9 - projection required
Input basis set needs projection
NBasis(read)= 240
NBasis(calc)= 352
Basis set overlap was calculated
Using GuessMode=FMatrix for the initial guess
C*T matrix was formed
Effective Fockian was calculated
Effective Fockian was diagonalized
Initial density was built
                      ------------------
                      INITIAL GUESS DONE (   0.1 sec)
                      ------------------
             **** ENERGY FILE WAS UPDATED (sp_gas.en.tmp) ****
Finished Guess after   0.3 sec
Maximum memory used throughout the entire GUESS-calculation: 35.2 MB

-------------------------------------------------------------------------------------------
                                      ORCA LEAN-SCF
                              memory conserving SCF solver
-------------------------------------------------------------------------------------------

----------------------------------------D-I-I-S--------------------------------------------
Iteration    Energy (Eh)           Delta-E    RMSDP     MaxDP     DIISErr   Damp  Time(sec)
-------------------------------------------------------------------------------------------
               ***  Starting incremental Fock matrix formation  ***
    1    -476.3469956226949762     0.00e+00  1.70e-03  5.53e-02  7.22e-02  0.700  24.7
    2    -476.3554511242519993    -8.46e-03  1.40e-03  4.37e-02  5.34e-02  0.700  11.7
                               ***Turning on AO-DIIS***
    3    -476.3618045644977883    -6.35e-03  1.10e-03  3.51e-02  3.88e-02  0.700  11.7
    4    -476.3664620466225870    -4.66e-03  2.68e-03  8.66e-02  2.73e-02  0.000  11.7
    5    -476.3783975299008944    -1.19e-02  1.16e-04  6.05e-03  3.30e-03  0.000  11.7
                              *** Initializing SOSCF ***
---------------------------------------S-O-S-C-F--------------------------------------
Iteration    Energy (Eh)           Delta-E    RMSDP     MaxDP     MaxGrad    Time(sec)
--------------------------------------------------------------------------------------
    6    -476.3784976526043238    -1.00e-04  5.22e-05  1.90e-03  1.92e-03    10.7
               *** Restarting incremental Fock matrix formation ***
    7    -476.3785344140090956    -3.68e-05  3.13e-05  1.13e-03  1.06e-03    24.7
    8    -476.3785508742491857    -1.65e-05  3.90e-05  1.96e-03  2.77e-04    18.9
    9    -476.3785561556190942    -5.28e-06  8.75e-06  2.47e-04  1.90e-04    19.0
   10    -476.3785567351343389    -5.80e-07  5.29e-06  2.12e-04  7.31e-05    17.4
   11    -476.3785568080055555    -7.29e-08  1.90e-06  4.86e-05  3.33e-05    16.2
                 **** Energy Check signals convergence ****

               *****************************************************
               *                     SUCCESS                       *
               *           SCF CONVERGED AFTER  11 CYCLES          *
               *****************************************************


------------------
NL GRID GENERATION
------------------

General Integration Accuracy     IntAcc      ... 4.004
Radial Grid Type                 RadialGrid  ... OptM3 with GC (2021)
Angular Grid (max. ang.)         AngularGrid ... 2 (Lebedev-110)
Angular grid pruning method      GridPruning ... 4 (adaptive)
Weight generation scheme         WeightScheme... mBecke (2022)
Basis function cutoff            BFCut       ... 1.0000e-10
Integration weight cutoff        WCut        ... 1.0000e-14
Partially contracted basis set               ... off
Rotationally invariant grid construction     ... off
Angular grids for H and He will be reduced by one unit

Total number of grid points                  ...    26680
Total number of batches                      ...      426
Average number of points per batch           ...       62
Average number of grid points per atom       ...     1569
Final grid set up in    0.2 sec

-------------------------------------------------------------------------------
                    post-SCF DFT-NL dispersion correction                      
-------------------------------------------------------------------------------

SCF Energy:     -476.378556808 
NL    Energy:      0.274924878 
SC+NL Energy:   -476.103631930 
NL done in  :              3.2 sec
-------------------------------------------------------------------------------
Recomputing exchange energy using gridx3       ... done (   45.741 sec)
Old exchange energy                            :    -19.723113203 Eh
New exchange energy                            :    -19.723081362 Eh
Exchange energy change after final integration :      0.000031841 Eh
Total energy after final integration           :   -476.103600089 Eh
             **** ENERGY FILE WAS UPDATED (sp_gas.en.tmp) ****

----------------
TOTAL SCF ENERGY
----------------

Total Energy       :       -476.10360008856611 Eh          -12955.43760 eV

Components:
Nuclear Repulsion  :        505.14585454026303 Eh           13745.71752 eV
Electronic Energy  :       -981.52441134826859 Eh          -26708.63707 eV
One Electron Energy:      -1647.17124619373544 Eh          -44821.80831 eV
Two Electron Energy:        665.64683484546686 Eh           18113.17123 eV

Virial components:
Potential Energy   :       -950.43049475540988 Eh          -25862.52859 eV
Kinetic Energy     :        474.32689466684371 Eh           12907.09099 eV
Virial Ratio       :          2.00374574042016

DFT components:
N(Alpha)           :       36.000060100785 electrons
N(Beta)            :       36.000060100785 electrons
N(Total)           :       72.000120201569 electrons
E(X)               :      -42.050597363063 Eh       
E(C)               :       -3.037852081160 Eh       
NL Energy, E(C,NL) :        0.274924878260 Eh       
E(XC)              :      -44.813524565963 Eh       

---------------
SCF CONVERGENCE
---------------

  Last Energy change         ...    7.2871e-08  Tolerance :   1.0000e-07
  Last MAX-Density change    ...    4.8623e-05  Tolerance :   1.0000e-05
  Last RMS-Density change    ...    1.9040e-06  Tolerance :   1.0000e-06
  Last DIIS Error            ...    1.9236e-03  Tolerance :   1.0000e-07
  Last Orbital Gradient      ...    3.3312e-05  Tolerance :   1.0000e-04
  Last Orbital Rotation      ...    6.5788e-05  Tolerance :   1.0000e-04


----------------
ORBITAL ENERGIES
----------------

  NO   OCC          E(Eh)            E(eV) 
   0   2.0000     -21.706012      -590.6506 
   1   2.0000     -21.703606      -590.5851 
   2   2.0000     -16.772788      -456.4108 
   3   2.0000     -12.121716      -329.8487 
   4   2.0000     -12.100742      -329.2779 
   5   2.0000     -12.082659      -328.7859 
   6   2.0000     -12.081808      -328.7627 
   7   2.0000     -12.074986      -328.5771 
   8   2.0000     -12.074340      -328.5595 
   9   2.0000     -12.055746      -328.0535 
  10   2.0000      -1.898446       -51.6593 
  11   2.0000      -1.741893       -47.3993 
  12   2.0000      -1.438529       -39.1444 
  13   2.0000      -1.371006       -37.3070 
  14   2.0000      -1.324273       -36.0353 
  15   2.0000      -1.274016       -34.6677 
  16   2.0000      -1.213580       -33.0232 
  17   2.0000      -1.174504       -31.9599 
  18   2.0000      -1.145070       -31.1589 
  19   2.0000      -1.117689       -30.4139 
  20   2.0000      -1.085767       -29.5452 
  21   2.0000      -1.072705       -29.1898 
  22   2.0000      -0.990399       -26.9501 
  23   2.0000      -0.970432       -26.4068 
  24   2.0000      -0.931331       -25.3428 
  25   2.0000      -0.916603       -24.9420 
  26   2.0000      -0.900866       -24.5138 
  27   2.0000      -0.895697       -24.3732 
  28   2.0000      -0.891959       -24.2714 
  29   2.0000      -0.862330       -23.4652 
  30   2.0000      -0.853749       -23.2317 
  31   2.0000      -0.842157       -22.9163 
  32   2.0000      -0.825322       -22.4582 
  33   2.0000      -0.794441       -21.6178 
  34   2.0000      -0.683685       -18.6040 
  35   2.0000      -0.662752       -18.0344 
  36   0.0000      -0.481249       -13.0954 
  37   0.0000      -0.266624        -7.2552 
  38   0.0000      -0.261138        -7.1059 
  39   0.0000      -0.231781        -6.3071 
  40   0.0000      -0.121702        -3.3117 
  41   0.0000      -0.109994        -2.9931 
  42   0.0000      -0.096416        -2.6236 
  43   0.0000      -0.049553        -1.3484 
  44   0.0000      -0.037876        -1.0306 
  45   0.0000      -0.013079        -0.3559 
  46   0.0000      -0.002502        -0.0681 
*Only the first 10 virtual orbitals were printed.

                    ********************************
                    * MULLIKEN POPULATION ANALYSIS *
                    ********************************

-----------------------
MULLIKEN ATOMIC CHARGES
-----------------------
   0 C :   -0.303760
   1 C :    0.048036
   2 C :   -0.166670
   3 C :   -0.103354
   4 C :   -0.106329
   5 C :   -0.148469
   6 C :    0.004389
   7 N :    0.472861
   8 O :   -0.322477
   9 O :   -0.312464
  10 H :    0.140460
  11 H :    0.139862
  12 H :    0.108410
  13 H :    0.122072
  14 H :    0.130572
  15 H :    0.131277
  16 H :    0.165586
Sum of atomic charges:   -0.0000000

--------------------------------
MULLIKEN REDUCED ORBITAL CHARGES
--------------------------------
  0 C s       :     3.244651  s :     3.244651
      pz      :     1.088478  p :     3.001165
      px      :     1.027215
      py      :     0.885472
      dz2     :     0.006160  d :     0.054697
      dxz     :     0.012644
      dyz     :     0.010005
      dx2y2   :     0.009548
      dxy     :     0.016341
      f0      :     0.000271  f :     0.003247
      f+1     :     0.001002
      f-1     :     0.000036
      f+2     :     0.000140
      f-2     :     0.000231
      f+3     :     0.000616
      f-3     :     0.000950

  1 C s       :     3.213744  s :     3.213744
      pz      :     0.864593  p :     2.579022
      px      :     0.874931
      py      :     0.839497
      dz2     :     0.006650  d :     0.149170
      dxz     :     0.026384
      dyz     :     0.024704
      dx2y2   :     0.043279
      dxy     :     0.048153
      f0      :     0.001737  f :     0.010027
      f+1     :     0.000626
      f-1     :     0.000804
      f+2     :     0.001105
      f-2     :     0.001016
      f+3     :     0.001429
      f-3     :     0.003309

  2 C s       :     3.184928  s :     3.184928
      pz      :     0.987014  p :     2.885611
      px      :     0.922233
      py      :     0.976364
      dz2     :     0.005015  d :     0.088544
      dxz     :     0.016780
      dyz     :     0.008993
      dx2y2   :     0.028386
      dxy     :     0.029370
      f0      :     0.001622  f :     0.007587
      f+1     :     0.000633
      f-1     :     0.000638
      f+2     :     0.000808
      f-2     :     0.000443
      f+3     :     0.001159
      f-3     :     0.002285

  3 C s       :     3.176541  s :     3.176541
      pz      :     0.919768  p :     2.830444
      px      :     0.982347
      py      :     0.928329
      dz2     :     0.004492  d :     0.088936
      dxz     :     0.005487
      dyz     :     0.024295
      dx2y2   :     0.031824
      dxy     :     0.022838
      f0      :     0.001601  f :     0.007433
      f+1     :     0.000669
      f-1     :     0.000574
      f+2     :     0.000192
      f-2     :     0.001168
      f+3     :     0.001063
      f-3     :     0.002166

  4 C s       :     3.163418  s :     3.163418
      pz      :     0.973742  p :     2.852628
      px      :     0.921748
      py      :     0.957138
      dz2     :     0.004317  d :     0.082848
      dxz     :     0.016678
      dyz     :     0.009434
      dx2y2   :     0.024236
      dxy     :     0.028183
      f0      :     0.001636  f :     0.007435
      f+1     :     0.000607
      f-1     :     0.000677
      f+2     :     0.000854
      f-2     :     0.000370
      f+3     :     0.001056
      f-3     :     0.002234

  5 C s       :     3.211014  s :     3.211014
      pz      :     0.914937  p :     2.836152
      px      :     0.933091
      py      :     0.988123
      dz2     :     0.006503  d :     0.093621
      dxz     :     0.020841
      dyz     :     0.011116
      dx2y2   :     0.025011
      dxy     :     0.030150
      f0      :     0.001644  f :     0.007682
      f+1     :     0.000629
      f-1     :     0.000669
      f+2     :     0.000956
      f-2     :     0.000520
      f+3     :     0.001096
      f-3     :     0.002168

  6 C s       :     3.091086  s :     3.091086
      pz      :     1.059013  p :     2.760337
      px      :     0.783186
      py      :     0.918138
      dz2     :     0.005311  d :     0.132331
      dxz     :     0.013896
      dyz     :     0.026764
      dx2y2   :     0.052613
      dxy     :     0.033747
      f0      :     0.002058  f :     0.011857
      f+1     :     0.001283
      f-1     :     0.000766
      f+2     :     0.000779
      f-2     :     0.001053
      f+3     :     0.002071
      f-3     :     0.003847

  7 N s       :     3.238580  s :     3.238580
      pz      :     1.090464  p :     3.019835
      px      :     1.061497
      py      :     0.867875
      dz2     :     0.005356  d :     0.254708
      dxz     :     0.019875
      dyz     :     0.068217
      dx2y2   :     0.095370
      dxy     :     0.065890
      f0      :     0.001468  f :     0.014016
      f+1     :     0.000753
      f-1     :     0.001044
      f+2     :     0.000878
      f-2     :     0.002283
      f+3     :     0.002094
      f-3     :     0.005495

  8 O s       :     3.874525  s :     3.874525
      pz      :     1.427795  p :     4.401865
      px      :     1.732176
      py      :     1.241893
      dz2     :     0.005126  d :     0.042756
      dxz     :     0.002794
      dyz     :     0.010036
      dx2y2   :     0.011371
      dxy     :     0.013429
      f0      :     0.000293  f :     0.003331
      f+1     :     0.000109
      f-1     :     0.000425
      f+2     :     0.000277
      f-2     :     0.000375
      f+3     :     0.001100
      f-3     :     0.000752

  9 O s       :     3.871447  s :     3.871447
      pz      :     1.418617  p :     4.394691
      px      :     1.649278
      py      :     1.326796
      dz2     :     0.005158  d :     0.042978
      dxz     :     0.004572
      dyz     :     0.008456
      dx2y2   :     0.009402
      dxy     :     0.015390
      f0      :     0.000293  f :     0.003348
      f+1     :     0.000166
      f-1     :     0.000363
      f+2     :     0.000110
      f-2     :     0.000556
      f+3     :     0.001119
      f-3     :     0.000742

 10 H s       :     0.838075  s :     0.838075
      pz      :     0.009819  p :     0.021465
      px      :     0.007593
      py      :     0.004053

 11 H s       :     0.838714  s :     0.838714
      pz      :     0.009559  p :     0.021425
      px      :     0.007872
      py      :     0.003993

 12 H s       :     0.870110  s :     0.870110
      pz      :     0.004262  p :     0.021480
      px      :     0.008042
      py      :     0.009176

 13 H s       :     0.855574  s :     0.855574
      pz      :     0.004599  p :     0.022354
      px      :     0.006162
      py      :     0.011594

 14 H s       :     0.847423  s :     0.847423
      pz      :     0.004206  p :     0.022005
      px      :     0.014272
      py      :     0.003526

 15 H s       :     0.846516  s :     0.846516
      pz      :     0.004544  p :     0.022207
      px      :     0.006132
      py      :     0.011532

 16 H s       :     0.811343  s :     0.811343
      pz      :     0.004022  p :     0.023071
      px      :     0.007421
      py      :     0.011629


------------------------
MULLIKEN OVERLAP CHARGES
------------------------
B(  0-C ,  1-C ) :   0.6623 B(  0-C ,  2-C ) :  -0.1421 B(  0-C ,  6-C ) :  -0.1517 
B(  0-C , 10-H ) :   0.8166 B(  0-C , 11-H ) :   0.8217 B(  0-C , 12-H ) :   0.8343 
B(  1-C ,  2-C ) :   1.0397 B(  1-C ,  4-C ) :  -0.1222 B(  1-C ,  6-C ) :   0.6099 
B(  1-C ,  9-O ) :  -0.0803 B(  1-C , 12-H ) :  -0.1493 B(  1-C , 13-H ) :  -0.1031 
B(  2-C ,  3-C ) :   0.9421 B(  2-C ,  5-C ) :  -0.1976 B(  2-C , 13-H ) :   0.8533 
B(  2-C , 14-H ) :  -0.0898 B(  3-C ,  4-C ) :   0.9420 B(  3-C ,  6-C ) :  -0.1936 
B(  3-C , 13-H ) :  -0.0943 B(  3-C , 14-H ) :   0.8584 B(  3-C , 15-H ) :  -0.0922 
B(  4-C ,  5-C ) :   0.8949 B(  4-C , 14-H ) :  -0.0919 B(  4-C , 15-H ) :   0.8622 
B(  4-C , 16-H ) :  -0.0884 B(  5-C ,  6-C ) :   0.6370 B(  5-C ,  7-N ) :  -0.1431 
B(  5-C ,  8-O ) :   0.0865 B(  5-C , 15-H ) :  -0.0897 B(  5-C , 16-H ) :   0.8370 
B(  6-C ,  7-N ) :   0.7825 B(  6-C ,  8-O ) :  -0.2906 B(  6-C ,  9-O ) :  -0.1245 
B(  6-C , 16-H ) :  -0.0644 B(  7-N ,  8-O ) :   0.8540 B(  7-N ,  9-O ) :   0.8090 
B(  8-O ,  9-O ) :  -0.2325 B(  8-O , 16-H ) :   0.0511 B( 10-H , 12-H ) :  -0.0517 
B( 11-H , 12-H ) :  -0.0521 


                     *******************************
                     * LOEWDIN POPULATION ANALYSIS *
                     *******************************

----------------------
LOEWDIN ATOMIC CHARGES
----------------------
   0 C :   -0.249451
   1 C :   -0.114101
   2 C :   -0.106947
   3 C :   -0.112695
   4 C :   -0.133445
   5 C :   -0.087791
   6 C :   -0.130588
   7 N :    0.000724
   8 O :   -0.039517
   9 O :   -0.021467
  10 H :    0.134935
  11 H :    0.134608
  12 H :    0.123978
  13 H :    0.148770
  14 H :    0.147261
  15 H :    0.146803
  16 H :    0.158923

-------------------------------
LOEWDIN REDUCED ORBITAL CHARGES
-------------------------------
  0 C s       :     2.813423  s :     2.813423
      pz      :     1.079659  p :     3.153131
      px      :     1.058724
      py      :     1.014748
      dz2     :     0.037838  d :     0.258008
      dxz     :     0.056645
      dyz     :     0.033529
      dx2y2   :     0.045601
      dxy     :     0.084394
      f0      :     0.001847  f :     0.024890
      f+1     :     0.003834
      f-1     :     0.003069
      f+2     :     0.003800
      f-2     :     0.001759
      f+3     :     0.004156
      f-3     :     0.006425

  1 C s       :     2.714606  s :     2.714606
      pz      :     0.795100  p :     2.829039
      px      :     1.029668
      py      :     1.004272
      dz2     :     0.031473  d :     0.513205
      dxz     :     0.077183
      dyz     :     0.081114
      dx2y2   :     0.158723
      dxy     :     0.164711
      f0      :     0.004254  f :     0.057251
      f+1     :     0.003853
      f-1     :     0.004167
      f+2     :     0.007866
      f-2     :     0.006657
      f+3     :     0.009334
      f-3     :     0.021120

  2 C s       :     2.754910  s :     2.754910
      pz      :     0.895002  p :     2.930380
      px      :     1.023349
      py      :     1.012030
      dz2     :     0.026255  d :     0.379521
      dxz     :     0.054210
      dyz     :     0.026809
      dx2y2   :     0.120050
      dxy     :     0.152197
      f0      :     0.003013  f :     0.042135
      f+1     :     0.004017
      f-1     :     0.003427
      f+2     :     0.005363
      f-2     :     0.002768
      f+3     :     0.007984
      f-3     :     0.015562

  3 C s       :     2.764279  s :     2.764279
      pz      :     0.847648  p :     2.916232
      px      :     0.993968
      py      :     1.074616
      dz2     :     0.025281  d :     0.388845
      dxz     :     0.012374
      dyz     :     0.082002
      dx2y2   :     0.166994
      dxy     :     0.102194
      f0      :     0.003132  f :     0.043339
      f+1     :     0.003122
      f-1     :     0.004279
      f+2     :     0.001329
      f-2     :     0.007921
      f+3     :     0.007809
      f-3     :     0.015748

  4 C s       :     2.760318  s :     2.760318
      pz      :     0.888783  p :     2.947979
      px      :     1.048500
      py      :     1.010695
      dz2     :     0.025291  d :     0.381583
      dxz     :     0.055820
      dyz     :     0.027992
      dx2y2   :     0.118869
      dxy     :     0.153612
      f0      :     0.003145  f :     0.043565
      f+1     :     0.004083
      f-1     :     0.003493
      f+2     :     0.005932
      f-2     :     0.002610
      f+3     :     0.007972
      f-3     :     0.016329

  5 C s       :     2.759307  s :     2.759307
      pz      :     0.843859  p :     2.902407
      px      :     1.054655
      py      :     1.003893
      dz2     :     0.025332  d :     0.382080
      dxz     :     0.066768
      dyz     :     0.033632
      dx2y2   :     0.106557
      dxy     :     0.149791
      f0      :     0.003372  f :     0.043996
      f+1     :     0.003990
      f-1     :     0.003482
      f+2     :     0.006534
      f-2     :     0.003633
      f+3     :     0.008192
      f-3     :     0.014795

  6 C s       :     2.717037  s :     2.717037
      pz      :     0.939008  p :     2.829754
      px      :     0.831083
      py      :     1.059663
      dz2     :     0.041138  d :     0.519725
      dxz     :     0.048701
      dyz     :     0.079774
      dx2y2   :     0.207262
      dxy     :     0.142849
      f0      :     0.004547  f :     0.064073
      f+1     :     0.006690
      f-1     :     0.004353
      f+2     :     0.005481
      f-2     :     0.007359
      f+3     :     0.013043
      f-3     :     0.022600

  7 N s       :     2.931132  s :     2.931132
      pz      :     1.005882  p :     3.250518
      px      :     1.146038
      py      :     1.098599
      dz2     :     0.041956  d :     0.747003
      dxz     :     0.052997
      dyz     :     0.159279
      dx2y2   :     0.274803
      dxy     :     0.217969
      f0      :     0.002437  f :     0.070623
      f+1     :     0.002853
      f-1     :     0.006236
      f+2     :     0.004240
      f-2     :     0.012698
      f+3     :     0.011403
      f-3     :     0.030757

  8 O s       :     3.504314  s :     3.504314
      pz      :     1.387242  p :     4.427923
      px      :     1.668078
      py      :     1.372603
      dz2     :     0.013132  d :     0.096725
      dxz     :     0.003989
      dyz     :     0.018202
      dx2y2   :     0.028153
      dxy     :     0.033249
      f0      :     0.000887  f :     0.010556
      f+1     :     0.000460
      f-1     :     0.001606
      f+2     :     0.000713
      f-2     :     0.000856
      f+3     :     0.003473
      f-3     :     0.002562

  9 O s       :     3.499156  s :     3.499156
      pz      :     1.378262  p :     4.414350
      px      :     1.610925
      py      :     1.425163
      dz2     :     0.013283  d :     0.097243
      dxz     :     0.006842
      dyz     :     0.015750
      dx2y2   :     0.023506
      dxy     :     0.037862
      f0      :     0.000902  f :     0.010719
      f+1     :     0.000689
      f-1     :     0.001389
      f+2     :     0.000299
      f-2     :     0.001310
      f+3     :     0.003532
      f-3     :     0.002599

 10 H s       :     0.803837  s :     0.803837
      pz      :     0.028394  p :     0.061228
      px      :     0.020922
      py      :     0.011911

 11 H s       :     0.804235  s :     0.804235
      pz      :     0.027698  p :     0.061157
      px      :     0.021650
      py      :     0.011810

 12 H s       :     0.816306  s :     0.816306
      pz      :     0.013428  p :     0.059716
      px      :     0.023968
      py      :     0.022320

 13 H s       :     0.792777  s :     0.792777
      pz      :     0.013448  p :     0.058453
      px      :     0.016185
      py      :     0.028820

 14 H s       :     0.794784  s :     0.794784
      pz      :     0.012137  p :     0.057955
      px      :     0.035124
      py      :     0.010695

 15 H s       :     0.794660  s :     0.794660
      pz      :     0.013105  p :     0.058536
      px      :     0.016484
      py      :     0.028947

 16 H s       :     0.778858  s :     0.778858
      pz      :     0.012079  p :     0.062218
      px      :     0.019762
      py      :     0.030377


---------------------------------
LOEWDIN BOND ORDERS (THRESH 0.050000)
---------------------------------
B(  0-C ,  1-C ) :   1.2185 B(  0-C ,  2-C ) :   0.1871 B(  0-C ,  6-C ) :   0.1524 
B(  0-C ,  9-O ) :   0.0646 B(  0-C , 10-H ) :   0.8840 B(  0-C , 11-H ) :   0.8841 
B(  0-C , 12-H ) :   0.8836 B(  1-C ,  2-C ) :   1.4658 B(  1-C ,  3-C ) :   0.2323 
B(  1-C ,  4-C ) :   0.0959 B(  1-C ,  5-C ) :   0.2102 B(  1-C ,  6-C ) :   1.3936 
B(  1-C ,  7-N ) :   0.1240 B(  1-C , 10-H ) :   0.0831 B(  1-C , 11-H ) :   0.0830 
B(  1-C , 12-H ) :   0.0876 B(  1-C , 13-H ) :   0.0933 B(  2-C ,  3-C ) :   1.5878 
B(  2-C ,  4-C ) :   0.2414 B(  2-C ,  5-C ) :   0.1076 B(  2-C ,  6-C ) :   0.2351 
B(  2-C , 13-H ) :   0.8162 B(  2-C , 14-H ) :   0.0977 B(  3-C ,  4-C ) :   1.5579 
B(  3-C ,  5-C ) :   0.2513 B(  3-C ,  6-C ) :   0.1043 B(  3-C , 13-H ) :   0.0965 
B(  3-C , 14-H ) :   0.8281 B(  3-C , 15-H ) :   0.0940 B(  4-C ,  5-C ) :   1.5971 
B(  4-C ,  6-C ) :   0.2406 B(  4-C , 14-H ) :   0.0942 B(  4-C , 15-H ) :   0.8282 
B(  4-C , 16-H ) :   0.0969 B(  5-C ,  6-C ) :   1.4719 B(  5-C ,  7-N ) :   0.1440 
B(  5-C ,  8-O ) :   0.0627 B(  5-C , 15-H ) :   0.0984 B(  5-C , 16-H ) :   0.8100 
B(  6-C ,  7-N ) :   1.0945 B(  6-C ,  8-O ) :   0.1759 B(  6-C ,  9-O ) :   0.1687 
B(  6-C , 16-H ) :   0.0949 B(  7-N ,  8-O ) :   2.2512 B(  7-N ,  9-O ) :   2.2578 
B(  8-O ,  9-O ) :   0.3570 

------------------------------------------
LOEWDIN REDUCED ORBITAL POPULATIONS PER MO
-------------------------------------------
THRESHOLD FOR PRINTING IS 0.1%%
                      0         1         2         3         4         5   
                 -21.70601 -21.70361 -16.77279 -12.12172 -12.10074 -12.08266
                   2.00000   2.00000   2.00000   2.00000   2.00000   2.00000
                  --------  --------  --------  --------  --------  --------
 1 C  s               0.0       0.0       0.0       0.2      98.4       0.0
 1 C  dxy             0.0       0.0       0.0       0.1       0.0       0.0
 2 C  s               0.0       0.0       0.0       0.0       0.2       0.0
 2 C  dx2y2           0.0       0.0       0.0       0.0       0.2       0.0
 4 C  s               0.0       0.0       0.0       0.0       0.0       1.7
 4 C  px              0.0       0.0       0.0       0.0       0.0       0.1
 4 C  dx2y2           0.0       0.0       0.0       0.0       0.0       0.2
 5 C  s               0.0       0.0       0.0       0.1       0.0      97.0
 5 C  dxy             0.0       0.0       0.0       0.2       0.0       0.0
 6 C  s               0.0       0.0       0.0      98.6       0.2       0.1
 6 C  dxy             0.0       0.0       0.0       0.0       0.1       0.1
 7 N  s               0.0       0.0      99.5       0.0       0.0       0.0
 8 O  s               0.1      99.8       0.0       0.0       0.0       0.0
 9 O  s              99.8       0.1       0.0       0.0       0.0       0.0

                      6         7         8         9        10        11   
                 -12.08181 -12.07499 -12.07434 -12.05575  -1.89845  -1.74189
                   2.00000   2.00000   2.00000   2.00000   2.00000   2.00000
                  --------  --------  --------  --------  --------  --------
 0 C  s               0.0       0.0       0.0      99.5       0.0       0.0
 1 C  s               0.0       0.0       0.1       0.0       0.1       0.0
 1 C  px              0.0       0.0       0.1       0.0       0.3       0.1
 1 C  py              0.0       0.0       0.0       0.1       0.1       0.0
 1 C  dx2y2           0.0       0.1       0.1       0.0       0.0       0.0
 2 C  s               1.8      24.7      72.3       0.0       0.0       0.0
 2 C  dxy             0.2       0.0       0.0       0.0       0.0       0.0
 3 C  s              95.0       0.3       3.6       0.0       0.0       0.0
 3 C  py              0.0       0.1       0.0       0.0       0.0       0.0
 3 C  dz2             0.0       0.0       0.1       0.0       0.0       0.0
 3 C  dxy             0.0       0.3       0.0       0.0       0.0       0.0
 4 C  s               2.1      72.4      22.8       0.0       0.0       0.0
 4 C  dxy             0.1       0.0       0.0       0.0       0.0       0.0
 5 C  s               0.0       1.5       0.3       0.0       0.1       0.0
 5 C  px              0.0       0.1       0.0       0.0       0.4       0.1
 5 C  dx2y2           0.0       0.2       0.1       0.0       0.0       0.0
 6 C  s               0.0       0.0       0.0       0.0       1.3       0.0
 6 C  px              0.0       0.0       0.0       0.0       3.6       0.0
 6 C  py              0.0       0.0       0.0       0.0       0.0       0.5
 6 C  dz2             0.0       0.0       0.0       0.0       0.4       0.0
 6 C  dx2y2           0.0       0.0       0.0       0.0       1.0       0.0
 6 C  dxy             0.0       0.0       0.0       0.0       0.0       0.6
 6 C  f-3             0.0       0.0       0.0       0.0       0.0       0.1
 7 N  s               0.0       0.0       0.0       0.0      31.4       0.0
 7 N  px              0.0       0.0       0.0       0.0       4.6       0.2
 7 N  py              0.0       0.0       0.0       0.0       0.0      35.1
 7 N  dz2             0.0       0.0       0.0       0.0       1.1       0.0
 7 N  dx2y2           0.0       0.0       0.0       0.0       1.0       0.1
 7 N  dxy             0.0       0.0       0.0       0.0       0.0       4.5
 7 N  f-1             0.0       0.0       0.0       0.0       0.0       0.3
 7 N  f+3             0.0       0.0       0.0       0.0       0.4       0.0
 8 O  s               0.0       0.0       0.0       0.0      18.7      27.2
 8 O  px              0.0       0.0       0.0       0.0       0.8       0.6
 8 O  py              0.0       0.0       0.0       0.0       5.4       1.7
 8 O  dz2             0.0       0.0       0.0       0.0       0.2       0.0
 8 O  dx2y2           0.0       0.0       0.0       0.0       0.5       0.0
 8 O  dxy             0.0       0.0       0.0       0.0       0.2       0.2
 9 O  s               0.0       0.0       0.0       0.0      20.1      25.8
 9 O  px              0.0       0.0       0.0       0.0       1.6       0.9
 9 O  py              0.0       0.0       0.0       0.0       4.8       1.3
 9 O  dz2             0.0       0.0       0.0       0.0       0.2       0.0
 9 O  dx2y2           0.0       0.0       0.0       0.0       0.2       0.0
 9 O  dxy             0.0       0.0       0.0       0.0       0.5       0.2

                     12        13        14        15        16        17   
                  -1.43853  -1.37101  -1.32427  -1.27402  -1.21358  -1.17450
                   2.00000   2.00000   2.00000   2.00000   2.00000   2.00000
                  --------  --------  --------  --------  --------  --------
 0 C  s               1.2       0.3       8.1       2.1      20.9       2.1
 0 C  px              0.3       0.1       0.7       0.1       0.0       0.7
 0 C  py              1.2       0.1       2.0       0.3       0.2       0.0
 0 C  dz2             0.0       0.0       0.2       0.0       0.0       0.0
 0 C  dx2y2           0.1       0.0       0.1       0.0       0.0       0.0
 0 C  dxy             0.1       0.0       0.4       0.0       0.0       0.2
 1 C  s               9.9       1.6      15.4       1.7       0.1       0.8
 1 C  px              0.0       4.0       0.2       3.1       3.2       4.1
 1 C  py              2.6       0.1       2.0       0.1      12.0       0.5
 1 C  dz2             0.7       0.1       0.3       0.0       0.0       0.0
 1 C  dx2y2           0.0       0.1       0.1       1.6       0.5       0.0
 1 C  dxy             0.2       0.7       0.0       0.0       1.0       0.0
 1 C  f+3             0.1       0.0       0.2       0.0       0.0       0.0
 2 C  s               5.2       9.1       5.4       5.3       2.9       0.8
 2 C  px              1.3       0.0       4.3       4.0       0.1       2.7
 2 C  py              1.0       2.0       1.4       1.9       0.4       0.9
 2 C  dz2             0.3       0.4       0.1       0.0       0.0       0.0
 2 C  dx2y2           0.1       0.1       1.2       0.4       0.1       0.3
 2 C  dxy             0.0       0.3       0.0       0.5       0.3       0.3
 3 C  s               3.9      12.1       1.1      10.8       0.0       4.1
 3 C  px              1.8       1.9       0.1       0.3       0.0       0.6
 3 C  py              0.0       0.0       5.8       1.3       5.8       0.8
 3 C  dz2             0.2       0.4       0.0       0.1       0.0       0.0
 3 C  dx2y2           0.0       0.1       0.0       0.3       0.0       0.1
 3 C  dxy             0.0       0.0       1.4       0.3       0.8       0.1
 3 C  f+3             0.0       0.1       0.0       0.1       0.0       0.0
 4 C  s               4.7       7.7      11.5       0.0       5.7       0.2
 4 C  px              1.1       0.1       1.2       6.6       0.1       4.9
 4 C  py              1.1       2.2       0.2       2.2       0.3       1.1
 4 C  dz2             0.3       0.3       0.2       0.0       0.0       0.0
 4 C  dx2y2           0.0       0.1       0.4       1.3       0.0       0.3
 4 C  dxy             0.0       0.2       0.1       0.5       0.1       0.2
 4 C  f+3             0.0       0.1       0.1       0.0       0.0       0.0
 5 C  s               9.0       0.7       9.5       8.5       0.0       2.4
 5 C  px              0.0       4.5       2.2       0.4       4.4       0.3
 5 C  py              3.4       0.0       0.2       0.6       1.7       0.0
 5 C  dz2             0.5       0.0       0.2       0.1       0.0       0.0
 5 C  dx2y2           0.0       0.1       0.8       0.2       0.8       0.3
 5 C  dxy             0.4       0.7       0.0       0.2       0.1       0.0
 6 C  s              19.8       2.8       0.0       3.4       2.8       0.3
 6 C  px              0.7       7.9       0.0       5.5       0.6       7.7
 6 C  py              0.0       0.1      10.3       0.5       0.1       0.2
 6 C  dz2             0.9       0.0       0.0       0.0       0.0       0.0
 6 C  dx2y2           0.0       0.5       0.2       2.0       0.0       0.1
 6 C  dxy             0.0       0.0       1.8       0.3       0.2       0.0
 6 C  f+1             0.0       0.1       0.0       0.1       0.0       0.0
 6 C  f+3             0.3       0.1       0.0       0.0       0.0       0.0
 7 N  s               2.8       5.0       0.1       4.5       1.1       1.0
 7 N  px             12.8      12.0       0.1       0.5       0.9      15.4
 7 N  py              0.1       0.1       0.1       0.0       0.0       0.1
 7 N  dz2             0.0       0.1       0.0       0.3       0.2       0.3
 7 N  dx2y2           0.9       0.8       0.0       0.1       0.0       0.3
 7 N  dxy             0.0       0.0       0.1       0.0       0.0       0.0
 8 O  s               2.4       4.7       0.2       4.5       1.8       5.2
 8 O  px              0.9       1.6       0.1       0.8       0.1       0.2
 8 O  py              0.3       1.1       0.1       3.8       3.1      13.8
 8 O  dx2y2           0.0       0.0       0.0       0.1       0.1       0.5
 8 O  dxy             0.1       0.3       0.0       0.2       0.0       0.0
 9 O  s               2.2       4.5       0.0       5.1       2.7       4.5
 9 O  px              1.0       1.9       0.0       1.9       0.7       0.1
 9 O  py              0.1       0.7       0.0       3.7       3.1      14.5
 9 O  dx2y2           0.1       0.0       0.0       0.0       0.1       0.5
 9 O  dxy             0.1       0.2       0.0       0.2       0.1       0.1
10 H  s               0.1       0.1       1.4       0.5       5.2       0.9
10 H  pz              0.0       0.0       0.1       0.0       0.4       0.1
10 H  px              0.0       0.0       0.1       0.0       0.2       0.0
11 H  s               0.2       0.1       1.4       0.5       5.2       0.9
11 H  pz              0.0       0.0       0.1       0.0       0.3       0.1
11 H  px              0.0       0.0       0.1       0.0       0.2       0.0
12 H  s               0.2       0.1       1.6       0.4       5.4       0.6
12 H  px              0.0       0.0       0.0       0.0       0.3       0.0
12 H  py              0.0       0.0       0.1       0.0       0.3       0.0
13 H  s               0.6       1.2       0.9       1.0       0.5       0.2
13 H  py              0.0       0.1       0.1       0.1       0.1       0.0
14 H  s               0.4       1.5       0.2       2.1       0.0       1.6
14 H  px              0.0       0.1       0.0       0.3       0.0       0.2
15 H  s               0.5       1.0       1.7       0.0       1.6       0.1
15 H  py              0.0       0.1       0.1       0.0       0.1       0.0
16 H  s               1.0       0.1       1.4       1.7       0.0       0.4
16 H  py              0.1       0.0       0.1       0.2       0.0       0.0

                     18        19        20        21        22        23   
                  -1.14507  -1.11769  -1.08577  -1.07271  -0.99040  -0.97043
                   2.00000   2.00000   2.00000   2.00000   2.00000   2.00000
                  --------  --------  --------  --------  --------  --------
 0 C  s               1.3       1.7       2.1       0.0       0.0       0.5
 0 C  px              0.0       0.1       1.1       0.0       2.8       0.9
 0 C  py              0.4       1.3       0.9       0.0       0.1       4.9
 0 C  dz2             0.0       0.0       0.1       0.0       0.0       0.1
 0 C  dx2y2           0.2       0.3       0.1       0.0       0.2       0.2
 0 C  dxy             0.0       0.0       0.2       0.0       0.2       0.1
 1 C  s               0.9       2.5       0.8       0.0       0.0       1.1
 1 C  pz              0.0       0.0       0.0       0.1       0.0       0.0
 1 C  px              1.3       2.8       6.5       0.0       9.7       2.5
 1 C  py              2.7       5.0       1.6       0.0       3.5       0.6
 1 C  dx2y2           0.0       0.2       2.0       0.0       0.1       0.0
 1 C  dxy             0.3       0.3       0.4       0.0       0.0       0.5
 2 C  s               1.5       4.2       1.7       0.0       0.1       0.2
 2 C  px              0.9       2.7       5.8       0.0      10.7       1.8
 2 C  py              0.2       0.8       5.3       0.0       4.0       3.8
 2 C  dx2y2           0.0       0.1       0.1       0.0       0.1       0.6
 2 C  dxy             0.1       0.2       0.1       0.0       0.0       0.2
 3 C  s               0.0       0.1       4.1       0.0       0.0       1.3
 3 C  px              0.0       0.0       1.4       0.0       0.1      19.7
 3 C  py              2.9       9.1       0.9       0.0      16.6       0.0
 3 C  dx2y2           0.0       0.0       0.2       0.0       0.0       0.0
 3 C  dxy             0.1       0.2       0.0       0.0       0.1       0.0
 4 C  s               1.0       1.5       4.3       0.0       0.0       0.4
 4 C  px              0.7       4.6       1.0       0.0      12.8       3.1
 4 C  py              0.0       0.6       5.7       0.0       3.7       8.0
 4 C  dx2y2           0.0       0.1       0.0       0.0       0.1       0.3
 4 C  dxy             0.0       0.0       0.0       0.0       0.0       0.4
 4 C  f-3             0.0       0.0       0.0       0.0       0.1       0.0
 5 C  s               1.2       4.4       0.1       0.0       0.1       1.0
 5 C  pz              0.0       0.0       0.0       0.1       0.0       0.0
 5 C  px              1.7       1.5       7.9       0.0      10.1       3.9
 5 C  py              0.1       1.1       6.5       0.0       4.6       7.6
 5 C  dx2y2           0.0       0.0       1.3       0.0       0.1       0.3
 6 C  s               0.2       0.6       2.7       0.0       0.0       0.2
 6 C  pz              0.0       0.0       0.0       2.5       0.0       0.0
 6 C  px              0.2       1.0       5.1       0.0       0.0       0.2
 6 C  py              7.8      10.3       1.2       0.0      12.7       0.5
 6 C  dxz             0.0       0.0       0.0       1.7       0.0       0.0
 6 C  dx2y2           0.0       0.0       1.5       0.0       0.0       2.2
 6 C  dxy             0.1       1.4       0.3       0.0       0.1       0.1
 6 C  f0              0.0       0.0       0.0       0.1       0.0       0.0
 6 C  f+2             0.0       0.0       0.0       0.2       0.0       0.0
 6 C  f-3             0.0       0.1       0.0       0.0       0.1       0.0
 7 N  s               0.0       0.0       0.3       0.0       0.0       0.1
 7 N  pz              0.0       0.0       0.0      49.5       0.0       0.0
 7 N  px              0.3       0.5       5.3       0.0       0.0       0.3
 7 N  py             11.8       5.9       0.1       0.1       0.6       0.0
 7 N  dxz             0.0       0.0       0.0       0.4       0.0       0.0
 7 N  dx2y2           0.0       0.0       0.5       0.0       0.1       0.3
 7 N  dxy             1.1       0.1       0.0       0.0       0.8       0.0
 7 N  f0              0.0       0.0       0.0       0.1       0.0       0.0
 8 O  s               7.1       3.0       0.1       0.0       0.1       0.0
 8 O  pz              0.0       0.0       0.0      20.7       0.0       0.0
 8 O  px              8.8       1.5       2.1       0.0       0.1       0.4
 8 O  py             11.3       9.4       1.1       0.0       1.0       0.1
 8 O  dz2             0.1       0.0       0.0       0.0       0.0       0.0
 8 O  dxz             0.0       0.0       0.0       0.2       0.0       0.0
 8 O  dyz             0.0       0.0       0.0       0.9       0.0       0.0
 8 O  dxy             0.4       0.1       0.1       0.0       0.0       0.0
 9 O  s               7.3       1.8       0.5       0.0       0.0       0.0
 9 O  pz              0.0       0.0       0.0      21.7       0.0       0.0
 9 O  px              9.8       5.6       0.4       0.0       0.4       1.4
 9 O  py             10.7       2.4       4.0       0.0       1.3       0.6
 9 O  dz2             0.1       0.0       0.0       0.0       0.0       0.0
 9 O  dxz             0.0       0.0       0.0       0.3       0.0       0.0
 9 O  dyz             0.0       0.0       0.0       0.8       0.0       0.0
 9 O  dx2y2           0.0       0.0       0.1       0.0       0.0       0.0
 9 O  dxy             0.3       0.1       0.0       0.0       0.0       0.0
10 H  s               0.5       0.6       1.2       0.0       0.3       0.9
10 H  pz              0.0       0.0       0.1       0.0       0.0       0.1
11 H  s               0.5       0.6       1.2       0.0       0.4       0.9
11 H  pz              0.0       0.0       0.1       0.0       0.0       0.1
12 H  s               0.7       1.1       0.6       0.0       0.3       0.9
12 H  px              0.0       0.1       0.1       0.0       0.0       0.1
13 H  s               0.9       3.0       1.2       0.0       0.0       1.9
13 H  px              0.0       0.0       0.2       0.0       0.1       0.0
13 H  py              0.1       0.3       0.0       0.0       0.1       0.1
14 H  s               0.0       0.0       2.7       0.0       0.1      11.5
14 H  px              0.0       0.0       0.3       0.0       0.0       0.5
14 H  py              0.0       0.1       0.0       0.0       0.2       0.0
15 H  s               0.4       0.7       3.5       0.0       0.0       4.4
15 H  px              0.0       0.0       0.2       0.0       0.1       0.0
15 H  py              0.0       0.1       0.1       0.0       0.1       0.1
16 H  s               0.7       3.2       0.1       0.0       0.1       7.1
16 H  px              0.0       0.0       0.1       0.0       0.2       0.1
16 H  py              0.1       0.2       0.0       0.0       0.0       0.3

                     24        25        26        27        28        29   
                  -0.93133  -0.91660  -0.90087  -0.89570  -0.89196  -0.86233
                   2.00000   2.00000   2.00000   2.00000   2.00000   2.00000
                  --------  --------  --------  --------  --------  --------
 0 C  s               0.2       0.2       0.3       0.1       0.0       0.1
 0 C  pz              0.0       0.0       0.0       0.0       0.2       0.0
 0 C  px              0.4       0.2       5.4       0.5       0.0       3.0
 0 C  py              4.2       1.1      10.1       2.5       0.0      11.6
 0 C  dz2             0.0       0.1       0.1       0.0       0.0       0.1
 0 C  dx2y2           0.1       0.1       0.2       0.0       0.0       0.1
 0 C  dxy             0.1       0.0       0.2       0.0       0.0       0.2
 1 C  s               1.3       0.0       0.3       0.0       0.0       0.0
 1 C  px              0.1       0.1       2.2       2.5       0.0       5.9
 1 C  py              1.1       0.6       9.5       0.8       0.0       1.4
 1 C  dz2             0.1       0.0       0.0       0.0       0.0       0.0
 1 C  dx2y2           0.0       0.0       0.0       0.5       0.0       0.1
 1 C  dxy             1.3       0.0       0.0       0.1       0.0       0.4
 1 C  f-3             0.1       0.0       0.1       0.3       0.0       0.1
 2 C  s               1.2       0.0       0.2       0.2       0.0       0.4
 2 C  px              3.6       0.0       0.4       3.9       0.0       5.5
 2 C  py              7.0       1.4       0.1       8.9       0.0       0.3
 2 C  dz2             0.0       0.0       0.0       0.1       0.0       0.0
 2 C  dx2y2           0.3       0.0       0.2       0.0       0.0       1.3
 2 C  dxy             1.3       0.0       0.7       0.2       0.0       0.4
 2 C  f-3             0.0       0.0       0.2       0.0       0.0       0.2
 3 C  s               1.0       0.0       0.2       0.1       0.0       0.4
 3 C  px              0.0       0.8       0.7       3.7       0.0      15.8
 3 C  py              0.0       0.6       0.2       0.3       0.0       0.1
 3 C  dx2y2           1.5       0.0       0.1       0.0       0.0       4.9
 3 C  dxy             0.0       0.0       0.5       0.8       0.0       0.0
 3 C  f-3             0.0       0.0       0.2       0.3       0.0       0.0
 4 C  s               1.3       0.0       0.3       0.1       0.0       0.2
 4 C  px              1.0       0.0       5.0       2.5       0.0       6.4
 4 C  py              4.0       0.5       7.8       1.1       0.0       0.4
 4 C  dx2y2           0.1       0.2       0.1       0.6       0.0       1.1
 4 C  dxy             1.7       0.0       0.7       0.1       0.0       0.4
[...]
 7 N  py              0.0       0.0       0.0       0.5       0.3      14.4
 7 N  dz2             0.0       0.2       1.3       0.0       7.5       0.2
 7 N  dyz             6.8       0.0       0.0       0.0       0.1       0.0
 7 N  dx2y2           0.0       4.6       1.5       0.1       3.7       0.8
 7 N  dxy             0.0       0.1       0.0       4.2       0.9      16.0
 7 N  f+1             0.0       1.3       0.3       0.0       0.8       0.0
 7 N  f-1             0.0       0.0       0.0       0.0       0.0       1.9
 7 N  f+2             0.2       0.0       0.0       0.1       0.0       0.0
 7 N  f-2             7.6       0.0       0.0       0.0       0.0       0.0
 7 N  f+3             0.0       0.0       8.5       1.2       7.5       0.0
 7 N  f-3             0.0       0.0       0.4      26.6       0.0       3.0
 8 O  s               0.0       0.1       1.2       1.1       5.3       7.1
 8 O  pz              1.5       0.0       0.0       0.0       0.0       0.0
 8 O  px              0.0       1.3       0.2       0.6       0.5       3.1
 8 O  py              0.0       0.6       1.2       1.8       3.9       4.8
 8 O  dz2             0.2       0.0       7.8       0.0       0.3       1.1
 8 O  dxz             5.5       0.0       0.0       0.0       0.0       0.0
 8 O  dyz            13.5       0.0       0.1       0.0       0.0       0.0
 8 O  dx2y2           0.1      16.4       9.8       3.6       2.7       0.2
 8 O  dxy             0.1      13.8      12.9       0.8       1.3       2.8
 8 O  f0              6.6       0.0       0.0       0.0       0.0       0.0
 8 O  f+1             0.0       0.2       1.0       0.7       0.2       2.0
 8 O  f-1             0.2       1.0       2.5       0.4       1.4       4.6
 8 O  f+2             7.0       0.1       0.0       0.1       0.0       0.0
 8 O  f-2             7.3       0.0       0.0       0.0       0.0       0.1
 8 O  f+3             0.0       1.0       2.1       0.0       4.6      11.5
 8 O  f-3             0.0       9.4       0.1      22.7       0.1       0.4
 9 O  s               0.0       0.1       1.2       1.5       8.7       3.2
 9 O  pz              1.6       0.0       0.0       0.0       0.0       0.0
 9 O  px              0.0       1.1       0.4       0.2       2.8       2.5
 9 O  py              0.0       0.8       1.1       2.6       5.2       1.5
 9 O  dz2             0.0       0.0       8.0       0.1       0.5       0.7
 9 O  dxz             8.2       0.0       0.0       0.0       0.0       0.0
 9 O  dyz            11.0       0.0       0.1       0.0       0.0       0.0
 9 O  dx2y2           0.0      22.6       4.1       3.3       1.3       0.3
 9 O  dxy             0.0       6.5      21.6       0.7       2.8       2.9
 9 O  f0              6.9       0.0       0.0       0.0       0.0       0.0
 9 O  f+1             0.1       0.1       1.5       0.4       1.6       1.7
 9 O  f-1             0.2       1.1       2.1       0.7       2.6       2.1
 9 O  f+2             3.1       0.1       0.0       0.1       0.0       0.0
 9 O  f-2            11.8       0.0       0.0       0.0       0.1       0.0
 9 O  f+3             0.0       0.1       2.1       5.8       7.5       3.7
 9 O  f-3             0.0      11.2       0.2      16.9       2.7       2.5

                    342       343       344       345       346       347   
                  20.59950  20.85389  21.04203  21.07141  21.24558  21.30561
                   0.00000   0.00000   0.00000   0.00000   0.00000   0.00000
                  --------  --------  --------  --------  --------  --------
 0 C  s               0.0      87.1       7.1       0.8       0.3       2.3
 1 C  s               8.2       1.7       2.3       0.2      22.2      23.6
 1 C  px              0.2       0.0       0.0       0.2       0.0       0.3
 1 C  py              0.0       0.2       0.0       0.1       0.2       0.0
 1 C  dx2y2           0.0       0.0       0.0       0.1       0.0       0.2
 1 C  dxy             0.0       0.1       0.0       0.0       0.0       0.0
 2 C  s              21.3       1.6      18.9      18.9      10.8      17.2
 2 C  px              0.0       0.0       0.2       0.0       0.1       0.2
 2 C  py              0.1       0.0       0.2       0.0       0.0       0.0
 3 C  s              22.4       2.3      32.1      24.6      12.8       0.0
 3 C  py              0.0       0.0       0.2       0.4       0.0       0.0
 3 C  dxy             0.0       0.0       0.1       0.1       0.0       0.0
 4 C  s              23.6       2.9      14.3      38.7      12.3       1.7
 4 C  px              0.0       0.0       0.2       0.2       0.1       0.0
 5 C  s              16.3       0.1      22.4      14.1      36.1       1.5
 5 C  px              0.3       0.1       0.1       0.1       0.0       0.1
 5 C  py              0.0       0.0       0.0       0.0       0.0       0.1
 6 C  s               5.7       2.5       0.9       0.2       3.3      51.3
 6 C  px              0.2       0.0       0.0       0.0       0.0       0.0
 6 C  py              0.0       0.0       0.0       0.3       0.5       0.1
 6 C  dx2y2           0.2       0.0       0.0       0.0       0.0       0.1
 6 C  dxy             0.0       0.0       0.0       0.1       0.2       0.0
 7 N  px              0.2       0.0       0.0       0.0       0.0       0.3
 7 N  dx2y2           0.1       0.0       0.0       0.0       0.0       0.2
10 H  s               0.0       0.2       0.0       0.0       0.0       0.0
11 H  s               0.0       0.2       0.0       0.0       0.0       0.0
12 H  s               0.0       0.2       0.0       0.0       0.0       0.0
13 H  s               0.1       0.0       0.0       0.0       0.0       0.0
15 H  s               0.1       0.0       0.0       0.1       0.0       0.0
16 H  s               0.1       0.0       0.0       0.0       0.1       0.0

                    348       349       350       351   
                  21.73010  30.52472  41.72446  41.79052
                   0.00000   0.00000   0.00000   0.00000
                  --------  --------  --------  --------
 0 C  s               0.2       0.0       0.0       0.0
 1 C  s              40.0       0.0       0.0       0.0
 1 C  dxy             0.1       0.0       0.0       0.0
 2 C  s               9.0       0.0       0.0       0.0
 3 C  s               3.7       0.0       0.0       0.0
 4 C  s               4.5       0.0       0.0       0.0
 5 C  s               7.3       0.0       0.0       0.0
 6 C  s              33.9       0.1       0.0       0.0
 6 C  px              0.0       0.1       0.0       0.0
 7 N  s               0.0      97.9       0.1       0.1
 7 N  px              0.1       0.3       0.0       0.0
 7 N  dx2y2           0.1       0.0       0.0       0.0
 8 O  s               0.0       0.2      98.1       1.6
 8 O  py              0.0       0.2       0.0       0.0
 9 O  s               0.0       0.3       1.6      98.0
 9 O  py              0.0       0.2       0.0       0.0


                      *****************************
                      * MAYER POPULATION ANALYSIS *
                      *****************************

  NA   - Mulliken gross atomic population
  ZA   - Total nuclear charge
  QA   - Mulliken gross atomic charge
  VA   - Mayer's total valence
  BVA  - Mayer's bonded valence
  FA   - Mayer's free valence

  ATOM       NA         ZA         QA         VA         BVA        FA
  0 C      6.3038     6.0000    -0.3038     3.9160     3.9160     0.0000
  1 C      5.9520     6.0000     0.0480     3.8945     3.8945     0.0000
  2 C      6.1667     6.0000    -0.1667     3.9548     3.9548     0.0000
  3 C      6.1034     6.0000    -0.1034     3.9541     3.9541     0.0000
  4 C      6.1063     6.0000    -0.1063     3.9262     3.9262    -0.0000
  5 C      6.1485     6.0000    -0.1485     3.9883     3.9883    -0.0000
  6 C      5.9956     6.0000     0.0044     3.8591     3.8591     0.0000
  7 N      6.5271     7.0000     0.4729     4.2453     4.2453     0.0000
  8 O      8.3225     8.0000    -0.3225     1.9447     1.9447     0.0000
  9 O      8.3125     8.0000    -0.3125     1.9338     1.9338    -0.0000
 10 H      0.8595     1.0000     0.1405     0.9727     0.9727     0.0000
 11 H      0.8601     1.0000     0.1399     0.9727     0.9727    -0.0000
 12 H      0.8916     1.0000     0.1084     0.9666     0.9666    -0.0000
 13 H      0.8779     1.0000     0.1221     0.9705     0.9705    -0.0000
 14 H      0.8694     1.0000     0.1306     0.9693     0.9693    -0.0000
 15 H      0.8687     1.0000     0.1313     0.9715     0.9715    -0.0000
 16 H      0.8344     1.0000     0.1656     0.9983     0.9983    -0.0000

  Mayer bond orders larger than 0.100000
B(  0-C ,  1-C ) :   0.9754 B(  0-C , 10-H ) :   0.9597 B(  0-C , 11-H ) :   0.9614 
B(  0-C , 12-H ) :   0.9784 B(  1-C ,  2-C ) :   1.4334 B(  1-C ,  6-C ) :   1.3440 
B(  2-C ,  3-C ) :   1.4377 B(  2-C , 13-H ) :   0.9643 B(  3-C ,  4-C ) :   1.3983 
B(  3-C , 14-H ) :   0.9719 B(  4-C ,  5-C ) :   1.4422 B(  4-C , 15-H ) :   0.9717 
B(  5-C ,  6-C ) :   1.4401 B(  5-C , 16-H ) :   0.9295 B(  6-C ,  7-N ) :   0.9820 
B(  7-N ,  8-O ) :   1.6255 B(  7-N ,  9-O ) :   1.6091 B(  8-O ,  9-O ) :   0.1976 


-------
TIMINGS
-------

Total SCF time: 0 days 0 hours 3 min 48 sec 

Total time                  ....     228.291 sec
Sum of individual times     ....     224.603 sec  ( 98.4%)

SCF preparation             ....       0.228 sec  (  0.1%)
Fock matrix formation       ....     222.225 sec  ( 97.3%)
  Startup                   ....       0.068 sec  (  0.0% of F)
  Split-RI-J                ....       9.992 sec  (  4.5% of F)
  Chain of spheres X        ....     191.917 sec  ( 86.4% of F)
  XC integration            ....      22.727 sec  ( 10.2% of F)
    XC Preparation          ....       0.000 sec  (  0.0% of XC)
    Basis function eval.    ....       4.977 sec  ( 21.9% of XC)
    Density eval.           ....       4.519 sec  ( 19.9% of XC)
    XC-Functional eval.     ....       4.530 sec  ( 19.9% of XC)
    XC-Potential eval.      ....       7.734 sec  ( 34.0% of XC)
Diagonalization             ....       0.000 sec  (  0.0%)
Density matrix formation    ....       0.681 sec  (  0.3%)
Total Energy calculation    ....       0.053 sec  (  0.0%)
Population analysis         ....       0.231 sec  (  0.1%)
Orbital Transformation      ....       0.100 sec  (  0.0%)
Orbital Orthonormalization  ....       0.000 sec  (  0.0%)
DIIS solution               ....       0.500 sec  (  0.2%)
  MO trafo                  ....       0.000 sec  (  0.0 % of DIIS)
  Orb grad                  ....       0.000 sec  (  0.0 % of DIIS)
  Energy W gradient         ....       0.000 sec  (  0.0 % of DIIS)
  DIIS error                ....       0.029 sec  (  5.9 % of DIIS)
  DIIS work                 ....       0.406 sec  ( 81.2 % of DIIS)
  Form Q                    ....       0.000 sec  (  0.0 % of DIIS)
  Form QpQm                 ....       0.000 sec  (  0.0 % of DIIS)
  Exp/Cayley                ....       0.000 sec  (  0.0 % of DIIS)
  Orb update                ....       0.000 sec  (  0.0 % of DIIS)
  Wake-sleep                ....       0.014 sec  (  2.8 % of DIIS)
SOSCF solution              ....       0.350 sec  (  0.2%)
  MO trafo                  ....       0.118 sec  ( 33.6 % of SOSCF)
  Orb grad                  ....       0.004 sec  (  1.1 % of SOSCF)
  Rot update                ....       0.112 sec  ( 32.1 % of SOSCF)
  Step                      ....       0.116 sec  ( 33.1 % of SOSCF)
Grid generation             ....       0.235 sec  (  0.1%)
Finished LeanSCF after 228.4 sec

Maximum memory used throughout the entire LEANSCF-calculation: 49.5 MB
------------------   -----------------
gCP correction             0.009643176
------------------   -----------------

-------------------------   --------------------
FINAL SINGLE POINT ENERGY      -476.093956912566
-------------------------   --------------------


------------------------------------------------------------------------------
                              ORCA PROPERTY CALCULATIONS
------------------------------------------------------------------------------

GBWName                                 ... sp_gas.gbw
Number of atoms                         ...     17
Number of basis functions               ...    352
Max core memory                         ...   1024 MB

Electric properties:
Dipole moment                           ... YES
Quadrupole moment                       ...  NO
Static polarizability (Dipole/Dipole)   ...  NO
Static polarizability (Dipole/Quad.)    ...  NO
Static polarizability (Quad./Quad.)     ...  NO
Static polarizability (Velocity)        ...  NO

Atomic electric properties:
Dipole moment                           ...  NO
Quadrupole moment                       ...  NO
Static polarizability                   ...  NO

Choice of electric origin               ... Center of mass
Position of electric origin             ...    -0.017696     0.016047     0.001369

General magnetic properties:
Magnetizability                         ...  NO

EPR properties:
g-Tensor (aka g-matrix)                 ...  NO
Zero-Field splitting spin-orbit         ...  NO
Zero-field splitting spin-spin          ...  NO
Hyperfine couplings                     ...  NO (   0 nuclei)
Quadrupole couplings                    ...  NO (   0 nuclei)
Contact density                         ...  NO (   0 nuclei)

NMR properties:
Chemical shifts                         ...  NO (   0 nuclei)
Spin-rotation constants                 ...  NO (   0 nuclei)
Spin-spin couplings                     ...  NO (   0 nuclei,    0 pairs)

Choice of magnetic origin               ... GIAO
Position of magnetic origin             ...     0.000000     0.000000     0.000000

Properties with geometric perturbations:
SCF Hessian                             ...  NO
IR spectrum                             ...  NO
VCD spectrum                            ...  NO
X-ray spectroscopy properties:
SCF XES/XAS/RIXS spectra                ...  NO


-------------
DIPOLE MOMENT
-------------

Method             : SCF
Type of density    : Electron Density
Multiplicity       :   1
Irrep              :   0
Energy             :  -476.1036000885661110 Eh
Relativity type    : 
Basis              : AO
                                X                 Y                 Z
Electronic contribution:     -5.278072181       4.435046467       0.035698391
Nuclear contribution   :      7.031433386      -4.745657953      -0.036301561
                        -----------------------------------------
Total Dipole Moment    :      1.753361204      -0.310611486      -0.000603169
                        -----------------------------------------
Magnitude (a.u.)       :      1.780661498
Magnitude (Debye)      :      4.526081836



--------------------
Rotational spectrum 
--------------------
 
Rotational constants in cm-1:             0.075058             0.042361             0.027220 
Rotational constants in MHz :          2250.174382          1269.940214           816.041673 

Dipole components along the rotational axes: 
x,y,z [a.u.] :     1.756702    -0.291121    -0.000515 
x,y,z [Debye]:     4.465183    -0.739971    -0.001308 

 

Dipole moment calculation done in   0.0 sec 

Maximum memory used throughout the entire PROP-calculation: 31.9 MB

--------------------------------
SUGGESTED CITATIONS FOR THIS RUN
--------------------------------

Below you find a list of papers that are relevant to this ORCA run
We neither can nor want to force you to cite these papers, but we appreciate if you do
You receive ORCA, which is the product of decades of hard work by many enthusiastic individuals, for free
The only thing we kindly ask in return is that you cite our papers,
We deeply appreciate it, if you show your appreciation for ORCA by not just citing the generic ORCA reference.

Please note that relegating all ORCA citations to the supporting information does *not* help us.
SI sections are not indexed - citations you put there will not count into any citation statistics
But we need these citations in order to attract the funding resources that allow us to do what we are doing

Therefore, if you are a happy ORCA user, please consider citing a few of the papers listed below in the main body of your paper

In addition to the list printed below, the program has created the file sp_gas.bibtex that contains the list in bibtex format
You can import this file easily into all common literature databanks and citation aid programs


List of essential papers. We consider these as the minimum necessary citations

  1. Neese,F.
     Software update: the ORCA program system, version 5.0
     WIRES Comput. Molec. Sci., 2022 12(1)e1606
     doi.org/10.1002/wcms.1606

List of papers to cite with high priority. The work reported in these papers was absolutely
necessary for this run to complete.
Our perspective: the developers of density functionals and basis sets usually get cited in chemistry papers
Good! But without the algorithms to do something with them, the functionals or basis sets would not do anything.
Hence, in our opinion, the algorithm design and method developments papers are equally worthy of getting cited

  1. Neese,F.
     An improvement of the resolution of the identity approximation for the formation of the Coulomb matrix
     J. Comp. Chem., 2003 24(14)1740-1747
     doi.org/10.1002/jcc.10318
  2. Neese,F.; Wennmohs,F.; Hansen,A.; Becker,U.
     Efficient, approximate and parallel Hartree-Fock and hybrid DFT calculations. A 'chain-of-spheres' algorithm for the Hartree-Fock exchange
     Chem. Phys., 2009 356(1-3)98-109
     doi.org/10.1016/j.chemphys.2008.10.036
  3. Helmich-Paris,B.; de Souza,B.; Neese,F.; Izsák,R.
     An improved chain of spheres for exchange algorithm
     J. Chem. Phys., 2021 155 104109
     doi.org/doi: 10.1063/5.0058766.
  4. Neese,F.
     The SHARK Integral Generation and Digestion System
     J. Comp. Chem., 2022  1-16
     doi.org/10.1002/jcc.26942

List of suggested additional citations. These are papers that are important in the 'surrounding' of 
of this run, or papers that preceded the highly important papers. If you like your results we are grateful for a citation.

  1. Izsak,R.; Neese,F.
     An overlap fitted chain of spheres exchange method
     J. Chem. Phys., 2011 135 144105
     doi.org/10.1063/1.3646921
  2. Izsak,R.; Hansen,A.; Neese,F.
     The resolution of identity and chain of spheres approximations for the LPNO-CCSD singles Fock term
     Molec. Phys., 2012 110 2413-2417
     doi.org/10.1080/00268976.2012.687466
  3. Neese,F.
     The ORCA program system
     WIRES Comput. Molec. Sci., 2012 2(1)73-78
     doi.org/10.1002/wcms.81
  4. Izsak,R.; Neese,F.; Klopper,W.
     Robust fitting techniques in the chain of spheres approximation to the Fock exchange: The role of the complementary space
     J. Chem. Phys., 2013 139 
     doi.org/10.1063/1.4819264
  5. Neese,F.
     Software update: the ORCA program system, version 4.0
     WIRES Comput. Molec. Sci., 2018 8(1)1-6
     doi.org/10.1002/wcms.1327
  6. Neese,F.; Wennmohs,F.; Becker,U.; Riplinger,C.
     The ORCA quantum chemistry program package
     J. Chem. Phys., 2020 152 Art. No. L224108
     doi.org/10.1063/5.0004608

List of optional additional citations

  1. Neese,F.
     Approximate second-order SCF convergence for spin unrestricted wavefunctions
     Chem. Phys. Lett., 2000 325(1-3)93-98
     doi.org/10.1016/s0009-2614(00)00662-x

Timings for individual modules:

Sum of individual times          ...      231.538 sec (=   3.859 min)
Startup calculation              ...        2.658 sec (=   0.044 min)   1.1 %
SCF iterations                   ...      228.762 sec (=   3.813 min)  98.8 %
Property calculations            ...        0.119 sec (=   0.002 min)   0.1 %
                             ****ORCA TERMINATED NORMALLY****
TOTAL RUN TIME: 0 days 0 hours 3 minutes 52 seconds 375 msec
