      -----------------------------------------------------------      
     |                   =====================                   |     
     |                           x T B                           |     
     |                   =====================                   |     
     |                         S. Grimme                         |     
     |          Mulliken Center for Theoretical Chemistry        |     
     |                    University of Bonn                     |     
      -----------------------------------------------------------      

   * xtb version 6.7.1 (edcfbbe) compiled by 'albert@albert-system' on 2024-07-22

   xtb is free software: you can redistribute it and/or modify it under
   the terms of the GNU Lesser General Public License as published by
   the Free Software Foundation, either version 3 of the License, or
   (at your option) any later version.
   
   xtb is distributed in the hope that it will be useful,
   but WITHOUT ANY WARRANTY; without even the implied warranty of
   MERCHANTABILITY or FITNESS FOR A PARTICULAR PURPOSE.  See the
   GNU Lesser General Public License for more details.
   
   Cite this work as:
   * C. Bannwarth, E. Caldeweyher, S. Ehlert, A. Hansen, P. Pracht,
     J. Seibert, S. Spicher, S. Grimme, WIREs Comput. Mol. Sci., 2020, 11,
     e01493. DOI: 10.1002/wcms.1493
   
   for GFN2-xTB:
   * C. Bannwarth, S. Ehlert and S. Grimme., J. Chem. Theory Comput., 2019,
     15, 1652-1671. DOI: 10.1021/acs.jctc.8b01176
   for GFN1-xTB:
   * S. Grimme, C. Bannwarth, P. Shushkov, J. Chem. Theory Comput., 2017,
     13, 1989-2009. DOI: 10.1021/acs.jctc.7b00118
   for GFN0-xTB:
   * P. Pracht, E. Caldeweyher, S. Ehlert, S. Grimme, ChemRxiv, 2019, preprint.
     DOI: 10.26434/chemrxiv.8326202.v1
   for GFN-FF:
   * S. Spicher and S. Grimme, Angew. Chem. Int. Ed., 2020, 59, 15665-15673.
     DOI: 10.1002/anie.202004239
   
   for ALPB and GBSA implicit solvation:
   * S. Ehlert, M. Stahn, S. Spicher, S. Grimme, J. Chem. Theory Comput.,
     2021, 17, 4250-4261. DOI: 10.1021/acs.jctc.1c00471
   
   for ddCOSMO and CPCM-X implicit solvation:
   * M. Stahn, S. Ehlert, S. Grimme, J. Phys. Chem. A,
     2023, XX, XXXX-XXXX. DOI: 10.1021/acs.jpca.3c04382
   
   for DFT-D4:
   * E. Caldeweyher, C. Bannwarth and S. Grimme, J. Chem. Phys., 2017,
     147, 034112. DOI: 10.1063/1.4993215
   * E. Caldeweyher, S. Ehlert, A. Hansen, H. Neugebauer, S. Spicher,
     C. Bannwarth and S. Grimme, J. Chem. Phys., 2019, 150, 154122.
     DOI: 10.1063/1.5090222
   * E. Caldeweyher, J.-M. Mewes, S. Ehlert and S. Grimme, Phys. Chem. Chem. Phys.
     2020, 22, 8499-8512. DOI: 10.1039/D0CP00502A
   
   for sTDA-xTB:
   * S. Grimme and C. Bannwarth, J. Chem. Phys., 2016, 145, 054103.
     DOI: 10.1063/1.4959605
   
   in the mass-spec context:
   * V. Asgeirsson, C. Bauer and S. Grimme, Chem. Sci., 2017, 8, 4879.
     DOI: 10.1039/c7sc00601b
   * J. Koopman and S. Grimme, ACS Omega 2019, 4, 12, 15120-15133.
     DOI: 10.1021/acsomega.9b02011
   
   for metadynamics refer to:
   * S. Grimme, J. Chem. Theory Comput., 2019, 155, 2847-2862
     DOI: 10.1021/acs.jctc.9b00143
   
   for SPH calculations refer to:
   * S. Spicher and S. Grimme, J. Chem. Theory Comput., 2021, 17, 1701-1714
     DOI: 10.1021/acs.jctc.0c01306
   
   for ONIOM refer to:
   * C. Plett, A. Katbashev, S. Ehlert, S. Grimme, M. Bursch,
     Phys. Chem. Chem. Phys., 2023, 25, 17860-17868. DOI: 10.1039/D3CP02178E
   
   for DIPRO refer to:
   * J. Kohn, N. Gildemeister, S. Grimme, D. Fazzi, A. Hansen,
     J. Chem. Phys., 2023, just accepted.
   
   for PTB refer to:
   * S. Grimme, M. Mueller, A. Hansen, J. Chem. Phys., 2023, 158, 124111.
     DOI: 10.1063/5.0137838
   
   with help from (in alphabetical order)
   P. Atkinson, C. Bannwarth, F. Bohle, G. Brandenburg, E. Caldeweyher
   M. Checinski, S. Dohm, S. Ehlert, S. Ehrlich, I. Gerasimov, C. Hölzer
   A. Katbashev, J. Kohn, J. Koopman, C. Lavigne, S. Lehtola, F. März, M. Müller,
   F. Musil, H. Neugebauer, J. Pisarek, C. Plett, P. Pracht, F. Pultar,
   J. Seibert, P. Shushkov, S. Spicher, M. Stahn, M. Steiner, T. Strunk,
   J. Stückrath, T. Rose, and J. Unsleber
   
 * started run on 2025/04/03 at 21:10:55.681     
   ID    Z sym.   atoms
    1    6 C      1-3
    2   53 I      4
    3    1 H      5-11

           -------------------------------------------------
          |                Calculation Setup                |
           -------------------------------------------------

          program call               : /srv/scratch/z5358697/.xtb/bin/xtb gas.coord --gfn2 --sp --chrg 0 --norestart --parallel 1
          hostname                   : k148
          coordinate file            : gas.coord
          omp threads                :                     1


           -------------------------------------------------
          |                 G F N 2 - x T B                 |
           -------------------------------------------------

        Reference                      10.1021/acs.jctc.8b01176
      * Hamiltonian:
        H0-scaling (s, p, d)           1.850000    2.230000    2.230000
        zeta-weighting                 0.500000
      * Dispersion:
        s8                             2.700000
        a1                             0.520000
        a2                             5.000000
        s9                             5.000000
      * Repulsion:
        kExp                           1.500000    1.000000
        rExp                           1.000000
      * Coulomb:
        alpha                          2.000000
        third order                    shell-resolved
        anisotropic                    true
        a3                             3.000000
        a5                             4.000000
        cn-shift                       1.200000
        cn-exp                         4.000000
        max-rad                        5.000000


          ...................................................
          :                      SETUP                      :
          :.................................................:
          :  # basis functions                  29          :
          :  # atomic orbitals                  28          :
          :  # shells                           16          :
          :  # electrons                        26          :
          :  max. iterations                   250          :
          :  Hamiltonian                  GFN2-xTB          :
          :  restarted?                      false          :
          :  GBSA solvation                  false          :
          :  PC potential                    false          :
          :  electronic temp.          300.0000000     K    :
          :  accuracy                    1.0000000          :
          :  -> integral cutoff          0.2500000E+02      :
          :  -> integral neglect         0.1000000E-07      :
          :  -> SCF convergence          0.1000000E-05 Eh   :
          :  -> wf. convergence          0.1000000E-03 e    :
          :  Broyden damping             0.4000000          :
          :  net charge                          0          :
          :  unpaired electrons                  0          :
          ...................................................

 iter      E             dE          RMSdq      gap      omega  full diag
   1    -13.9344203 -0.139344E+02  0.611E+00    5.07       0.0  T
   2    -13.9535585 -0.191382E-01  0.394E+00    4.60       1.0  T
   3    -13.9496478  0.391077E-02  0.211E+00    4.85       1.0  T
   4    -13.9570119 -0.736412E-02  0.734E-01    4.59       1.0  T
   5    -13.9572880 -0.276153E-03  0.355E-01    4.61       1.0  T
   6    -13.9573712 -0.831590E-04  0.209E-01    4.57       1.0  T
   7    -13.9574093 -0.381151E-04  0.607E-02    4.58       1.0  T
   8    -13.9574133 -0.394664E-05  0.197E-02    4.58       1.5  T
   9    -13.9574134 -0.111333E-06  0.234E-03    4.58      12.9  T
  10    -13.9574134 -0.315058E-08  0.119E-03    4.58      25.3  T
  11    -13.9574134 -0.139169E-08  0.171E-04    4.58     175.9  T
  12    -13.9574134 -0.946443E-11  0.431E-05    4.58     699.8  T

   *** convergence criteria satisfied after 12 iterations ***

         #    Occupation            Energy/Eh            Energy/eV
      -------------------------------------------------------------
         1        2.0000           -0.7312025             -19.8970
       ...           ...                  ...                  ...
         7        2.0000           -0.5069194             -13.7940
         8        2.0000           -0.4800693             -13.0634
         9        2.0000           -0.4687207             -12.7545
        10        2.0000           -0.4619166             -12.5694
        11        2.0000           -0.4479703             -12.1899
        12        2.0000           -0.4033537             -10.9758
        13        2.0000           -0.4014502             -10.9240 (HOMO)
        14                         -0.2332654              -6.3475 (LUMO)
        15                          0.0215906               0.5875
        16                          0.0245317               0.6675
        17                          0.0338643               0.9215
        18                          0.0498906               1.3576
       ...                                ...                  ...
        28                          0.3636330               9.8950
      -------------------------------------------------------------
                  HL-Gap            0.1681848 Eh            4.5765 eV
             Fermi-level           -0.3173578 Eh           -8.6357 eV

 SCC (total)                   0 d,  0 h,  0 min,  0.019 sec
 SCC setup                      ...        0 min,  0.000 sec (  0.940%)
 Dispersion                     ...        0 min,  0.000 sec (  0.269%)
 classical contributions        ...        0 min,  0.000 sec (  0.086%)
 integral evaluation            ...        0 min,  0.014 sec ( 73.933%)
 iterations                     ...        0 min,  0.003 sec ( 15.384%)
 molecular gradient             ...        0 min,  0.002 sec (  8.628%)
 printout                       ...        0 min,  0.000 sec (  0.671%)

         :::::::::::::::::::::::::::::::::::::::::::::::::::::
         ::                     SUMMARY                     ::
         :::::::::::::::::::::::::::::::::::::::::::::::::::::
         :: total energy             -13.803930614597 Eh    ::
         :: gradient norm              0.005559878785 Eh/a0 ::
         :: HOMO-LUMO gap              4.576540415318 eV    ::
         ::.................................................::
         :: SCC energy               -13.957408964606 Eh    ::
         :: -> isotropic ES            0.004612183972 Eh    ::
         :: -> anisotropic ES          0.002265803562 Eh    ::
         :: -> anisotropic XC          0.005470716306 Eh    ::
         :: -> dispersion             -0.006298937183 Eh    ::
         :: repulsion energy           0.153478350008 Eh    ::
         :: add. restraining           0.000000000000 Eh    ::
         :: total charge              -0.000000000000 e     ::
         :::::::::::::::::::::::::::::::::::::::::::::::::::::

           -------------------------------------------------
          |                Property Printout                |
           -------------------------------------------------

    * Orbital Energies and Occupations

         #    Occupation            Energy/Eh            Energy/eV
      -------------------------------------------------------------
         1        2.0000           -0.7312025             -19.8970
         2        2.0000           -0.6456478             -17.5690
         3        2.0000           -0.6111225             -16.6295
         4        2.0000           -0.5794992             -15.7690
         5        2.0000           -0.5338786             -14.5276
         6        2.0000           -0.5301485             -14.4261
         7        2.0000           -0.5069194             -13.7940
         8        2.0000           -0.4800693             -13.0634
         9        2.0000           -0.4687207             -12.7545
        10        2.0000           -0.4619166             -12.5694
        11        2.0000           -0.4479703             -12.1899
        12        2.0000           -0.4033537             -10.9758
        13        2.0000           -0.4014502             -10.9240 (HOMO)
        14                         -0.2332654              -6.3475 (LUMO)
        15                          0.0215906               0.5875
        16                          0.0245317               0.6675
        17                          0.0338643               0.9215
        18                          0.0498906               1.3576
        19                          0.0885020               2.4083
        20                          0.1184004               3.2218
        21                          0.1335043               3.6328
        22                          0.1567827               4.2663
        23                          0.1829369               4.9780
        24                          0.1886171               5.1325
       ...                                ...                  ...
        28                          0.3636330               9.8950
      -------------------------------------------------------------
                  HL-Gap            0.1681848 Eh            4.5765 eV
             Fermi-level           -0.3173578 Eh           -8.6357 eV

     #   Z          covCN         q      C6AA      α(0)
     1   6 C        3.753    -0.103    22.520     6.767
     2   6 C        3.891    -0.048    21.378     6.573
     3   6 C        3.780     0.001    20.587     6.464
     4  53 I        1.060    -0.162   384.025    33.829
     5   1 H        0.925     0.052     2.298     2.371
     6   1 H        0.925     0.039     2.465     2.455
     7   1 H        0.925     0.036     2.499     2.472
     8   1 H        0.924     0.045     2.379     2.412
     9   1 H        0.924     0.039     2.464     2.455
    10   1 H        0.933     0.049     2.335     2.389
    11   1 H        0.932     0.052     2.289     2.366

 Mol. C6AA /au·bohr⁶  :       1952.940104
 Mol. C8AA /au·bohr⁸  :      89621.795139
 Mol. α(0) /au        :         70.552697


Wiberg/Mayer (AO) data.
largest (>0.10) Wiberg bond orders for each atom

 ---------------------------------------------------------------------------
     #   Z sym  total        # sym  WBO       # sym  WBO       # sym  WBO
 ---------------------------------------------------------------------------
     1   6 C    3.995 --     2 C    1.022     7 H    0.987     6 H    0.986
                             5 H    0.983
     2   6 C    3.996 --     3 C    1.029     1 C    1.022     8 H    0.977
                             9 H    0.962
     3   6 C    3.964 --     2 C    1.029    10 H    0.984    11 H    0.983
                             4 I    0.949
     4  53 I    0.992 --     3 C    0.949
     5   1 H    0.997 --     1 C    0.983
     6   1 H    0.998 --     1 C    0.986
     7   1 H    0.999 --     1 C    0.987
     8   1 H    0.998 --     2 C    0.977
     9   1 H    0.998 --     2 C    0.962
    10   1 H    0.998 --     3 C    0.984
    11   1 H    0.997 --     3 C    0.983
 ---------------------------------------------------------------------------

Topologies differ in total number of bonds
Writing topology from bond orders to xtbtopo.mol

molecular dipole:
                 x           y           z       tot (Debye)
 q only:       -0.708      -0.237      -0.296
   full:       -1.282      -0.634      -0.688       4.034
molecular quadrupole (traceless):
                xx          xy          yy          xz          yz          zz
 q only:        0.751       0.295      -0.421       0.642       0.665      -0.330
  q+dip:       -1.336      -0.234       0.952      -0.372       0.034       0.384
   full:       -0.456       0.509       0.414       0.539       0.749       0.041


           -------------------------------------------------
          | TOTAL ENERGY              -13.803930614597 Eh   |
          | GRADIENT NORM               0.005559878785 Eh/α |
          | HOMO-LUMO GAP               4.576540415318 eV   |
           -------------------------------------------------

------------------------------------------------------------------------
 * finished run on 2025/04/03 at 21:10:55.724     
------------------------------------------------------------------------
 total:
 * wall-time:     0 d,  0 h,  0 min,  0.043 sec
 *  cpu-time:     0 d,  0 h,  0 min,  0.014 sec
 * ratio c/w:     0.332 speedup
 SCF:
 * wall-time:     0 d,  0 h,  0 min,  0.019 sec
 *  cpu-time:     0 d,  0 h,  0 min,  0.007 sec
 * ratio c/w:     0.369 speedup

