
                                 *****************
                                 * O   R   C   A *
                                 *****************

                                            #,                                       
                                            ###                                      
                                            ####                                     
                                            #####                                    
                                            ######                                   
                                           ########,                                 
                                     ,,################,,,,,                         
                               ,,#################################,,                 
                          ,,##########################################,,             
                       ,#########################################, ''#####,          
                    ,#############################################,,   '####,        
                  ,##################################################,,,,####,       
                ,###########''''           ''''###############################       
              ,#####''   ,,,,##########,,,,          '''####'''          '####       
            ,##' ,,,,###########################,,,                        '##       
           ' ,,###''''                  '''############,,,                           
         ,,##''                                '''############,,,,        ,,,,,,###''
      ,#''                                            '''#######################'''  
     '                                                          ''''####''''         
             ,#######,   #######,   ,#######,      ##                                
            ,#'     '#,  ##    ##  ,#'     '#,    #''#        ,####,   ,####,        
            ##       ##  ##   ,#'  ##            #'  '#       #'       #'  '#        
            ##       ##  #######   ##           ,######,      #####,   #    #        
            '#,     ,#'  ##    ##  '#,     ,#' ,#      #,     #,   #   #,  ,#        
             '#######'   ##     ##  '#######'  #'      '#     '####' # '####'        



                #########################################################
                #                        -***-                          #
                #          Department of theory and spectroscopy        #
                #                                                       #
                #                      Frank Neese                      #
                #                                                       #
                #     Directorship, Architecture, Infrastructure        #
                #                    SHARK, DRIVERS                     #
                #        Core code/Algorithms in most modules           #
                #                                                       #
                #        Max Planck Institute fuer Kohlenforschung      #
                #                Kaiser Wilhelm Platz 1                 #
                #                 D-45470 Muelheim/Ruhr                 #
                #                      Germany                          #
                #                                                       #
                #                  All rights reserved                  #
                #                        -***-                          #
                #########################################################


                         Program Version 6.0.0  -   RELEASE  -


 With contributions from (in alphabetic order):
   Daniel Aravena         : Magnetic Suceptibility
   Michael Atanasov       : Ab Initio Ligand Field Theory (pilot matlab implementation)
   Alexander A. Auer      : GIAO ZORA, VPT2 properties, NMR spectrum
   Ute Becker             : All parallelization in ORCA, NUMFREQ, NUMCALC
   Giovanni Bistoni       : ED, misc. LED, open-shell LED, HFLD
   Martin Brehm           : Molecular dynamics
   Dmytro Bykov           : pre 5.0 version of the SCF Hessian
   Marcos Casanova-Páez   : Triplet and SCS-CIS(D). UHF-(DLPNO)-IP/EA/STEOM-CCSD. UHF-CVS-IP/STEOM-CCSD
   Vijay G. Chilkuri      : MRCI spin determinant printing, contributions to CSF-ICE
   Pauline Colinet        : FMM embedding
   Dipayan Datta          : RHF DLPNO-CCSD density
   Achintya Kumar Dutta   : EOM-CC, STEOM-CC
   Nicolas Foglia         : Exact transition moments, OPA infrastructure, MCD improvements
   Dmitry Ganyushin       : Spin-Orbit,Spin-Spin,Magnetic field MRCI
   Miquel Garcia          : C-PCM and meta-GGA Hessian, CCSD/C-PCM, Gaussian charge scheme
   Tiago L. C. Gouveia    : GS-ROHF, GS-ROCIS
   Yang Guo               : DLPNO-NEVPT2, F12-NEVPT2, CIM, IAO-localization
   Andreas Hansen         : Spin unrestricted coupled pair/coupled cluster methods
   Ingolf Harden          : AUTO-CI MPn and infrastructure 
   Benjamin Helmich-Paris : MC-RPA, TRAH-(SCF,CASSCF), AVAS, COSX integrals, SCF dyn. polar.
   Lee Huntington         : MR-EOM, pCC
   Robert Izsak           : Overlap fitted RIJCOSX, COSX-SCS-MP3, EOM
   Riya Kayal             : Wick's Theorem for AUTO-CI, AUTO-CI UHF-CCSDT
   Emily Kempfer          : AUTO-CI, RHF CISDT and CCSDT
   Christian Kollmar      : KDIIS, OOCD, Brueckner-CCSD(T), CCSD density, CASPT2, CASPT2-K, improved NEVPT2
   Axel Koslowski         : Symmetry handling
   Simone Kossmann        : Meta GGA functionals, TD-DFT gradient, OOMP2, (MP2 Hessian; deprecated post 5.0)
   Lucas Lang             : DCDCAS
   Marvin Lechner         : AUTO-CI (C++ implementation), FIC-MRCC
   Spencer Leger          : CASSCF response
   Dagmar Lenk            : GEPOL surface, SMD, ORCA-2-JSON
   Dimitrios Liakos       : Extrapolation schemes; Compound Job, initial MDCI parallelization
   Dimitrios Manganas     : Further ROCIS development; embedding schemes. LFT, Crystal Embedding
   Dimitrios Pantazis     : SARC Basis sets
   Anastasios Papadopoulos: AUTO-CI, single reference methods and gradients
   Taras Petrenko         : pre 6.0 DFT Hessian and TD-DFT gradient, (ASA, deprecated), ECA, 1-Electron XAS/XES, NRVS
   Peter Pinski           : DLPNO-MP2, DLPNO-MP2 Gradient
   Christoph Reimann      : Effective Core Potentials
   Marius Retegan         : Local ZFS, SOC
   Christoph Riplinger    : Optimizer, TS searches, QM/MM, DLPNO-CCSD(T), (RO)-DLPNO pert. Triples
   Michael Roemelt        : Original ROCIS implementation
   Masaaki Saitow         : Open-shell DLPNO-CCSD energy and density
   Barbara Sandhoefer     : DKH picture change effects
   Kantharuban Sivalingam : CASSCF convergence/infrastructure, NEVPT2 and variants, FIC-MRCI
   Bernardo de Souza      : ESD, SOC TD-DFT
   Georgi Stoychev        : AutoAux, RI-MP2 NMR, DLPNO-MP2 response, X2C
   Van Anh Tran           : RI-MP2 g-tensors
   Willem Van den Heuvel  : Paramagnetic NMR
   Zikuan Wang            : NOTCH, Electric field optimization 
   Frank Wennmohs         : Technical directorship and infrastructure
   Hang Xu                : AUTO-CI-Response properties 


 We gratefully acknowledge several colleagues who have allowed us to
 interface, adapt or use parts of their codes:
   Stefan Grimme, W. Hujo, H. Kruse, P. Pracht,  : VdW corrections, initial TS optimization,
                  C. Bannwarth, S. Ehlert,         DFT functionals, gCP, sTDA/sTD-DF
                  L. Wittmann, M. Mueller
   Ed Valeev, F. Pavosevic, A. Kumar             : LibInt (2-el integral package), F12 methods
   Garnet Chan, S. Sharma, J. Yang, R. Olivares  : DMRG
   Ulf Ekstrom                                   : XCFun DFT Library
   Mihaly Kallay                                 : mrcc  (arbitrary order and MRCC methods)
   Frank Weinhold                                : gennbo (NPA and NBO analysis)
   Simon Mueller                                 : openCOSMO-RS
   Christopher J. Cramer and Donald G. Truhlar   : smd solvation model
   Lars Goerigk                                  : TD-DFT with DH, B97 family of functionals
   V. Asgeirsson, H. Jonsson                     : NEB implementation
   FAccTs GmbH                                   : IRC, NEB, NEB-TS, DLPNO-Multilevel, CI-OPT
                                                   MM, QMMM, 2- and 3-layer-ONIOM, Crystal-QMMM,
                                                   LR-CPCM, SF, NACMEs, symmetry and pop. for TD-DFT,
                                                   nearIR, NL-DFT gradient (VV10), updates on ESD,
                                                   ML-optimized integration grids, MBIS, APM,
                                                   GOAT, DOCKER, SOLVATOR, interface openCOSMO-RS
   S Lehtola, MJT Oliveira, MAL Marques          : LibXC Library
   Liviu Ungur et al                             : ANISO software


 Your calculation uses the libint2 library for the computation of 2-el integrals
 For citations please refer to: http://libint.valeyev.net

 Your ORCA version has been built with support for libXC version: 6.2.2
 For citations please refer to: https://libxc.gitlab.io

 This ORCA versions uses:
   CBLAS   interface :  Fast vector & matrix operations
   LAPACKE interface :  Fast linear algebra routines
   SCALAPACK package :  Parallel linear algebra routines
   Shared memory     :  Shared parallel matrices
   BLAS/LAPACK       :  OpenBLAS 0.3.27  USE64BITINT DYNAMIC_ARCH NO_AFFINITY SkylakeX SINGLE_THREADED
        Core in use  :  SkylakeX
   Copyright (c) 2011-2014, The OpenBLAS Project


Your calculation utilizes the geometrical counterpoise correction gCP
Please cite in your paper:
H.Kruse, S. Grimme J.Chem.Phys., 136, (2012), 154101 
   

Your calculation utilizes the atom-pairwise dispersion correction
based on EEQ partial charges (D4)


================================================================================

----- Orbital basis set information -----
Your calculation utilizes the basis: def2-SV(P)
   F. Weigend and R. Ahlrichs, Phys. Chem. Chem. Phys. 7, 3297 (2005).

----- AuxJ basis set information -----
Your calculation utilizes the auxiliary basis: def2/J
   F. Weigend, Phys. Chem. Chem. Phys. 8, 1057 (2006).

================================================================================
                                        WARNINGS
                       Please study these warnings very carefully!
================================================================================


================================================================================
                                       INPUT FILE
================================================================================
NAME = sp.inp
|  1> ! pbe def2-sv(p) def2/J RI DEFGRID1 loosescf d4 GCP(DFT/SV(P)) printgap
|  2> %output
|  3>     printlevel normal
|  4> end
|  5> * xyz 0 1
|  6> C -2.3685050831 -0.8425301431 0.5417479306
|  7> C -0.9071813798 -0.3868826986 0.6294183638
|  8> H -0.5874232417 -0.3921543619 1.6796368082
|  9> C -0.7379554511 1.0412244238 0.0897595447
| 10> H -1.396015802 1.1477382411 -0.7867337261
| 11> C 0.7237168414 1.2632480133 -0.3720870847
| 12> H 1.0246843704 2.2827566012 -0.0901822858
| 13> C 1.6817493582 0.2904608252 0.3310589438
| 14> H 2.6795801808 0.4288042869 -0.1090985628
| 15> C 1.2590187136 -1.1652944536 0.010485373
| 16> H 1.6018126034 -1.8304505313 0.8209397762
| 17> O -0.1396102139 -1.3025876904 -0.1340595343
| 18> O 1.861004659 -1.627828864 -1.1444629695
| 19> O 1.6882867454 0.5769373154 1.7039699345
| 20> O 0.8891135696 1.0457045202 -1.7521470191
| 21> O -1.1255018441 1.9167994144 1.1163290757
| 22> O -2.8364081907 -0.8723109755 -0.7816385594
| 23> H -2.990995139 -0.1271688 1.0813451039
| 24> H -2.4580250438 -1.8307902537 1.0075198649
| 25> H 1.5825924761 -1.0624015869 -1.8865139102
| 26> H 2.4459356491 0.1493493946 2.1278622554
| 27> H 0.3792937406 1.6950756297 -2.2576090474
| 28> H -1.1878445283 2.8217855746 0.777814915
| 29> H -2.2804478689 -1.4892031695 -1.2801326119
| 30> *
| 31> 
| 32>                          ****END OF INPUT****
================================================================================

                       ****************************
                       * Single Point Calculation *
                       ****************************

---------------------------------
CARTESIAN COORDINATES (ANGSTROEM)
---------------------------------
  C     -2.368505   -0.842530    0.541748
  C     -0.907181   -0.386883    0.629418
  H     -0.587423   -0.392154    1.679637
  C     -0.737955    1.041224    0.089760
  H     -1.396016    1.147738   -0.786734
  C      0.723717    1.263248   -0.372087
  H      1.024684    2.282757   -0.090182
  C      1.681749    0.290461    0.331059
  H      2.679580    0.428804   -0.109099
  C      1.259019   -1.165294    0.010485
  H      1.601813   -1.830451    0.820940
  O     -0.139610   -1.302588   -0.134060
  O      1.861005   -1.627829   -1.144463
  O      1.688287    0.576937    1.703970
  O      0.889114    1.045705   -1.752147
  O     -1.125502    1.916799    1.116329
  O     -2.836408   -0.872311   -0.781639
  H     -2.990995   -0.127169    1.081345
  H     -2.458025   -1.830790    1.007520
  H      1.582592   -1.062402   -1.886514
  H      2.445936    0.149349    2.127862
  H      0.379294    1.695076   -2.257609
  H     -1.187845    2.821786    0.777815
  H     -2.280448   -1.489203   -1.280133

----------------------------
CARTESIAN COORDINATES (A.U.)
----------------------------
  NO LB      ZA    FRAG     MASS         X           Y           Z
   0 C     6.0000    0    12.011   -4.475826   -1.592151    1.023755
   1 C     6.0000    0    12.011   -1.714324   -0.731102    1.189428
   2 H     1.0000    0     1.008   -1.110069   -0.741064    3.174054
   3 C     6.0000    0    12.011   -1.394534    1.967629    0.169621
   4 H     1.0000    0     1.008   -2.638088    2.168911   -1.486711
   5 C     6.0000    0    12.011    1.367627    2.387193   -0.703143
   6 H     1.0000    0     1.008    1.936373    4.313785   -0.170420
   7 C     6.0000    0    12.011    3.178046    0.548891    0.625611
   8 H     1.0000    0     1.008    5.063673    0.810323   -0.206166
   9 C     6.0000    0    12.011    2.379201   -2.202087    0.019814
  10 H     1.0000    0     1.008    3.026987   -3.459050    1.551351
  11 O     8.0000    0    15.999   -0.263825   -2.461534   -0.253336
  12 O     8.0000    0    15.999    3.516789   -3.076151   -2.162722
  13 O     8.0000    0    15.999    3.190400    1.090254    3.220037
  14 O     8.0000    0    15.999    1.680181    1.976095   -3.311078
  15 O     8.0000    0    15.999   -2.126890    3.622226    2.109556
  16 O     8.0000    0    15.999   -5.360035   -1.648429   -1.477083
  17 H     1.0000    0     1.008   -5.652162   -0.240314    2.043446
  18 H     1.0000    0     1.008   -4.644994   -3.459692    1.903937
  19 H     1.0000    0     1.008    2.990666   -2.007648   -3.564995
  20 H     1.0000    0     1.008    4.622149    0.282229    4.021077
  21 H     1.0000    0     1.008    0.716761    3.203229   -4.266263
  22 H     1.0000    0     1.008   -2.244701    5.332402    1.469857
  23 H     1.0000    0     1.008   -4.309422   -2.814186   -2.419100

--------------------------------
INTERNAL COORDINATES (ANGSTROEM)
--------------------------------
 C      0   0   0     0.000000000000     0.00000000     0.00000000
 C      1   0   0     1.533221335738     0.00000000     0.00000000
 H      2   1   0     1.097830514366   109.32213659     0.00000000
 C      2   1   3     1.536020510614   111.17515329   240.89701265
 H      4   2   1     1.101194384503   107.68224709   321.57872647
 C      4   2   1     1.548897244508   109.99879111   203.84694581
 H      6   4   2     1.099749757880   108.34321047   218.87825755
 C      6   4   2     1.535758950478   111.18434553   336.68400100
 H      8   6   4     1.099337934642   107.64928412   174.47879786
 C      8   6   4     1.549416678603   109.28140914    59.26663984
 H     10   8   6     1.103075971206   109.25363726   205.64689291
 O     10   8   6     1.412765210478   112.49338350   326.73420708
 O     10   8   6     1.382111006072   111.62241149    88.65558320
 O      8   6   4     1.402496383330   108.76663067   295.09727538
 O      6   4   2     1.406857018899   112.41280915    95.51120528
 O      4   2   1     1.403805105016   107.01115191    80.86086602
 O      1   2   3     1.403984336805   112.20006240   180.65924099
 H      1   2   3     1.091054916276   108.70251613    62.70528357
 H      1   2   3     1.096182176624   108.75148844   303.51401902
 H     13  10   8     0.973581505509   108.54204503   298.98707086
 H     14   8   6     0.967754096354   110.00949477   195.16142766
 H     15   6   4     0.968034585099   110.27721470    64.21005143
 H     16   4   2     0.968234680964   110.18661013   190.02884422
 H     17   1   2     0.968578431936   107.89874144    59.70157375

---------------------------
INTERNAL COORDINATES (A.U.)
---------------------------
 C      0   0   0     0.000000000000     0.00000000     0.00000000
 C      1   0   0     2.897368427230     0.00000000     0.00000000
 H      2   1   0     2.074599013614   109.32213659     0.00000000
 C      2   1   3     2.902658101146   111.17515329   240.89701265
 H      4   2   1     2.080955806922   107.68224709   321.57872647
 C      4   2   1     2.926991601706   109.99879111   203.84694581
 H      6   4   2     2.078225858239   108.34321047   218.87825755
 C      6   4   2     2.902163824122   111.18434553   336.68400100
 H      8   6   4     2.077447625103   107.64928412   174.47879786
 C      8   6   4     2.927973189890   109.28140914    59.26663984
 H     10   8   6     2.084511490488   109.25363726   205.64689291
 O     10   8   6     2.669739339335   112.49338350   326.73420708
 O     10   8   6     2.611811288155   111.62241149    88.65558320
 O      8   6   4     2.650334068309   108.76663067   295.09727538
 O      6   4   2     2.658574475304   112.41280915    95.51120528
 O      4   2   1     2.652807193881   107.01115191    80.86086602
 O      1   2   3     2.653145892877   112.20006240   180.65924099
 H      1   2   3     2.061794988830   108.70251613    62.70528357
 H      1   2   3     2.071484106705   108.75148844   303.51401902
 H     13  10   8     1.839802414463   108.54204503   298.98707086
 H     14   8   6     1.828790207089   110.00949477   195.16142766
 H     15   6   4     1.829320254001   110.27721470    64.21005143
 H     16   4   2     1.829698380386   110.18661013   190.02884422
 H     17   1   2     1.830347975582   107.89874144    59.70157375

---------------------
BASIS SET INFORMATION
---------------------
There are 3 groups of distinct atoms

 Group   1 Type C   : 7s4p1d contracted to 3s2p1d pattern {511/31/1}
 Group   2 Type H   : 4s contracted to 2s pattern {31}
 Group   3 Type O   : 7s4p1d contracted to 3s2p1d pattern {511/31/1}

Atom   0C    basis set group =>   1
Atom   1C    basis set group =>   1
Atom   2H    basis set group =>   2
Atom   3C    basis set group =>   1
Atom   4H    basis set group =>   2
Atom   5C    basis set group =>   1
Atom   6H    basis set group =>   2
Atom   7C    basis set group =>   1
Atom   8H    basis set group =>   2
Atom   9C    basis set group =>   1
Atom  10H    basis set group =>   2
Atom  11O    basis set group =>   3
Atom  12O    basis set group =>   3
Atom  13O    basis set group =>   3
Atom  14O    basis set group =>   3
Atom  15O    basis set group =>   3
Atom  16O    basis set group =>   3
Atom  17H    basis set group =>   2
Atom  18H    basis set group =>   2
Atom  19H    basis set group =>   2
Atom  20H    basis set group =>   2
Atom  21H    basis set group =>   2
Atom  22H    basis set group =>   2
Atom  23H    basis set group =>   2
---------------------------------
AUXILIARY/J BASIS SET INFORMATION
---------------------------------
There are 3 groups of distinct atoms

 Group   1 Type C   : 12s5p4d2f1g contracted to 6s4p3d1f1g pattern {711111/2111/211/2/1}
 Group   2 Type H   : 5s2p1d contracted to 3s1p1d pattern {311/2/1}
 Group   3 Type O   : 12s5p4d2f1g contracted to 6s4p3d1f1g pattern {711111/2111/211/2/1}

Atom   0C    basis set group =>   1
Atom   1C    basis set group =>   1
Atom   2H    basis set group =>   2
Atom   3C    basis set group =>   1
Atom   4H    basis set group =>   2
Atom   5C    basis set group =>   1
Atom   6H    basis set group =>   2
Atom   7C    basis set group =>   1
Atom   8H    basis set group =>   2
Atom   9C    basis set group =>   1
Atom  10H    basis set group =>   2
Atom  11O    basis set group =>   3
Atom  12O    basis set group =>   3
Atom  13O    basis set group =>   3
Atom  14O    basis set group =>   3
Atom  15O    basis set group =>   3
Atom  16O    basis set group =>   3
Atom  17H    basis set group =>   2
Atom  18H    basis set group =>   2
Atom  19H    basis set group =>   2
Atom  20H    basis set group =>   2
Atom  21H    basis set group =>   2
Atom  22H    basis set group =>   2
Atom  23H    basis set group =>   2
------------------------------------------------------------------------------
                             ORCA STARTUP CALCULATIONS
                           -- RI-GTO INTEGRALS CHOSEN --
------------------------------------------------------------------------------
------------------------------------------------------------------------------
                   ___                                                        
                  /   \      - P O W E R E D   B Y -                         
                 /     \                                                     
                 |  |  |   _    _      __       _____    __    __             
                 |  |  |  | |  | |    /  \     |  _  \  |  |  /  |          
                  \  \/   | |  | |   /    \    | | | |  |  | /  /          
                 / \  \   | |__| |  /  /\  \   | |_| |  |  |/  /          
                |  |  |   |  __  | /  /__\  \  |    /   |      \           
                |  |  |   | |  | | |   __   |  |    \   |  |\   \          
                \     /   | |  | | |  |  |  |  | |\  \  |  | \   \       
                 \___/    |_|  |_| |__|  |__|  |_| \__\ |__|  \__/        
                                                                              
                      - O R C A' S   B I G   F R I E N D -                    
                                      &                                       
                       - I N T E G R A L  F E E D E R -                       
                                                                              
 v1 FN, 2020, v2 2021, v3 2022-2024                                           
------------------------------------------------------------------------------


----------------------
SHARK INTEGRAL PACKAGE
----------------------

Number of atoms                             ...     24
Number of basis functions                   ...    192
Number of shells                            ...     96
Maximum angular momentum                    ...      2
Integral batch strategy                     ... SHARK/LIBINT Hybrid
RI-J (if used) integral strategy            ... SPLIT-RIJ (Revised 2003 algorithm where possible)
Printlevel                                  ...      1
Contraction scheme used                     ... SEGMENTED contraction
Prescreening option                         ... SCHWARTZ
   Thresh                                   ... 1.000e-09
   Tcut                                     ... 1.000e-10
   Tpresel                                  ... 1.000e-10 
Coulomb Range Separation                    ... NOT USED
Exchange Range Separation                   ... NOT USED
Multipole approximations                    ... NOT USED
Finite Nucleus Model                        ... NOT USED
CABS basis                                  ... NOT available
Auxiliary Coulomb fitting basis             ... AVAILABLE
   # of basis functions in Aux-J            ...    720
   # of shells in Aux-J                     ...    240
   Maximum angular momentum in Aux-J        ...      4
Auxiliary J/K fitting basis                 ... NOT available
Auxiliary Correlation fitting basis         ... NOT available
Auxiliary 'external' fitting basis          ... NOT available

Checking pre-screening integrals            ... done (  0.0 sec) Dimension = 96
Check shell pair data                       ... done (  0.0 sec)
Shell pair information
Shell pair cut-off parameter TPreSel        ...   1.0e-10
Total number of shell pairs                 ...      4656
Shell pairs after pre-screening             ...      4266
Total number of primitive shell pairs       ...     18720
Primitive shell pairs kept                  ...     11442
          la=0 lb=0:   1650 shell pairs
          la=1 lb=0:   1356 shell pairs
          la=1 lb=1:    293 shell pairs
          la=2 lb=0:    630 shell pairs
          la=2 lb=1:    270 shell pairs
          la=2 lb=2:     67 shell pairs

Calculating one electron integrals          ... done (  0.0 sec)
Calculating RI/J V-Matrix + Cholesky decomp.... done (  0.1 sec)
Calculating Nuclear repulsion               ... done (  0.0 sec) ENN=    851.219872928550 Eh

Diagonalization of the overlap matrix:
Smallest eigenvalue                        ... 6.546e-04
Time for diagonalization                   ...    0.003 sec
Threshold for overlap eigenvalues          ... 1.000e-07
Number of eigenvalues below threshold      ... 0
Time for construction of square roots      ...    0.019 sec
Total time needed                          ...    0.030 sec

-------------------
DFT GRID GENERATION
-------------------

General Integration Accuracy     IntAcc      ... 4.159
Radial Grid Type                 RadialGrid  ... OptM3 with GC (2021)
Angular Grid (max. ang.)         AngularGrid ... 3 (Lebedev-194)
Angular grid pruning method      GridPruning ... 4 (adaptive)
Weight generation scheme         WeightScheme... mBecke (2022)
Basis function cutoff            BFCut       ... 1.0000e-10
Integration weight cutoff        WCut        ... 1.0000e-14
Partially contracted basis set               ... off
Rotationally invariant grid construction     ... off
Angular grids for H and He will be reduced by one unit

Total number of grid points                  ...    55690
Total number of batches                      ...      881
Average number of points per batch           ...       63
Average number of grid points per atom       ...     2320
Initializing property integral containers    ... done (  0.0 sec)

SHARK setup successfully completed in   0.9 seconds

Maximum memory used throughout the entire STARTUP-calculation: 28.2 MB
-------------------------------------------------------------------------------
                                 ORCA GUESS
                   Start orbitals & Density for SCF / CASSCF
-------------------------------------------------------------------------------

------------
SCF SETTINGS
------------
Hamiltonian:
 Density Functional     Method          .... DFT(GTOs)
 Exchange Functional    Exchange        .... PBE
   PBE kappa parameter   XKappa         ....  0.804000
   PBE mue parameter    XMuePBE         ....  0.219520
 Correlation Functional Correlation     .... PBE
   PBE beta parameter  CBetaPBE         ....  0.066725
 LDA part of GGA corr.  LDAOpt          .... PW91-LDA
 Gradients option       PostSCFGGA      .... off
   NL short-range parameter             ....  6.400000
 RI-approximation to the Coulomb term is turned on
   Number of AuxJ basis functions       .... 720


General Settings:
 Integral files         IntName         .... sp
 Hartree-Fock type      HFTyp           .... RHF
 Total Charge           Charge          ....    0
 Multiplicity           Mult            ....    1
 Number of Electrons    NEL             ....   96
 Basis Dimension        Dim             ....  192
 Nuclear Repulsion      ENuc            ....    851.2198729285 Eh

Convergence Acceleration:
 AO-DIIS                CNVDIIS         .... on
   Start iteration      DIISMaxIt       ....    12
   Startup error        DIISStart       ....  0.200000
   # of expansion vecs  DIISMaxEq       ....     5
   Bias factor          DIISBfac        ....   1.050
   Max. coefficient     DIISMaxC        ....  10.000
 MO-DIIS                CNVKDIIS        .... off
 Trust-Rad. Augm. Hess. CNVTRAH         .... auto
   Auto Start mean grad. ratio tolernc. ....  1.125000
   Auto Start start iteration           ....    50
   Auto Start num. interpolation iter.  ....    10
   Max. Number of Micro iterations      ....    24
   Max. Number of Macro iterations      .... Maxiter - #DIIS iter
   Number of Davidson start vectors     ....     2
   Converg. threshold    (grad. norm)   ....   1.000e-04
   Grad. Scal. Fac. for Micro threshold ....   0.100
   Minimum threshold for Micro iter.    ....   1.000e-02
   NR start threshold (gradient norm)   ....   1.000e-04
   Initial trust radius                 ....   0.400
   Minimum AH scaling param. (alpha)    ....   1.000
   Maximum AH scaling param. (alpha)    .... 1000.000
   Quad. conv. algorithm                .... NR
   White noise on init. David. guess    .... on
   Maximum white noise                  ....   0.010
   Pseudo random numbers                .... off
   Inactive MOs                         .... canonical
   Orbital update algorithm             .... Taylor
   Preconditioner                       .... Diag
   Full preconditioner red. dimension   ....   250
 SOSCF                  CNVSOSCF        .... on
   Start iteration      SOSCFMaxIt      ....   150
   Startup grad/error   SOSCFStart      ....  0.003300
   Hessian update       SOSCFHessUp     .... L-BFGS
 Level Shifting         CNVShift        .... on
   Level shift para.    LevelShift      ....    0.2500
   Turn off err/grad.   ShiftErr        ....    0.0010
 Zerner damping         CNVZerner       .... off
 Static damping         CNVDamp         .... on
   Fraction old density DampFac         ....    0.7000
   Max. Damping (<1)    DampMax         ....    0.9800
   Min. Damping (>=0)   DampMin         ....    0.0000
   Turn off err/grad.   DampErr         ....    0.1000

SCF Procedure:
 Maximum # iterations   MaxIter         ....   125
 SCF integral mode      SCFMode         .... Direct
   Integral package                     .... SHARK and LIBINT hybrid scheme
 Reset frequency        DirectResetFreq ....    20
 Integral Threshold     Thresh          ....  1.000e-09 Eh
 Primitive CutOff       TCut            ....  1.000e-10 Eh

Convergence Tolerance:
 Convergence Check Mode ConvCheckMode   .... Total+1el-Energy
 Convergence forced     ConvForced      .... 0
 Energy Change          TolE            ....  1.000e-05 Eh
 1-El. energy change                    ....  1.000e-02 Eh
 Orbital Gradient       TolG            ....  1.000e-04
 Orbital Rotation angle TolX            ....  1.000e-04
 DIIS Error             TolErr          ....  5.000e-04

------------------------------
INITIAL GUESS: MODEL POTENTIAL
------------------------------
Loading Hartree-Fock densities                     ... done
Calculating cut-offs                               ... done
Initializing the effective Hamiltonian             ... done
Setting up the integral package (SHARK)            ... done
Starting the Coulomb interaction                   ... done (   0.2 sec)
Making the grid                                    ... done (   0.3 sec)
Mapping shells                                     ... done
Starting the XC term evaluation                    ... done (   0.3 sec)
  promolecular density results
     # of electrons  =     95.989019158
     EX              =    -83.234861816
     EC              =     -3.269169542
     EX+EC           =    -86.504031358
Transforming the Hamiltonian                       ... done (   0.0 sec)
Diagonalizing the Hamiltonian                      ... done (   0.0 sec)
Back transforming the eigenvectors                 ... done (   0.0 sec)
Now organizing SCF variables                       ... done
                      ------------------
                      INITIAL GUESS DONE (   0.8 sec)
                      ------------------
             **** ENERGY FILE WAS UPDATED (sp.en.tmp) ****
Finished Guess after   1.0 sec
Maximum memory used throughout the entire GUESS-calculation: 21.9 MB

-------------------------------------------------------------------------------------------
                                      ORCA LEAN-SCF
                              memory conserving SCF solver
-------------------------------------------------------------------------------------------

----------------------------------------D-I-I-S--------------------------------------------
Iteration    Energy (Eh)           Delta-E    RMSDP     MaxDP     DIISErr   Damp  Time(sec)
-------------------------------------------------------------------------------------------
               ***  Starting incremental Fock matrix formation  ***
    1    -685.5152827457640115     0.00e+00  4.75e-03  1.24e-01  2.30e-01  0.700   1.2
    2    -685.6673517028181095    -1.52e-01  3.14e-03  9.48e-02  9.26e-02  0.700   1.2
                               ***Turning on AO-DIIS***
    3    -685.7152631534830789    -4.79e-02  1.14e-03  2.86e-02  1.80e-02  0.700   1.2
    4    -685.7470722084525505    -3.18e-02  1.46e-03  2.49e-02  9.63e-03  0.000   1.1
    5    -685.8208878718436381    -7.38e-02  4.76e-04  1.78e-02  5.41e-03  0.000   1.1
                              *** Initializing SOSCF ***
---------------------------------------S-O-S-C-F--------------------------------------
Iteration    Energy (Eh)           Delta-E    RMSDP     MaxDP     MaxGrad    Time(sec)
--------------------------------------------------------------------------------------
    6    -685.8212235426937013    -3.36e-04  1.49e-04  4.19e-03  1.13e-03     1.1
               *** Restarting incremental Fock matrix formation ***
    7    -685.8212531763864490    -2.96e-05  9.18e-05  2.81e-03  1.48e-04     1.2
    8    -685.8212547725219110    -1.60e-06  3.27e-05  5.36e-04  1.19e-04     1.0
                 **** Energy Check signals convergence ****

               *****************************************************
               *                     SUCCESS                       *
               *           SCF CONVERGED AFTER   8 CYCLES          *
               *****************************************************

             **** ENERGY FILE WAS UPDATED (sp.en.tmp) ****

----------------
TOTAL SCF ENERGY
----------------

Total Energy       :       -685.82125477252191 Eh          -18662.14511 eV

Components:
Nuclear Repulsion  :        851.21987292854976 Eh           23162.87032 eV
Electronic Energy  :      -1537.04112770107167 Eh          -41825.01543 eV
One Electron Energy:      -2631.95435597661753 Eh          -71619.11907 eV
Two Electron Energy:       1094.91322827554586 Eh           29794.10364 eV

Virial components:
Potential Energy   :      -1366.90409712481733 Eh          -37195.35146 eV
Kinetic Energy     :        681.08284235229542 Eh           18533.20635 eV
Virial Ratio       :          2.00695717484801

DFT components:
N(Alpha)           :       47.999728188557 electrons
N(Beta)            :       47.999728188557 electrons
N(Total)           :       95.999456377114 electrons
E(X)               :      -84.600302673698 Eh       
E(C)               :       -3.282340190318 Eh       
E(XC)              :      -87.882642864016 Eh       

---------------
SCF CONVERGENCE
---------------

  Last Energy change         ...    1.5961e-06  Tolerance :   1.0000e-05
  Last MAX-Density change    ...    5.3593e-04  Tolerance :   1.0000e-03
  Last RMS-Density change    ...    3.2666e-05  Tolerance :   1.0000e-04
  Last DIIS Error            ...    1.1254e-03  Tolerance :   5.0000e-04
  Last Orbital Gradient      ...    1.1885e-04  Tolerance :   1.0000e-04
  Last Orbital Rotation      ...    1.4973e-04  Tolerance :   1.0000e-04


----------------
ORBITAL ENERGIES
----------------

  NO   OCC          E(Eh)            E(eV) 
   0   2.0000     -18.773592      -510.8554 
   1   2.0000     -18.762201      -510.5454 
   2   2.0000     -18.761564      -510.5281 
   3   2.0000     -18.753956      -510.3211 
   4   2.0000     -18.744920      -510.0752 
   5   2.0000     -18.740977      -509.9679 
   6   2.0000      -9.980317      -271.5782 
   7   2.0000      -9.949446      -270.7382 
   8   2.0000      -9.944638      -270.6074 
   9   2.0000      -9.937911      -270.4243 
  10   2.0000      -9.933195      -270.2960 
  11   2.0000      -9.923201      -270.0240 
  12   2.0000      -0.976607       -26.5748 
  13   2.0000      -0.947756       -25.7897 
  14   2.0000      -0.935797       -25.4643 
  15   2.0000      -0.931042       -25.3349 
  16   2.0000      -0.919419       -25.0187 
  17   2.0000      -0.900568       -24.5057 
  18   2.0000      -0.700309       -19.0564 
  19   2.0000      -0.683735       -18.6054 
  20   2.0000      -0.612947       -16.6791 
  21   2.0000      -0.589260       -16.0346 
  22   2.0000      -0.559611       -15.2278 
  23   2.0000      -0.520205       -14.1555 
  24   2.0000      -0.503683       -13.7059 
  25   2.0000      -0.490822       -13.3559 
  26   2.0000      -0.475640       -12.9428 
  27   2.0000      -0.454563       -12.3693 
  28   2.0000      -0.443722       -12.0743 
  29   2.0000      -0.435869       -11.8606 
  30   2.0000      -0.426439       -11.6040 
  31   2.0000      -0.385122       -10.4797 
  32   2.0000      -0.374796       -10.1987 
  33   2.0000      -0.364830        -9.9275 
  34   2.0000      -0.363121        -9.8810 
  35   2.0000      -0.351265        -9.5584 
  36   2.0000      -0.330497        -8.9933 
  37   2.0000      -0.311203        -8.4683 
  38   2.0000      -0.301527        -8.2050 
  39   2.0000      -0.293461        -7.9855 
  40   2.0000      -0.279587        -7.6079 
  41   2.0000      -0.270447        -7.3592 
  42   2.0000      -0.252994        -6.8843 
  43   2.0000      -0.247188        -6.7263 
  44   2.0000      -0.225380        -6.1329 
  45   2.0000      -0.216641        -5.8951 
  46   2.0000      -0.214080        -5.8254 
  47   2.0000      -0.197621        -5.3775 
  48   0.0000       0.004008         0.1091 
  49   0.0000       0.016922         0.4605 
  50   0.0000       0.033891         0.9222 
  51   0.0000       0.050869         1.3842 
  52   0.0000       0.061820         1.6822 
  53   0.0000       0.073633         2.0037 
  54   0.0000       0.082743         2.2515 
  55   0.0000       0.094709         2.5772 
  56   0.0000       0.102669         2.7938 
  57   0.0000       0.108289         2.9467 
  58   0.0000       0.110739         3.0134 
*Only the first 10 virtual orbitals were printed.

                    ********************************
                    * MULLIKEN POPULATION ANALYSIS *
                    ********************************

-----------------------
MULLIKEN ATOMIC CHARGES
-----------------------
   0 C :    0.092575
   1 C :   -0.020337
   2 H :    0.079026
   3 C :    0.076756
   4 H :    0.035184
   5 C :    0.072955
   6 H :    0.051481
   7 C :   -0.047973
   8 H :    0.081122
   9 C :    0.228288
  10 H :    0.046882
  11 O :   -0.318531
  12 O :   -0.396112
  13 O :   -0.398217
  14 O :   -0.425776
  15 O :   -0.404445
  16 O :   -0.440789
  17 H :    0.089776
  18 H :    0.077274
  19 H :    0.302002
  20 H :    0.309403
  21 H :    0.309350
  22 H :    0.299042
  23 H :    0.301063
Sum of atomic charges:    0.0000000

--------------------------------
MULLIKEN REDUCED ORBITAL CHARGES
--------------------------------
  0 C s       :     2.996724  s :     2.996724
      pz      :     0.811503  p :     2.847687
      px      :     0.989963
      py      :     1.046222
      dz2     :     0.015841  d :     0.063014
      dxz     :     0.015825
      dyz     :     0.016071
      dx2y2   :     0.008649
      dxy     :     0.006627

  1 C s       :     3.069551  s :     3.069551
      pz      :     1.002129  p :     2.884537
      px      :     0.991245
      py      :     0.891162
      dz2     :     0.015919  d :     0.066249
      dxz     :     0.010410
      dyz     :     0.010845
      dx2y2   :     0.014318
      dxy     :     0.014756

  2 H s       :     0.920974  s :     0.920974

  3 C s       :     3.021978  s :     3.021978
      pz      :     0.894454  p :     2.834079
      px      :     0.987321
      py      :     0.952304
      dz2     :     0.013003  d :     0.067187
      dxz     :     0.016291
      dyz     :     0.015127
      dx2y2   :     0.012761
      dxy     :     0.010006

  4 H s       :     0.964816  s :     0.964816

  5 C s       :     3.020517  s :     3.020517
      pz      :     0.734467  p :     2.840121
      px      :     1.040406
      py      :     1.065248
      dz2     :     0.019416  d :     0.066408
      dxz     :     0.015828
      dyz     :     0.013339
      dx2y2   :     0.011336
      dxy     :     0.006489

  6 H s       :     0.948519  s :     0.948519

  7 C s       :     3.091574  s :     3.091574
      pz      :     0.760982  p :     2.889757
      px      :     1.080850
      py      :     1.047926
      dz2     :     0.018697  d :     0.066642
      dxz     :     0.014906
      dyz     :     0.016158
      dx2y2   :     0.011161
      dxy     :     0.005720

  8 H s       :     0.918878  s :     0.918878

  9 C s       :     3.027251  s :     3.027251
      pz      :     0.894573  p :     2.643953
      px      :     0.763006
      py      :     0.986374
      dz2     :     0.018519  d :     0.100507
      dxz     :     0.023448
      dyz     :     0.018472
      dx2y2   :     0.023178
      dxy     :     0.016890

 10 H s       :     0.953118  s :     0.953118

 11 O s       :     3.763113  s :     3.763113
      pz      :     1.668363  p :     4.540519
      px      :     1.240449
      py      :     1.631707
      dz2     :     0.002322  d :     0.014899
      dxz     :     0.002688
      dyz     :     0.002817
      dx2y2   :     0.003843
      dxy     :     0.003228

 12 O s       :     3.766728  s :     3.766728
      pz      :     1.202552  p :     4.613837
      px      :     1.734696
      py      :     1.676588
      dz2     :     0.001474  d :     0.015547
      dxz     :     0.003174
      dyz     :     0.006203
      dx2y2   :     0.001974
      dxy     :     0.002721

 13 O s       :     3.782338  s :     3.782338
      pz      :     1.279705  p :     4.600457
      px      :     1.557427
      py      :     1.763326
      dz2     :     0.003678  d :     0.015421
      dxz     :     0.003378
      dyz     :     0.003053
      dx2y2   :     0.001683
      dxy     :     0.003629

 14 O s       :     3.782688  s :     3.782688
      pz      :     1.251735  p :     4.628243
      px      :     1.744469
      py      :     1.632040
      dz2     :     0.002797  d :     0.014845
      dxz     :     0.003198
      dyz     :     0.004200
      dx2y2   :     0.001047
      dxy     :     0.003603

 15 O s       :     3.785129  s :     3.785129
      pz      :     1.542211  p :     4.603844
      px      :     1.858253
      py      :     1.203380
      dz2     :     0.003480  d :     0.015472
      dxz     :     0.002267
      dyz     :     0.005487
      dx2y2   :     0.003612
      dxy     :     0.000626

 16 O s       :     3.794128  s :     3.794128
      pz      :     1.272660  p :     4.630932
      px      :     1.678910
      py      :     1.679361
      dz2     :     0.002599  d :     0.015730
      dxz     :     0.004631
      dyz     :     0.003174
      dx2y2   :     0.001193
      dxy     :     0.004133

 17 H s       :     0.910224  s :     0.910224

 18 H s       :     0.922726  s :     0.922726

 19 H s       :     0.697998  s :     0.697998

 20 H s       :     0.690597  s :     0.690597

 21 H s       :     0.690650  s :     0.690650

 22 H s       :     0.700958  s :     0.700958

 23 H s       :     0.698937  s :     0.698937


------------------------
MULLIKEN OVERLAP CHARGES
------------------------
B(  0-C ,  1-C ) :   0.6549 B(  0-C ,  2-H ) :  -0.0546 B(  0-C ,  4-H ) :  -0.0778 
B(  0-C , 11-O ) :  -0.1053 B(  0-C , 16-O ) :   0.6689 B(  0-C , 17-H ) :   0.6759 
B(  0-C , 18-H ) :   0.6757 B(  0-C , 23-H ) :  -0.1119 B(  1-C ,  2-H ) :   0.5971 
B(  1-C ,  3-C ) :   0.2230 B(  1-C ,  9-C ) :  -0.1105 B(  1-C , 11-O ) :   0.5954 
B(  1-C , 15-O ) :  -0.0966 B(  1-C , 16-O ) :  -0.0767 B(  1-C , 18-H ) :  -0.0541 
B(  2-H ,  5-C ) :  -0.0526 B(  2-H , 11-O ) :  -0.0592 B(  2-H , 13-O ) :   0.0501 
B(  3-C ,  4-H ) :   0.5922 B(  3-C ,  5-C ) :   0.3192 B(  3-C ,  6-H ) :  -0.0887 
B(  3-C ,  9-C ) :  -0.0846 B(  3-C , 11-O ) :  -0.1357 B(  3-C , 14-O ) :  -0.0687 
B(  3-C , 15-O ) :   0.5680 B(  3-C , 22-H ) :  -0.0733 B(  4-H ,  5-C ) :  -0.1415 
B(  4-H , 16-O ) :   0.0837 B(  5-C ,  6-H ) :   0.5684 B(  5-C ,  7-C ) :   0.1549 
B(  5-C ,  9-C ) :  -0.1071 B(  5-C , 11-O ) :   0.0646 B(  5-C , 13-O ) :  -0.1339 
B(  5-C , 14-O ) :   0.4503 B(  5-C , 15-O ) :  -0.0786 B(  5-C , 21-H ) :  -0.0775 
B(  7-C ,  8-H ) :   0.6379 B(  7-C ,  9-C ) :   0.4654 B(  7-C , 10-H ) :  -0.1674 
B(  7-C , 11-O ) :  -0.1501 B(  7-C , 13-O ) :   0.5499 B(  7-C , 14-O ) :  -0.0929 
B(  7-C , 20-H ) :  -0.0733 B(  8-H ,  9-C ) :  -0.1155 B(  9-C , 10-H ) :   0.6906 
B(  9-C , 11-O ) :   0.5813 B(  9-C , 12-O ) :   0.6713 B(  9-C , 13-O ) :  -0.0859 
B(  9-C , 19-H ) :  -0.0769 B( 10-H , 11-O ) :  -0.0719 B( 10-H , 12-O ) :  -0.0669 
B( 11-O , 12-O ) :  -0.1282 B( 12-O , 19-H ) :   0.5327 B( 13-O , 20-H ) :   0.5236 
B( 14-O , 19-H ) :   0.0662 B( 14-O , 21-H ) :   0.5219 B( 15-O , 22-H ) :   0.5095 
B( 16-O , 17-H ) :  -0.0557 B( 16-O , 18-H ) :  -0.0598 B( 16-O , 23-H ) :   0.5323 
B( 17-H , 18-H ) :  -0.0716 


                     *******************************
                     * LOEWDIN POPULATION ANALYSIS *
                     *******************************

----------------------
LOEWDIN ATOMIC CHARGES
----------------------
   0 C :   -0.123323
   1 C :   -0.074605
   2 H :    0.114104
   3 C :   -0.079543
   4 H :    0.096201
   5 C :   -0.069906
   6 H :    0.101202
   7 C :   -0.094839
   8 H :    0.111122
   9 C :    0.003346
  10 H :    0.092126
  11 O :   -0.158447
  12 O :   -0.299751
  13 O :   -0.306489
  14 O :   -0.314485
  15 O :   -0.310342
  16 O :   -0.333999
  17 H :    0.119979
  18 H :    0.101496
  19 H :    0.276741
  20 H :    0.291851
  21 H :    0.290440
  22 H :    0.284687
  23 H :    0.282434

-------------------------------
LOEWDIN REDUCED ORBITAL CHARGES
-------------------------------
  0 C s       :     2.917429  s :     2.917429
      pz      :     0.893015  p :     3.061841
      px      :     1.057938
      py      :     1.110888
      dz2     :     0.036876  d :     0.144053
      dxz     :     0.033498
      dyz     :     0.035546
      dx2y2   :     0.022230
      dxy     :     0.015902

  1 C s       :     2.900599  s :     2.900599
      pz      :     1.039885  p :     3.019930
      px      :     1.016095
      py      :     0.963950
      dz2     :     0.038601  d :     0.154076
      dxz     :     0.021990
      dyz     :     0.025437
      dx2y2   :     0.036717
      dxy     :     0.031331

  2 H s       :     0.885896  s :     0.885896

  3 C s       :     2.896723  s :     2.896723
      pz      :     0.992613  p :     3.024425
      px      :     1.043197
      py      :     0.988615
      dz2     :     0.028114  d :     0.158395
      dxz     :     0.039730
      dyz     :     0.035375
      dx2y2   :     0.035209
      dxy     :     0.019968

  4 H s       :     0.903799  s :     0.903799

  5 C s       :     2.900768  s :     2.900768
      pz      :     0.850833  p :     3.013398
      px      :     1.079242
      py      :     1.083323
      dz2     :     0.044722  d :     0.155740
      dxz     :     0.036042
      dyz     :     0.030259
      dx2y2   :     0.028358
      dxy     :     0.016359

  6 H s       :     0.898798  s :     0.898798

  7 C s       :     2.903077  s :     2.903077
      pz      :     0.872376  p :     3.034787
      px      :     1.090346
      py      :     1.072065
      dz2     :     0.044256  d :     0.156976
      dxz     :     0.033014
      dyz     :     0.036685
      dx2y2   :     0.027273
      dxy     :     0.015748

  8 H s       :     0.888878  s :     0.888878

  9 C s       :     2.891710  s :     2.891710
      pz      :     0.969133  p :     2.880513
      px      :     0.852176
      py      :     1.059204
      dz2     :     0.040565  d :     0.224431
      dxz     :     0.050747
      dyz     :     0.041446
      dx2y2   :     0.057096
      dxy     :     0.034577

 10 H s       :     0.907874  s :     0.907874

 11 O s       :     3.474782  s :     3.474782
      pz      :     1.698945  p :     4.654605
      px      :     1.300084
      py      :     1.655576
      dz2     :     0.004053  d :     0.029060
      dxz     :     0.005373
      dyz     :     0.004526
      dx2y2   :     0.008526
      dxy     :     0.006583

 12 O s       :     3.525140  s :     3.525140
      pz      :     1.283188  p :     4.747322
      px      :     1.759199
      py      :     1.704935
      dz2     :     0.003765  d :     0.027290
      dxz     :     0.006400
      dyz     :     0.011384
      dx2y2   :     0.002323
      dxy     :     0.003417

 13 O s       :     3.532689  s :     3.532689
      pz      :     1.358885  p :     4.746529
      px      :     1.607747
      py      :     1.779898
      dz2     :     0.007903  d :     0.027271
      dxz     :     0.006207
      dyz     :     0.005590
      dx2y2   :     0.002247
      dxy     :     0.005324

 14 O s       :     3.527389  s :     3.527389
      pz      :     1.323493  p :     4.760603
      px      :     1.763071
      py      :     1.674039
      dz2     :     0.006607  d :     0.026493
      dxz     :     0.005934
      dyz     :     0.007596
      dx2y2   :     0.001132
      dxy     :     0.005224

 15 O s       :     3.536416  s :     3.536416
      pz      :     1.612408  p :     4.746537
      px      :     1.855437
      py      :     1.278693
      dz2     :     0.005596  d :     0.027389
      dxz     :     0.003171
      dyz     :     0.010310
      dx2y2   :     0.006800
      dxy     :     0.001512

 16 O s       :     3.540041  s :     3.540041
      pz      :     1.351827  p :     4.766820
      px      :     1.705399
      py      :     1.709595
      dz2     :     0.005856  d :     0.027137
      dxz     :     0.008511
      dyz     :     0.005611
      dx2y2   :     0.001320
      dxy     :     0.005840

 17 H s       :     0.880021  s :     0.880021

 18 H s       :     0.898504  s :     0.898504

 19 H s       :     0.723259  s :     0.723259

 20 H s       :     0.708149  s :     0.708149

 21 H s       :     0.709560  s :     0.709560

 22 H s       :     0.715313  s :     0.715313

 23 H s       :     0.717566  s :     0.717566


---------------------------------
LOEWDIN BOND ORDERS (THRESH 0.050000)
---------------------------------
B(  0-C ,  1-C ) :   1.0698 B(  0-C ,  3-C ) :   0.0556 B(  0-C , 11-O ) :   0.0572 
B(  0-C , 16-O ) :   1.2454 B(  0-C , 17-H ) :   0.9061 B(  0-C , 18-H ) :   0.9058 
B(  1-C ,  2-H ) :   0.8597 B(  1-C ,  3-C ) :   1.0127 B(  1-C ,  5-C ) :   0.0521 
B(  1-C ,  9-C ) :   0.0637 B(  1-C , 11-O ) :   1.1270 B(  1-C , 15-O ) :   0.0645 
B(  1-C , 16-O ) :   0.0789 B(  3-C ,  4-H ) :   0.8612 B(  3-C ,  5-C ) :   1.0120 
B(  3-C , 11-O ) :   0.0672 B(  3-C , 14-O ) :   0.0761 B(  3-C , 15-O ) :   1.2231 
B(  5-C ,  6-H ) :   0.8704 B(  5-C ,  7-C ) :   1.0214 B(  5-C ,  9-C ) :   0.0520 
B(  5-C , 13-O ) :   0.0612 B(  5-C , 14-O ) :   1.2041 B(  5-C , 15-O ) :   0.0805 
B(  7-C ,  8-H ) :   0.8687 B(  7-C ,  9-C ) :   1.0071 B(  7-C , 11-O ) :   0.0570 
B(  7-C , 12-O ) :   0.0824 B(  7-C , 13-O ) :   1.2245 B(  7-C , 14-O ) :   0.0631 
B(  9-C , 10-H ) :   0.8807 B(  9-C , 11-O ) :   1.1547 B(  9-C , 12-O ) :   1.3078 
B(  9-C , 13-O ) :   0.0783 B( 11-O , 12-O ) :   0.0804 B( 12-O , 19-H ) :   0.8597 
B( 13-O , 20-H ) :   0.8807 B( 14-O , 19-H ) :   0.0526 B( 14-O , 21-H ) :   0.8777 
B( 15-O , 22-H ) :   0.8825 B( 16-O , 23-H ) :   0.8826 

------------------------------------------
LOEWDIN REDUCED ORBITAL POPULATIONS PER MO
-------------------------------------------
THRESHOLD FOR PRINTING IS 0.1%%
                      0         1         2         3         4         5   
                 -18.77359 -18.76220 -18.76156 -18.75396 -18.74492 -18.74098
                   2.00000   2.00000   2.00000   2.00000   2.00000   2.00000
                  --------  --------  --------  --------  --------  --------
11 O  s               0.0      99.9       0.0       0.0       0.0       0.0
12 O  s               0.0       0.0       0.0       0.0      99.9       0.0
13 O  s               0.0       0.0      99.9       0.0       0.0       0.0
14 O  s              99.9       0.0       0.0       0.0       0.0       0.0
15 O  s               0.0       0.0       0.0      99.9       0.0       0.0
16 O  s               0.0       0.0       0.0       0.0       0.0      99.9

                      6         7         8         9        10        11   
                  -9.98032  -9.94945  -9.94464  -9.93791  -9.93319  -9.92320
                   2.00000   2.00000   2.00000   2.00000   2.00000   2.00000
                  --------  --------  --------  --------  --------  --------
 0 C  s               0.0       0.0       0.0       0.0       0.0      99.6
 1 C  s               0.0       0.0       0.0       0.0      99.6       0.0
 3 C  s               0.0       0.0       0.0      99.6       0.0       0.0
 5 C  s               0.0      99.6       0.0       0.0       0.0       0.0
 7 C  s               0.0       0.0      99.6       0.0       0.0       0.0
 9 C  s              99.6       0.0       0.0       0.0       0.0       0.0
11 O  px              0.1       0.0       0.0       0.0       0.0       0.0
13 O  pz              0.0       0.0       0.1       0.0       0.0       0.0
14 O  pz              0.0       0.1       0.0       0.0       0.0       0.0
16 O  pz              0.0       0.0       0.0       0.0       0.0       0.1

                     12        13        14        15        16        17   
                  -0.97661  -0.94776  -0.93580  -0.93104  -0.91942  -0.90057
                   2.00000   2.00000   2.00000   2.00000   2.00000   2.00000
                  --------  --------  --------  --------  --------  --------
 0 C  s               0.6       0.1       0.1       1.1       8.0       0.9
 0 C  pz              0.1       0.1       0.1       0.5       6.1       1.6
 0 C  px              0.4       0.0       0.0       0.0       0.3       1.2
 0 C  dz2             0.0       0.0       0.0       0.0       0.5       0.2
 0 C  dxz             0.0       0.0       0.0       0.0       0.1       0.0
 1 C  s               4.6       0.4       0.2       1.5       1.0       2.7
 1 C  pz              1.2       0.2       0.1       0.1       0.3       0.7
 1 C  px              1.3       0.2       0.0       0.1       0.6       2.2
 1 C  py              0.8       1.0       0.1       0.7       0.7       1.2
 1 C  dxz             0.1       0.0       0.0       0.0       0.0       0.1
 1 C  dyz             0.1       0.0       0.0       0.0       0.0       0.1
 1 C  dxy             0.1       0.0       0.0       0.0       0.0       0.2
 2 H  s               0.7       0.0       0.0       0.3       0.1       0.3
 3 C  s               1.5       1.4       0.0       8.1       0.5       0.0
 3 C  pz              0.0       0.0       0.0       4.3       0.6       0.0
 3 C  px              0.2       0.4       0.0       0.9       0.1       0.1
 3 C  py              0.2       0.7       0.0       2.5       1.3       0.7
 3 C  dyz             0.0       0.0       0.0       0.4       0.1       0.0
 3 C  dx2y2           0.0       0.0       0.0       0.1       0.0       0.0
 4 H  s               0.3       0.3       0.0       1.0       0.0       0.0
 5 C  s               2.6       8.5       0.1       0.1       0.0       0.0
 5 C  pz              0.2       5.6       2.6       1.5       0.1       0.0
 5 C  px              0.0       0.0       0.3       1.1       0.1       0.0
 5 C  py              0.6       0.1       0.1       0.1       0.0       0.0
 5 C  dz2             0.1       0.6       0.1       0.1       0.0       0.0
 6 H  s               0.3       1.1       0.0       0.0       0.0       0.0
 7 C  s               3.8       0.8       7.0       0.2       0.0       0.1
 7 C  pz              0.1       0.0       9.9       0.0       0.2       0.0
 7 C  px              0.5       0.1       0.1       0.0       0.0       0.1
 7 C  py              0.5       1.2       0.3       0.0       0.1       0.0
 7 C  dz2             0.0       0.0       0.7       0.0       0.0       0.0
 8 H  s               0.6       0.1       0.7       0.1       0.0       0.1
 9 C  s              13.3       2.1       0.1       0.4       0.8       0.3
 9 C  pz              1.7       0.6       0.8       0.4       1.2       3.6
 9 C  px              1.5       0.4       0.3       0.3       0.8       8.4
 9 C  py              0.1       0.5       0.8       0.0       0.2       0.3
 9 C  dz2             0.0       0.0       0.0       0.0       0.1       0.5
 9 C  dxz             0.0       0.0       0.0       0.0       0.1       0.3
 9 C  dx2y2           0.2       0.1       0.0       0.0       0.0       0.2
10 H  s               1.6       0.2       0.0       0.1       0.1       0.0
11 O  s              25.3       6.0       1.2       0.3       0.9      20.6
11 O  pz              0.3       0.1       0.0       0.0       0.1       0.7
11 O  px              0.8       0.2       0.0       0.1       0.3       0.1
11 O  py              0.6       0.1       0.0       0.1       0.1       0.7
12 O  s              14.0       4.0       0.9       3.0       8.2      28.3
12 O  pz              0.4       0.1       0.0       0.0       0.0       0.0
12 O  px              0.7       0.2       0.0       0.1       0.2       0.3
12 O  py              0.6       0.1       0.0       0.1       0.3       0.9
13 O  s               3.8       1.9      52.1       0.3       0.4       0.1
13 O  pz              0.2       0.1       0.8       0.0       0.0       0.0
13 O  px              0.1       0.0       1.2       0.0       0.0       0.0
13 O  py              0.1       0.0       0.9       0.0       0.0       0.0
14 O  s               5.3      43.8       5.3       4.1       0.5       0.0
14 O  pz              0.2       0.6       0.0       0.0       0.0       0.0
14 O  px              0.1       0.7       0.1       0.0       0.0       0.0
14 O  py              0.1       1.1       0.1       0.1       0.0       0.0
15 O  s               1.0       2.9       0.0      46.7       6.9       0.8
15 O  pz              0.1       0.2       0.0       2.5       0.3       0.0
15 O  px              0.0       0.0       0.0       0.1       0.0       0.0
16 O  s               0.6       0.3       0.4       3.6      41.8      12.3
16 O  pz              0.0       0.0       0.0       0.1       0.5       0.1
16 O  px              0.0       0.0       0.0       0.1       1.5       0.3
16 O  py              0.0       0.0       0.0       0.0       0.6       0.2
17 H  s               0.1       0.0       0.0       0.2       0.8       0.1
18 H  s               0.1       0.0       0.0       0.1       1.0       0.1
19 H  s               3.2       0.4       0.2       0.7       1.5       5.4
20 H  s               0.7       0.4      10.5       0.1       0.1       0.0
21 H  s               1.0       8.9       1.1       0.8       0.1       0.0
22 H  s               0.2       0.6       0.0       9.4       1.4       0.2
23 H  s               0.2       0.1       0.1       0.8       8.6       2.2

                     18        19        20        21        22        23   
                  -0.70031  -0.68374  -0.61295  -0.58926  -0.55961  -0.52020
                   2.00000   2.00000   2.00000   2.00000   2.00000   2.00000
                  --------  --------  --------  --------  --------  --------
 0 C  s               1.3       6.6      14.2       0.5       7.6       0.9
 0 C  pz              0.2       0.9       1.9       0.0       0.5       0.0
 0 C  px              0.6       2.8       0.0       0.1       3.0       3.1
 0 C  py              0.3       0.4       0.0       0.6       0.0       0.0
 0 C  dz2             0.0       0.1       0.1       0.0       0.0       0.0
 1 C  s               5.3      13.8       1.1       0.1       3.7       2.4
 1 C  pz              0.0       0.0       1.7       0.2       0.1       0.0
 1 C  px              0.1       2.1       4.5       0.1       2.5       0.0
 1 C  py              3.1       0.0       1.1       7.2       0.1       0.3
 1 C  dyz             0.1       0.0       0.0       0.2       0.0       0.0
 1 C  dx2y2           0.0       0.0       0.2       0.0       0.1       0.0
 2 H  s               1.0       2.5       0.6       0.1       1.5       0.7
 3 C  s              10.5       2.0       4.9       8.1       0.1       0.3
 3 C  pz              0.3       0.1       1.2       0.1       1.9       0.2
 3 C  px              2.1       1.3       1.4       0.9       0.8       0.1
 3 C  py              1.9       2.9       0.2       0.3       2.3       0.9
 3 C  dyz             0.1       0.1       0.0       0.0       0.0       0.0
 3 C  dx2y2           0.0       0.1       0.0       0.0       0.1       0.0
 4 H  s               1.7       0.6       1.4       2.9       0.2       0.0
 5 C  s              13.5       2.6       2.5       2.3       5.6       0.3
 5 C  pz              3.2       0.5       0.1       0.0       0.3       5.8
 5 C  px              0.1       2.0       3.8       5.7       0.6       0.3
 5 C  py              0.9       0.4       0.7       0.0       2.0       0.6
 5 C  dz2             0.2       0.0       0.0       0.0       0.0       0.0
 5 C  dyz             0.0       0.0       0.0       0.0       0.1       0.1
 6 H  s               2.3       0.6       0.8       1.2       2.8       0.2
 7 C  s               7.4       8.2       5.1       1.0       4.1       0.7
 7 C  pz              1.9       1.6       0.2       0.5       0.2       4.8
 7 C  px              1.6       0.3       0.5       0.0       0.5       0.7
 7 C  py              0.8       0.3       2.9       6.2       1.0       2.4
 8 H  s               1.3       1.6       1.8       0.6       1.5       0.1
 9 C  s               0.0       7.1       5.0       9.0       0.3       0.7
 9 C  pz              0.0       0.7       1.4       1.3       0.5       0.1
 9 C  px              1.3       0.3       1.8       0.2       1.9       4.2
 9 C  py              2.5       1.2       0.8       1.1       3.8       0.0
 9 C  dz2             0.0       0.1       0.0       0.0       0.0       0.0
 9 C  dx2y2           0.2       0.0       0.1       0.0       0.1       0.1
10 H  s               0.0       1.4       2.0       4.6       0.1       1.0
11 O  s               3.6       0.1       1.2       1.5       0.5       0.7
11 O  pz              0.1       0.4       0.3       0.1       1.1       0.6
11 O  px              0.7       7.5       0.2       6.8       4.8       2.7
11 O  py              0.7       0.6       0.0       0.2       2.4       0.7
12 O  s               0.0       3.1       1.0       1.1       0.1       0.1
12 O  pz              0.0       2.1       3.3       9.0       1.0       5.3
12 O  px              0.1       0.1       0.0       0.2       0.6       0.2
12 O  py              0.0       0.0       0.0       0.2       0.3       0.0
13 O  s               2.1       1.9       1.0       0.0       0.6       0.0
13 O  pz              2.2       2.2       1.9       0.9       5.0      12.9
13 O  px              0.9       0.5       0.2       0.1       1.0       5.4
13 O  py              0.1       0.0       0.1       0.5       0.0       1.2
13 O  dz2             0.0       0.0       0.0       0.0       0.0       0.1
14 O  s               3.6       0.5       0.6       0.1       0.8       0.0
14 O  pz              4.3       1.4       0.9       3.5       7.2      13.2
14 O  px              0.2       0.2       0.1       1.1       0.0       1.3
14 O  py              0.5       0.2       0.0       0.4       0.1       2.0
15 O  s               3.3       0.5       0.8       1.0       0.2       0.1
15 O  pz              0.3       0.0       0.5       0.8       0.2       0.3
15 O  px              0.3       0.0       0.4       0.2       0.0       0.4
15 O  py              2.8       1.1       1.1       7.9       0.2       1.8
15 O  dyz             0.0       0.0       0.0       0.1       0.0       0.0
16 O  s               0.4       2.3       1.7       0.1       0.6       0.0
16 O  pz              0.2       1.3       5.7       0.2       8.0       3.2
16 O  px              0.0       0.0       0.1       0.0       0.3       0.4
16 O  py              0.1       0.3       0.7       0.0       1.0       0.5
17 H  s               0.3       1.5       4.7       0.0       3.8       1.0
18 H  s               0.2       1.3       3.9       0.4       2.6       0.3
19 H  s               0.0       1.4       1.1       3.0       0.5       1.3
20 H  s               1.7       1.3       0.7       0.3       1.8       5.6
21 H  s               2.5       0.7       0.3       1.5       1.9       4.7
22 H  s               2.0       0.5       0.6       2.9       0.0       0.7
23 H  s               0.2       1.0       2.3       0.0       2.7       1.1

                     24        25        26        27        28        29   
                  -0.50368  -0.49082  -0.47564  -0.45456  -0.44372  -0.43587
                   2.00000   2.00000   2.00000   2.00000   2.00000   2.00000
                  --------  --------  --------  --------  --------  --------
 0 C  s               0.0       0.0       0.0       0.1       1.3       0.0
 0 C  pz              0.3       1.7       0.1       0.3      10.5       1.0
 0 C  px              2.3       0.1       0.5       0.7       3.4       0.6
 0 C  py              1.0       0.0       0.0       2.2       3.8       1.1
 0 C  dz2             0.0       0.0       0.0       0.0       0.2       0.0
 0 C  dxz             0.0       0.0       0.0       0.0       0.2       0.0
 1 C  s               1.0       0.9       0.6       0.1       0.3       0.8
 1 C  pz              0.6      13.3       1.7       1.1       1.0       0.1
 1 C  px              0.0       0.1       2.5       1.5       4.7       1.0
 1 C  py              3.1       0.7       0.4       1.5       0.7       3.1
 2 H  s               0.9       6.2       2.2       0.2       0.0       0.2
 3 C  s               0.4       1.7       0.3       0.0       0.6       0.1
 3 C  pz              0.1      17.2       1.7       0.9       4.2       0.1
 3 C  px              3.1       0.3       5.2       3.8       1.1       0.4
 3 C  py              0.7       0.2       2.1       3.2       1.6       3.8
 3 C  dz2             0.0       0.1       0.1       0.0       0.0       0.1
 3 C  dxz             0.0       0.1       0.0       0.0       0.0       0.0
 3 C  dyz             0.0       0.0       0.2       0.0       0.0       0.1
 4 H  s               0.4       7.5       0.2       1.2       3.3       0.1
 5 C  s               2.2       0.2       0.1       0.7       0.1       0.2
 5 C  pz              2.2       0.1       0.0       2.5       0.6       4.7
 5 C  px              0.2       4.0       4.6       0.5       0.9       0.6
 5 C  py              9.6       0.0       1.8       3.6       0.0       0.1
 5 C  dz2             0.0       0.1       0.0       0.3       0.0       0.3
 6 H  s               6.2       0.3       0.6       3.0       0.3       0.5
 7 C  s               0.4       0.9       1.3       0.4       0.2       0.2
 7 C  pz              2.5       0.0       1.3       4.0       0.3       4.7
 7 C  px              0.1       2.0      12.9       0.7       0.2       0.0
 7 C  py              1.5       1.6       2.8       3.6       0.4       2.5
 7 C  dz2             0.0       0.0       0.0       0.5       0.0       0.1
 8 H  s               0.6       1.2       7.7       1.5       0.0       0.8
 9 C  s               0.2       0.0       0.4       0.1       0.1       0.2
 9 C  pz              0.6       0.0       2.2       2.5       0.4      13.3
 9 C  px              3.7       3.0       0.8       0.2       1.5       1.6
 9 C  py              8.0       1.2       1.3       4.7       0.2       0.9
 9 C  dxz             0.1       0.0       0.0       0.0       0.1       0.0
 9 C  dxy             0.1       0.0       0.0       0.0       0.1       0.0
10 H  s               2.5       0.0       0.3       0.1       0.0       5.9
11 O  s               0.1       0.2       3.4       0.0       0.0       0.1
11 O  pz              1.5       0.3       1.7       2.3       0.4       5.4
11 O  px              3.4       5.5       2.6       0.1       2.1       3.6
11 O  py              0.4       1.0       2.6       0.4       2.6       0.3
12 O  s               0.7       0.0       0.0       0.1       0.3       0.7
12 O  pz              9.9       0.3       2.8       5.5       4.2       3.7
12 O  px              0.2       0.4       0.0       0.7       0.3       2.9
12 O  py              2.5       0.1       0.1       1.7       0.3       0.5
13 O  s               0.0       0.3       0.3       1.4       0.0       0.0
13 O  pz              1.5       0.4       0.3       9.0       1.0       3.7
13 O  px              1.3       0.7       3.0       5.9       0.0       1.5
13 O  py              0.5       0.3       0.4       2.3       0.2       1.0
14 O  s               0.7       0.5       0.0       0.8       0.0       0.3
14 O  pz              1.0       1.6       0.0       4.8       0.3       8.4
14 O  px              1.0       2.2       1.1       0.6       0.2       0.3
14 O  py              5.6       0.2       0.3       3.1       0.2       0.8
15 O  s               0.1       0.7       0.0       0.0       0.5       0.0
15 O  pz              0.0       1.0       1.3       0.3       1.5       1.3
15 O  px              0.3       0.5       0.1       2.0       0.2       0.2
15 O  py              2.5      10.3      16.5       1.2       0.3       5.2
15 O  dyz             0.0       0.0       0.1       0.0       0.0       0.0
16 O  s               0.0       0.2       0.2       0.0       1.2       0.0
16 O  pz              1.9       2.1       0.1       0.2      14.3       2.3
16 O  px              0.4       0.0       0.3       0.3       2.5       0.2
16 O  py              1.0       0.8       0.0       0.4       8.6       0.1
17 H  s               0.5       0.1       0.1       0.0       0.2       0.3
18 H  s               0.2       0.0       0.0       1.2       6.5       0.1
19 H  s               3.5       0.1       0.9       1.6       1.3       0.9
20 H  s               0.9       0.0       0.1       4.7       0.1       1.1
21 H  s               1.4       0.9       0.0       2.3       0.1       2.6
22 H  s               0.6       2.9       4.9       0.6       0.1       1.7
23 H  s               0.9       0.8       0.1       0.0       7.1       0.7

                     30        31        32        33        34        35   
                  -0.42644  -0.38512  -0.37480  -0.36483  -0.36312  -0.35127
                   2.00000   2.00000   2.00000   2.00000   2.00000   2.00000
                  --------  --------  --------  --------  --------  --------
 0 C  s               0.7       0.2       0.1       0.3       0.1       0.0
 0 C  pz              0.4       2.5       1.7       5.9       6.3       0.1
 0 C  px              0.3       8.8       1.2       2.6       3.9       3.4
 0 C  py             11.9       1.6       2.6       5.7       4.3      10.6
 0 C  dxz             0.0       0.1       0.0       0.4       0.1       0.0
 0 C  dx2y2           0.1       0.0       0.0       0.0       0.0       0.2
 0 C  dxy             0.0       0.0       0.0       0.1       0.2       0.0
 1 C  s               1.5       0.1       0.0       0.5       0.4       0.0
 1 C  pz              1.9       6.4       1.2       6.3       0.1       3.3
 1 C  px              0.5       9.1       0.3       0.3       0.5       4.2
 1 C  py              1.2       0.0       0.5       2.5       1.7       3.7
 1 C  dxz             0.1       0.0       0.0       0.3       0.1       0.1
 1 C  dxy             0.1       0.0       0.1       0.0       0.3       0.0
 2 H  s               1.9       4.6       0.7       5.4       0.2       0.9
 3 C  s               0.1       0.7       0.5       0.1       0.0       0.1
 3 C  pz              1.4       0.8       0.0       1.3       0.8       0.0
 3 C  px              4.5       1.2       0.3       3.6       3.5       6.9
 3 C  py              0.6       0.0       1.5       4.4       2.3       5.8
 3 C  dxz             0.0       0.0       0.0       0.1       0.1       0.0
 3 C  dyz             0.2       0.0       0.0       0.0       0.0       0.0
 4 H  s               2.1       0.3       0.0       3.2       2.5       1.2
 5 C  s               0.1       0.3       0.1       0.3       0.0       0.1
 5 C  pz              0.5       0.3       5.8       0.0       2.1       0.7
 5 C  px              2.2       2.3       0.9       1.0       3.8       5.9
 5 C  py              7.4       2.5       5.9       0.3       0.3       1.7
 5 C  dx2y2           0.0       0.3       0.1       0.0       0.0       0.1
 6 H  s               3.6       3.5       0.7       0.1       0.1       1.3
 7 C  s               0.1       0.1       0.1       0.0       0.0       0.1
 7 C  pz              0.0       0.0       2.0       0.5       1.9       0.0
 7 C  px              4.6       9.6       0.2       0.2       5.2       0.1
 7 C  py              0.4       2.8       6.1       0.1       0.4       0.2
 7 C  dz2             0.0       0.0       0.1       0.0       0.0       0.0
 7 C  dyz             0.1       0.0       0.2       0.0       0.0       0.0
 7 C  dx2y2           0.0       0.4       0.0       0.0       0.1       0.0
 8 H  s               2.0       6.3       0.4       0.0       1.1       0.1
 9 C  s               0.1       1.6       0.1       0.1       0.0       0.0
 9 C  pz              4.5       0.8       6.2       2.6       0.3       0.2
 9 C  px              1.6       0.1       0.2       0.5       0.8       0.3
 9 C  py              1.4       2.7       8.9       0.9       0.1       0.0
 9 C  dxz             0.1       0.1       0.0       0.1       0.1       0.0
 9 C  dyz             0.1       0.0       0.2       0.0       0.0       0.0
 9 C  dx2y2           0.0       0.1       0.0       0.0       0.0       0.0
 9 C  dxy             0.1       0.0       0.0       0.0       0.1       0.1
10 H  s               1.8       0.5       7.6       1.9       0.2       0.0
11 O  s               0.1       0.1       0.1       0.8       0.1       0.7
11 O  pz              1.4       2.3       0.4       2.4       2.6       0.4
11 O  px              4.1       0.3       0.1       1.1       1.9       1.2
11 O  py              0.9       0.1       2.9       0.0       0.5       8.7
12 O  s               0.0       0.6       0.2       0.5       0.1       0.6
12 O  pz              6.9       1.1       2.4       1.0       0.5       0.0
12 O  px              0.0       0.3       0.5       1.8       1.7       0.6
12 O  py              0.2       2.2       4.3       2.5       0.0       0.9
13 O  s               0.6       0.3       0.1       0.8       1.1       0.1
13 O  pz              0.3       1.5       2.0       0.7       4.5       0.1
13 O  px              1.5       3.0       0.9       1.8       3.1       0.1
13 O  py              0.1       0.4       1.2       1.1       1.5       0.2
14 O  s               0.4       0.0       1.5       0.1       0.6       0.5
14 O  pz              0.3       0.1       7.2       0.3       3.4       0.6
14 O  px              0.3       0.8       2.0       1.7       4.4       1.2
14 O  py              2.8       1.0       6.7       0.2       1.4       8.8
15 O  s               0.4       0.2       0.0       1.8       0.7       0.4
15 O  pz              0.0       0.1       0.1      10.0       5.5       1.3
15 O  px              1.9       0.0       0.0       0.0       0.7       6.8
15 O  py              2.9       0.8       0.7       0.2       0.0       0.2
16 O  s               0.8       1.2       0.6       0.0       0.8       0.4
16 O  pz              0.2       0.0       1.6       6.7       7.1       0.5
16 O  px              0.1       8.5       1.9       0.2       4.0       0.2
16 O  py              4.0       0.2       0.6       0.0       1.0       6.3
17 H  s               0.2       0.7       2.4      10.1       7.7       0.3
18 H  s               6.2       1.5       0.4       0.1       0.1       6.3
19 H  s               1.4       0.7       0.8       0.0       0.1       0.2
20 H  s               0.1       0.0       0.7       0.2       0.0       0.0
21 H  s               0.0       0.1       0.0       0.1       0.0       0.1
22 H  s               1.1       0.3       0.2       0.2       0.0       0.0
23 H  s               0.2       0.1       0.0       1.5       0.3       0.1

                     36        37        38        39        40        41   
                  -0.33050  -0.31120  -0.30153  -0.29346  -0.27959  -0.27045
                   2.00000   2.00000   2.00000   2.00000   2.00000   2.00000
                  --------  --------  --------  --------  --------  --------
 0 C  s               0.0       0.2       0.6       0.0       0.1       0.1
 0 C  pz              0.2       0.1       0.0       0.0       0.3       0.8
 0 C  px              0.7       0.6       0.2       0.9       0.1       7.4
 0 C  py              0.1       0.5       1.7       0.0       0.6       3.5
 0 C  dz2             0.0       0.0       0.0       0.0       0.1       0.1
 0 C  dxz             0.0       0.0       0.1       0.0       0.0       0.1
 0 C  dyz             0.0       0.0       0.0       0.0       0.0       0.7
 1 C  s               0.4       0.0       0.1       0.1       0.6       0.1
 1 C  pz              1.2       0.0       2.1       0.4       1.2       0.8
 1 C  px              0.6       0.1       0.0       0.2       0.1       4.1
 1 C  py              1.8       0.2       0.1       5.4       0.3       0.2
 1 C  dz2             0.0       0.0       0.1       0.1       0.0       0.0
 1 C  dx2y2           0.0       0.1       0.3       0.1       0.1       0.0
 1 C  dxy             0.0       0.0       0.0       0.1       0.0       0.1
 2 H  s               0.3       0.4       1.9       1.0       0.9       1.2
 3 C  s               0.4       0.2       0.1       0.4       0.1       0.0
 3 C  pz              0.8       0.8       1.0       1.4       3.4       0.0
 3 C  px              0.8       0.1       0.8       0.2       0.1       0.1
 3 C  py              0.4       1.2       0.5       0.6       0.5       0.1
 3 C  dz2             0.1       0.1       0.0       0.0       0.1       0.0
 3 C  dx2y2           0.3       0.0       0.2       0.2       0.2       0.0
 3 C  dxy             0.1       0.1       0.0       0.0       0.0       0.1
 4 H  s               0.9       0.6       1.9       0.7       2.3       0.1
 5 C  s               0.4       0.1       0.7       0.4       0.1       0.2
 5 C  pz              0.2       0.2       1.3       0.6       0.2       0.1
 5 C  px              0.1       0.8       0.9       0.0       1.2       0.1
 5 C  py              6.9       1.5       0.0       0.0       2.5       0.2
 5 C  dz2             0.0       0.0       0.1       0.0       0.1       0.0
 5 C  dxz             0.4       0.0       0.0       0.2       0.0       0.0
 5 C  dyz             0.2       0.1       0.0       0.0       0.1       0.0
[...]
 3 C  s               0.4       0.0       0.6       1.5       0.1       0.2
 3 C  pz              0.2       0.0       0.4       1.3       0.0       0.0
 3 C  px              0.0       0.0       0.0       0.2       0.1       0.0
 3 C  py              0.3       0.0       0.5       0.9       0.1       0.1
 3 C  dz2             0.3       0.0       0.1       1.1       0.0       0.1
 3 C  dxz             1.0       0.1       0.4       0.5       0.0       0.2
 3 C  dyz             0.8       0.0       2.2       4.2       0.6       0.3
 3 C  dx2y2           0.0       0.0       0.3       0.5       0.1       0.0
 3 C  dxy             0.1       0.0       0.8       0.6       0.0       0.0
 5 C  s               1.0       0.5       0.2       0.4       0.4       0.0
 5 C  pz              1.2       0.4       0.4       0.9       1.0       0.0
 5 C  py              0.0       0.0       0.0       0.1       0.0       0.0
 5 C  dz2             4.9       1.9       0.8       2.3       2.1       0.0
 5 C  dxz             0.2       0.0       0.5       0.1       0.6       0.0
 5 C  dyz             0.1       0.0       0.3       0.3       0.5       0.0
 7 C  s               0.4       0.7       0.6       0.0       0.9       0.0
 7 C  pz              0.3       0.7       0.8       0.0       2.3       0.0
 7 C  px              0.0       0.0       0.0       0.0       0.1       0.1
 7 C  dz2             1.7       2.8       2.0       0.1       4.7       0.0
 7 C  dxz             0.1       0.1       0.0       0.0       0.1       0.0
 7 C  dyz             0.0       0.4       0.7       0.4       0.9       0.1
 7 C  dx2y2           0.0       0.0       0.2       0.1       0.0       0.0
 7 C  dxy             0.0       0.0       0.0       0.0       0.0       0.1
 8 H  s               0.0       0.0       0.0       0.0       0.1       0.0
 9 C  s               0.0       0.9       0.5       0.4       0.8       0.3
 9 C  pz              0.0       0.4       0.2       0.4       0.5       0.2
 9 C  px              0.0       0.0       0.1       0.4       0.2       2.5
 9 C  py              0.0       0.1       0.0       0.1       0.1       0.0
 9 C  dz2             0.0       0.2       0.2       1.0       0.5       3.1
 9 C  dxz             0.0       0.5       1.5       1.4       3.0       0.3
 9 C  dyz             0.0       1.2       0.2       0.3       0.0       1.1
 9 C  dx2y2           0.1       0.3       0.0       0.0       0.2       3.9
 9 C  dxy             0.0       0.0       0.9       0.9       0.7       0.0
11 O  s               0.0       0.3       0.8       0.8       0.2       0.2
11 O  pz              0.0       0.0       0.0       0.0       0.0       0.4
11 O  px              0.0       0.0       0.3       0.0       0.2       5.4
11 O  py              0.0       0.0       0.1       0.0       0.0       0.8
11 O  dz2             0.1       0.4       0.3       2.9       0.2       2.4
11 O  dxz             0.0       0.1       5.4       0.5       4.3       9.2
11 O  dyz             0.0       0.1       1.0       0.1       1.1       8.5
11 O  dx2y2           0.4       1.4       0.8       0.9       0.8      19.0
11 O  dxy             0.1       0.0       4.7       1.5       3.7      14.9
12 O  s               0.0       0.5       0.4       1.1       1.4       0.7
12 O  pz              0.0       0.8       0.6       0.8       0.9       0.4
12 O  px              0.0       0.1       0.0       0.1       0.1       0.2
12 O  py              0.0       0.0       0.0       0.0       0.2       0.0
12 O  dz2             0.0       3.1       4.3       3.9       5.0       0.9
12 O  dxz             0.0       5.7       2.3       4.7       2.3       6.6
12 O  dyz             0.2       3.4       2.4       3.4       5.7       0.7
12 O  dx2y2           0.0       0.4       0.0       0.0       0.7       1.2
12 O  dxy             0.0       0.3       0.2       1.1       1.2       0.6
13 O  s               0.5       0.9       0.8       0.0       3.5       0.0
13 O  pz              0.6       1.1       1.0       0.0       2.1       0.0
13 O  px              0.0       0.1       0.1       0.0       0.2       0.0
13 O  dz2             6.4      14.0      13.2       0.0      20.8       0.0
13 O  dxz             0.2       0.3       0.0       0.0       0.3       0.0
13 O  dyz             2.4       2.1       1.1       0.6       3.6       0.2
13 O  dx2y2           0.0       0.0       0.2       0.0       0.1       0.1
14 O  s               1.4       0.6       0.4       1.5       1.5       0.0
14 O  pz              1.8       0.7       0.4       0.9       1.1       0.0
14 O  dz2            20.8       7.2       5.8       9.2      11.1       0.1
14 O  dxz             1.4       1.0       0.0       2.5       0.3       0.0
14 O  dyz             3.4       1.1       0.4       0.3       0.2       0.0
15 O  s               0.6       0.0       0.9       3.7       0.2       0.3
15 O  pz              0.2       0.0       0.4       0.7       0.0       0.0
15 O  px              0.0       0.0       0.1       0.3       0.1       0.0
15 O  py              0.6       0.0       0.8       1.8       0.0       0.1
15 O  dz2             0.8       0.1       3.2       2.0       0.4       0.0
15 O  dxz             0.4       0.0       1.9       4.9       0.6       0.1
15 O  dyz             8.0       0.0      11.3      21.0       0.7       1.5
15 O  dx2y2           1.2       0.0       0.5       1.5       0.1       0.3
15 O  dxy             0.4       0.0       1.0       4.3       0.4       0.1
16 O  s               1.6       1.7       0.6       0.0       0.0       0.0
16 O  pz              1.4       1.8       0.6       0.0       0.0       0.0
16 O  dz2            15.2      19.3       5.4       0.0       0.0       0.6
16 O  dxz             8.5      10.2       3.4       0.0       0.0       0.0
16 O  dx2y2           0.3       0.4       0.4       0.0       0.0       0.1
16 O  dxy             0.1       0.2       0.1       0.0       0.0       0.0
19 H  s               0.0       0.2       0.1       0.1       0.1       0.0
20 H  s               0.1       0.2       0.2       0.0       0.2       0.0
21 H  s               0.3       0.1       0.1       0.1       0.1       0.0
22 H  s               0.1       0.0       0.2       0.2       0.0       0.0
23 H  s               0.2       0.4       0.1       0.0       0.0       0.0



                      *****************************
                      * MAYER POPULATION ANALYSIS *
                      *****************************

  NA   - Mulliken gross atomic population
  ZA   - Total nuclear charge
  QA   - Mulliken gross atomic charge
  VA   - Mayer's total valence
  BVA  - Mayer's bonded valence
  FA   - Mayer's free valence

  ATOM       NA         ZA         QA         VA         BVA        FA
  0 C      5.9074     6.0000     0.0926     3.9515     3.9515    -0.0000
  1 C      6.0203     6.0000    -0.0203     4.1021     4.1021     0.0000
  2 H      0.9210     1.0000     0.0790     0.9962     0.9962    -0.0000
  3 C      5.9232     6.0000     0.0768     4.0063     4.0063     0.0000
  4 H      0.9648     1.0000     0.0352     1.0219     1.0219     0.0000
  5 C      5.9270     6.0000     0.0730     3.9400     3.9400     0.0000
  6 H      0.9485     1.0000     0.0515     0.9863     0.9863     0.0000
  7 C      6.0480     6.0000    -0.0480     4.0453     4.0453    -0.0000
  8 H      0.9189     1.0000     0.0811     0.9773     0.9773    -0.0000
  9 C      5.7717     6.0000     0.2283     4.0900     4.0900     0.0000
 10 H      0.9531     1.0000     0.0469     0.9757     0.9757     0.0000
 11 O      8.3185     8.0000    -0.3185     2.1395     2.1395    -0.0000
 12 O      8.3961     8.0000    -0.3961     2.0534     2.0534     0.0000
 13 O      8.3982     8.0000    -0.3982     2.0129     2.0129     0.0000
 14 O      8.4258     8.0000    -0.4258     2.0052     2.0052    -0.0000
 15 O      8.4044     8.0000    -0.4044     2.0120     2.0120     0.0000
 16 O      8.4408     8.0000    -0.4408     2.0319     2.0319    -0.0000
 17 H      0.9102     1.0000     0.0898     0.9694     0.9694    -0.0000
 18 H      0.9227     1.0000     0.0773     0.9572     0.9572     0.0000
 19 H      0.6980     1.0000     0.3020     0.9260     0.9260    -0.0000
 20 H      0.6906     1.0000     0.3094     0.8774     0.8774    -0.0000
 21 H      0.6907     1.0000     0.3093     0.8812     0.8812     0.0000
 22 H      0.7010     1.0000     0.2990     0.8833     0.8833     0.0000
 23 H      0.6989     1.0000     0.3011     0.8972     0.8972     0.0000

  Mayer bond orders larger than 0.100000
B(  0-C ,  1-C ) :   1.0454 B(  0-C , 16-O ) :   1.0607 B(  0-C , 17-H ) :   0.9188 
B(  0-C , 18-H ) :   0.9140 B(  1-C ,  2-H ) :   0.8620 B(  1-C ,  3-C ) :   1.0304 
B(  1-C , 11-O ) :   1.0190 B(  3-C ,  4-H ) :   0.8689 B(  3-C ,  5-C ) :   0.9559 
B(  3-C , 15-O ) :   1.0823 B(  5-C ,  6-H ) :   0.8841 B(  5-C ,  7-C ) :   1.0345 
B(  5-C , 14-O ) :   1.0249 B(  7-C ,  8-H ) :   0.8975 B(  7-C ,  9-C ) :   0.9372 
B(  7-C , 13-O ) :   1.0808 B(  9-C , 10-H ) :   0.9054 B(  9-C , 11-O ) :   1.0197 
B(  9-C , 12-O ) :   1.1531 B( 12-O , 19-H ) :   0.8227 B( 13-O , 20-H ) :   0.8447 
B( 14-O , 21-H ) :   0.8411 B( 15-O , 22-H ) :   0.8464 B( 16-O , 23-H ) :   0.8417 


-------
TIMINGS
-------

Total SCF time: 0 days 0 hours 0 min 9 sec 

Total time                  ....       9.310 sec
Sum of individual times     ....       8.903 sec  ( 95.6%)

SCF preparation             ....       0.179 sec  (  1.9%)
Fock matrix formation       ....       7.993 sec  ( 85.9%)
  Startup                   ....       0.051 sec  (  0.6% of F)
  Split-RI-J                ....       3.617 sec  ( 45.2% of F)
  XC integration            ....       3.928 sec  ( 49.1% of F)
    Basis function eval.    ....       1.332 sec  ( 33.9% of XC)
    Density eval.           ....       0.734 sec  ( 18.7% of XC)
    XC-Functional eval.     ....       0.275 sec  (  7.0% of XC)
    XC-Potential eval.      ....       0.983 sec  ( 25.0% of XC)
Diagonalization             ....       0.000 sec  (  0.0%)
Density matrix formation    ....       0.158 sec  (  1.7%)
Total Energy calculation    ....       0.026 sec  (  0.3%)
Population analysis         ....       0.098 sec  (  1.1%)
Orbital Transformation      ....       0.050 sec  (  0.5%)
Orbital Orthonormalization  ....       0.000 sec  (  0.0%)
DIIS solution               ....       0.318 sec  (  3.4%)
  MO trafo                  ....       0.000 sec  (  0.0 % of DIIS)
  Orb grad                  ....       0.000 sec  (  0.0 % of DIIS)
  Energy W gradient         ....       0.000 sec  (  0.0 % of DIIS)
  DIIS error                ....       0.006 sec  (  1.9 % of DIIS)
  DIIS work                 ....       0.269 sec  ( 84.5 % of DIIS)
  Form Q                    ....       0.000 sec  (  0.0 % of DIIS)
  Form QpQm                 ....       0.000 sec  (  0.0 % of DIIS)
  Exp/Cayley                ....       0.000 sec  (  0.0 % of DIIS)
  Orb update                ....       0.000 sec  (  0.0 % of DIIS)
  Wake-sleep                ....       0.015 sec  (  4.7 % of DIIS)
SOSCF solution              ....       0.081 sec  (  0.9%)
  MO trafo                  ....       0.044 sec  ( 54.8 % of SOSCF)
  Orb grad                  ....       0.001 sec  (  1.3 % of SOSCF)
  Rot update                ....       0.017 sec  ( 20.7 % of SOSCF)
  Step                      ....       0.019 sec  ( 23.2 % of SOSCF)
Finished LeanSCF after   9.4 sec

Maximum memory used throughout the entire LEANSCF-calculation: 18.4 MB


-------------------------------------------------------------------------------
                          DFT DISPERSION CORRECTION                            
                                                                               
                                DFTD4 V3.4.0                                   
-------------------------------------------------------------------------------
The PBE functional is recognized
Active option DFTDOPT                   ...         5   

-------------------------   ----------------
Dispersion correction           -0.024942620
-------------------------   ----------------

------------------   -----------------
gCP correction             0.155016949
------------------   -----------------

-------------------------   --------------------
FINAL SINGLE POINT ENERGY      -685.691180443001
-------------------------   --------------------


------------------------------------------------------------------------------
                              ORCA PROPERTY CALCULATIONS
------------------------------------------------------------------------------

GBWName                                 ... sp.gbw
Number of atoms                         ...     24
Number of basis functions               ...    192
Max core memory                         ...   1024 MB

Electric properties:
Dipole moment                           ... YES
Quadrupole moment                       ...  NO
Static polarizability (Dipole/Dipole)   ...  NO
Static polarizability (Dipole/Quad.)    ...  NO
Static polarizability (Quad./Quad.)     ...  NO
Static polarizability (Velocity)        ...  NO

Atomic electric properties:
Dipole moment                           ...  NO
Quadrupole moment                       ...  NO
Static polarizability                   ...  NO

Choice of electric origin               ... Center of mass
Position of electric origin             ...    -0.000003     0.000003     0.000005

General magnetic properties:
Magnetizability                         ...  NO

EPR properties:
g-Tensor (aka g-matrix)                 ...  NO
Zero-Field splitting spin-orbit         ...  NO
Zero-field splitting spin-spin          ...  NO
Hyperfine couplings                     ...  NO (   0 nuclei)
Quadrupole couplings                    ...  NO (   0 nuclei)
Contact density                         ...  NO (   0 nuclei)

NMR properties:
Chemical shifts                         ...  NO (   0 nuclei)
Spin-rotation constants                 ...  NO (   0 nuclei)
Spin-spin couplings                     ...  NO (   0 nuclei,    0 pairs)

Choice of magnetic origin               ... GIAO
Position of magnetic origin             ...     0.000000     0.000000     0.000000

Properties with geometric perturbations:
SCF Hessian                             ...  NO
IR spectrum                             ...  NO
VCD spectrum                            ...  NO
X-ray spectroscopy properties:
SCF XES/XAS/RIXS spectra                ...  NO


-------------
DIPOLE MOMENT
-------------

Method             : SCF
Type of density    : Electron Density
Multiplicity       :   1
Irrep              :   0
Energy             :  -685.8212547725219110 Eh
Relativity type    : 
Basis              : AO
                                X                 Y                 Z
Electronic contribution:      1.614286967      -0.691754234      -1.193199126
Nuclear contribution   :     -1.108478871       1.678558508       1.003076410
                        -----------------------------------------
Total Dipole Moment    :      0.505808096       0.986804274      -0.190122716
                        -----------------------------------------
Magnitude (a.u.)       :      1.125064955
Magnitude (Debye)      :      2.859687853



--------------------
Rotational spectrum 
--------------------
 
Rotational constants in cm-1:             0.039258             0.027900             0.023163 
Rotational constants in MHz :          1176.930254           836.431192           694.412245 

Dipole components along the rotational axes: 
x,y,z [a.u.] :     0.558424     0.784393    -0.581947 
x,y,z [Debye]:     1.419400     1.993768    -1.479191 

 

Dipole moment calculation done in   0.0 sec 

Maximum memory used throughout the entire PROP-calculation: 12.0 MB

--------------------------------
SUGGESTED CITATIONS FOR THIS RUN
--------------------------------

Below you find a list of papers that are relevant to this ORCA run
We neither can nor want to force you to cite these papers, but we appreciate if you do
You receive ORCA, which is the product of decades of hard work by many enthusiastic individuals, for free
The only thing we kindly ask in return is that you cite our papers,
We deeply appreciate it, if you show your appreciation for ORCA by not just citing the generic ORCA reference.

Please note that relegating all ORCA citations to the supporting information does *not* help us.
SI sections are not indexed - citations you put there will not count into any citation statistics
But we need these citations in order to attract the funding resources that allow us to do what we are doing

Therefore, if you are a happy ORCA user, please consider citing a few of the papers listed below in the main body of your paper

In addition to the list printed below, the program has created the file sp.bibtex that contains the list in bibtex format
You can import this file easily into all common literature databanks and citation aid programs


List of essential papers. We consider these as the minimum necessary citations

  1. Neese,F.
     Software update: the ORCA program system, version 5.0
     WIRES Comput. Molec. Sci., 2022 12(1)e1606
     doi.org/10.1002/wcms.1606

List of papers to cite with high priority. The work reported in these papers was absolutely
necessary for this run to complete.
Our perspective: the developers of density functionals and basis sets usually get cited in chemistry papers
Good! But without the algorithms to do something with them, the functionals or basis sets would not do anything.
Hence, in our opinion, the algorithm design and method developments papers are equally worthy of getting cited

  1. Neese,F.
     An improvement of the resolution of the identity approximation for the formation of the Coulomb matrix
     J. Comp. Chem., 2003 24(14)1740-1747
     doi.org/10.1002/jcc.10318
  2. Neese,F.
     The SHARK Integral Generation and Digestion System
     J. Comp. Chem., 2022  1-16
     doi.org/10.1002/jcc.26942
  3. Caldeweyher,E.; Bannwarth,C.; Grimme,S.
     Extension of the D3 dispersion coefficient model
     J. Chem. Phys., 2017 147 034112-XXXX
     doi.org/10.1063/1.4993215
  4. Caldeweyher,E.; Ehlert,S.; Hansen,A.; Neugebauer,H.; Spicher,S.; Bannwarth,C.; Grimme,S.
     A generally applicable atomic-charge dependent London dispersion correction
     J. Chem. Phys., 2019 150 154122-XXXX
     doi.org/10.1063/1.5090222
  5. Caldeweyher,E.; Mewes,J.; Ehlert,S.; Grimme,S.
     Extension and evaluation of the D4 London-dispersion model for periodic systems
     Phys. Chem. Chem. Phys., 2020 22(16)8499-8512
     doi.org/10.1039/D0CP00502A

List of suggested additional citations. These are papers that are important in the 'surrounding' of 
of this run, or papers that preceded the highly important papers. If you like your results we are grateful for a citation.

  1. Neese,F.
     The ORCA program system
     WIRES Comput. Molec. Sci., 2012 2(1)73-78
     doi.org/10.1002/wcms.81
  2. Neese,F.
     Software update: the ORCA program system, version 4.0
     WIRES Comput. Molec. Sci., 2018 8(1)1-6
     doi.org/10.1002/wcms.1327
  3. Neese,F.; Wennmohs,F.; Becker,U.; Riplinger,C.
     The ORCA quantum chemistry program package
     J. Chem. Phys., 2020 152 Art. No. L224108
     doi.org/10.1063/5.0004608

List of optional additional citations

  1. Neese,F.
     Approximate second-order SCF convergence for spin unrestricted wavefunctions
     Chem. Phys. Lett., 2000 325(1-3)93-98
     doi.org/10.1016/s0009-2614(00)00662-x

Timings for individual modules:

Sum of individual times          ...       11.456 sec (=   0.191 min)
Startup calculation              ...        0.894 sec (=   0.015 min)   7.8 %
SCF iterations                   ...       10.466 sec (=   0.174 min)  91.4 %
Property calculations            ...        0.096 sec (=   0.002 min)   0.8 %
                             ****ORCA TERMINATED NORMALLY****
TOTAL RUN TIME: 0 days 0 hours 0 minutes 12 seconds 85 msec
