24
 energy: -687.114122724736 gnorm: 0.004559951801 xtb: 6.7.1 (edcfbbe)
C           -2.40966614104219       -1.14345125120303       -0.32076635551651
C           -1.09370759738460       -0.61007394206257        0.22389751183578
H           -1.10748428868354       -0.62956291938623        1.32581003641901
C           -0.77427621198004        0.81737544784711       -0.24775765000889
H           -0.82859618240597        0.84348398697676       -1.34883050453670
C            0.62856311552413        1.20473851741344        0.19015628556051
H            0.63825685645924        1.28173732835269        1.28951916776431
C            1.64363095255604        0.14825469395462       -0.22789720208271
H            1.70760548508070        0.10999235142579       -1.32570252147044
C            1.19809614203708       -1.22196032901409        0.27021596844529
H            1.13960209287762       -1.24338484220090        1.37122254471540
O           -0.09694720857688       -1.51425217542565       -0.27258357059431
O            2.09679579605182       -2.18066114435372       -0.21484520214866
O            2.89857244300193        0.52535768413332        0.34247169386025
O            0.94080316973706        2.47435514736283       -0.39027239882499
O           -1.67689784916551        1.77027177015578        0.32145727962653
O           -3.47691164199405       -0.32807220413199        0.19172843073376
H           -2.53123866939432       -2.18554925358279        0.00206284160544
H           -2.38938133595390       -1.11068723570485       -1.41757660617582
H            1.94851795261679       -3.00704742924299        0.26982784038468
H            3.57902671690749       -0.02770225461916       -0.05989629858810
H            1.80653695555338        2.73593234116824       -0.05101905262466
H           -2.56994762036108        1.41024510727740        0.18781846130796
H           -4.27494827552337       -0.54755370977815       -0.30522935658554
24
 energy: -687.114156521149 gnorm: 0.001654394814 xtb: 6.7.1 (edcfbbe)
C           -2.40992010883301       -1.14282559923194       -0.32202886472957
C           -1.09481495536219       -0.61020545807357        0.22529276710690
H           -1.11082956491806       -0.62909339670615        1.32750967484020
C           -0.77450849257280        0.81689977629340       -0.24677644826338
H           -0.82958668688345        0.84239549030116       -1.34771208005944
C            0.62851095789960        1.20428965414671        0.18998625452671
H            0.63967479075109        1.28222343487089        1.28935433242333
C            1.64305064792542        0.14763489203737       -0.22848979776331
H            1.70767417221089        0.10951173408928       -1.32623942281785
C            1.19814859460330       -1.22224030477510        0.27023783438054
H            1.14341376896122       -1.24399313723955        1.37136287859297
O           -0.09787865882604       -1.51523623759680       -0.26929587668900
O            2.09501619799327       -2.18242497248615       -0.21727000332767
O            2.89795332606231        0.52494001725834        0.34273338239455
O            0.93971095567775        2.47406126565390       -0.39257878965930
O           -1.67701427200879        1.77061192395939        0.32255653041857
O           -3.47803047292493       -0.32853807046186        0.19087522540767
H           -2.53229624659518       -2.18575314772954       -0.00196280298707
H           -2.38746075174637       -1.10739424158532       -1.41906901326650
H            1.95448847727712       -3.00446064419915        0.27354850025511
H            3.57969896534844       -0.02871618830322       -0.05931755835223
H            1.80633377121055        2.73693854595484       -0.05501296448497
H           -2.57019408042988        1.40811600165569        0.19497256979758
H           -4.27513597736038       -0.54495593202259       -0.30886484681340
24
 energy: -687.114202466566 gnorm: 0.003022172509 xtb: 6.7.1 (edcfbbe)
C           -2.41093047906281       -1.14003420850925       -0.32696060897638
C           -1.09865975851496       -0.61086613846767        0.23030829494465
H           -1.12244244603752       -0.62832140175878        1.33301616146782
C           -0.77604362047652        0.81510107003340       -0.24285280734383
H           -0.83407427889655        0.83995264742945       -1.34338424348980
C            0.62793365460642        1.20223672186749        0.18872586783283
H            0.64464481612361        1.28459420880137        1.28769730100840
C            1.64118686273928        0.14530548682066       -0.23054502373043
H            1.70767363143175        0.10762262927900       -1.32802171925923
C            1.19822112845693       -1.22356788713639        0.27030246059062
H            1.15643542154807       -1.24666281101949        1.37183037878736
O           -0.10128046279224       -1.51861000915039       -0.25818619884943
O            2.08969717670854       -2.18639473789994       -0.22606091509241
O            2.89661453362902        0.52259271305489        0.34262147601871
O            0.93565883918574        2.47201960358860       -0.40084998284071
O           -1.67813315600547        1.77050118489718        0.32791398826807
O           -3.48119131782186       -0.32952597974093        0.18829265985277
H           -2.53578762617336       -2.18595612025766       -0.01740952614638
H           -2.38238112035764       -1.09429221311198       -1.42412905650833
H            1.97938771145086       -2.99514378321060        0.29078827636699
H            3.58041175363270       -0.03268679715381       -0.05767648476643
H            1.80465227611440        2.73830835177684       -0.06958970904038
H           -2.57106366823303        1.39859485375807        0.22111308118645
H           -4.27452672236610       -0.53298317708002       -0.32313164887416
24
 energy: -687.114213590635 gnorm: 0.001667596318 xtb: 6.7.1 (edcfbbe)
C           -2.41125439159900       -1.13942083843086       -0.32800199008785
C           -1.09895450905614       -0.61137412995990        0.23042871089387
H           -1.12404938229732       -0.62894245369588        1.33290565102833
C           -0.77638640035454        0.81480827020013       -0.24181754150464
H           -0.83515882108365        0.84038766833815       -1.34236025058256
C            0.62775166990542        1.20237511461717        0.18847397648433
H            0.64530879313171        1.28544079883678        1.28726399913342
C            1.64041288489828        0.14494135449447       -0.23075403627950
H            1.70647410948606        0.10698866915620       -1.32826604200537
C            1.19794388006913       -1.22420449790057        0.27022071381638
H            1.15760341860394       -1.24720763850230        1.37170110218251
O           -0.10177044512012       -1.51961445004031       -0.25723337128359
O            2.08927741824411       -2.18650705043058       -0.22705245921387
O            2.89623018836399        0.52184008834199        0.34156747849925
O            0.93513330446362        2.47159976714329       -0.40200429927488
O           -1.67848901534024        1.76939277814774        0.32997596013873
O           -3.48132242100504       -0.32958132582188        0.18865777377179
H           -2.53639965816439       -2.18585022023122       -0.02067183486872
H           -2.38271462220098       -1.09125165728058       -1.42478553383527
H            1.98746806372790       -2.99253922494266        0.29696609356187
H            3.57873043205253       -0.03403558623387       -0.05847910176542
H            1.80428672029705        2.73733131009892       -0.07189399736474
H           -2.57066242581530        1.39565238990189        0.22538232887263
H           -4.27345596352211       -0.52844533361712       -0.32641120087013
24
 energy: -687.114224632811 gnorm: 0.002946160624 xtb: 6.7.1 (edcfbbe)
C           -2.41215049478496       -1.13782619868300       -0.33076076942235
C           -1.09910742660244       -0.61314336971955        0.22983307698131
H           -1.12632543218925       -0.63218230863061        1.33172731235084
C           -0.77757254765550        0.81419241438361       -0.23928976936074
H           -0.83838043861082        0.84305099173253       -1.33988103130787
C            0.62707396383663        1.20255952871707        0.18794981019741
H            0.64637194160165        1.28684924791935        1.28640112440750
C            1.63841238356614        0.14427595186820       -0.23164387782281
H            1.70173336366038        0.10499190326959       -1.32944829411672
C            1.19694723830580       -1.22549940680111        0.27049200195435
H            1.15711571941528       -1.24844549906270        1.37172552941674
O           -0.10238206797779       -1.52176884066210       -0.25701095673693
O            2.08950344618343       -2.18587623096804       -0.22700759838955
O            2.89561879539359        0.51979736849653        0.33688563517328
O            0.93365178291065        2.47000762163309       -0.40404407850622
O           -1.67986596426289        1.76508792038094        0.33680498379263
O           -3.48122240730525       -0.33001050947899        0.19115078157273
H           -2.53745941444334       -2.18559597063386       -0.02892283060993
H           -2.38535013009957       -1.08335764949227       -1.42656803665786
H            2.01147869656520       -2.98412595927420        0.31575363906483
H            3.57376889893079       -0.03895515847250       -0.06254313561798
H            1.80364817827541        2.73350179452324       -0.07712742360177
H           -2.57019579712075        1.38724054274265        0.23541469408027
H           -4.26931042605164       -0.51298568621618       -0.33607834848455
24
 energy: -687.114229138124 gnorm: 0.001619490678 xtb: 6.7.1 (edcfbbe)
C           -2.41210561352220       -1.13830646533438       -0.33043955139137
C           -1.09885870742573       -0.61327991888269        0.22935976089320
H           -1.12538016011715       -0.63262132998305        1.33136031549172
C           -0.77751139761608        0.81428059638208       -0.23940176141963
H           -0.83835291404866        0.84330213530857       -1.33997458321149
C            0.62715768679487        1.20259684349119        0.18810423987653
H            0.64618710876856        1.28644753354457        1.28667770218692
C            1.63847767468659        0.14434755445921       -0.23174991616296
H            1.70133421371905        0.10491455432990       -1.32955881288165
C            1.19704520852513       -1.22539533811801        0.27043834299171
H            1.15562531295699       -1.24785964156868        1.37166947452903
O           -0.10205144327138       -1.52148011192937       -0.25818376673970
O            2.09020700645475       -2.18589243310449       -0.22551295090762
O            2.89577585452515        0.52020906922204        0.33626047051516
O            0.93372346118777        2.47032297003927       -0.40336713782354
O           -1.67980551113857        1.76503051091773        0.33687715036901
O           -3.48115407103780       -0.33046538077123        0.19170872949481
H           -2.53725257753640       -2.18601793433385       -0.02819903333157
H           -2.38581853032374       -1.08416922834537       -1.42635370088341
H            2.01007766418319       -2.98421571958768        0.31524283529141
H            3.57404863304619       -0.03916853098582       -0.06288366042815
H            1.80397302487144        2.73383381871989       -0.07654595369326
H           -2.57040625411444        1.38767089500137        0.23443791628465
H           -4.26893380123294       -0.51230196863643       -0.33615367259122
24
 energy: -687.114232596622 gnorm: 0.001793338019 xtb: 6.7.1 (edcfbbe)
C           -2.41207517105802       -1.13992444504802       -0.32990872703224
C           -1.09813167202637       -0.61445497960674        0.22768828995872
H           -1.12211799396182       -0.63556554409348        1.33009063818524
C           -0.77776725385578        0.81424253959307       -0.23919655908047
H           -0.83917681769896        0.84476724328022       -1.33961508686416
C            0.62719466350539        1.20209750342126        0.18873364949425
H            0.64615540191869        1.28391176001535        1.28772394136895
C            1.63847009158588        0.14458962213209       -0.23330493053446
H            1.69862963453562        0.10439139826748       -1.33125020887128
C            1.19700137282690       -1.22441884175070        0.27035139006558
H            1.15020102945350       -1.24513525784673        1.37155893612460
O           -0.10089156264487       -1.52078378474450       -0.26274075392518
O            2.09215156545563       -2.18578626262606       -0.22007625340178
O            2.89658541118427        0.52166277130210        0.33187542157280
O            0.93322333741920        2.47106275564292       -0.40075165846029
O           -1.67989550033846        1.76396091992796        0.33914872258956
O           -3.48104061303994       -0.33269093278479        0.19433860345462
H           -2.53659120724584       -2.18776888340887       -0.02737708091382
H           -2.38789437382047       -1.08576179560406       -1.42619354402782
H            2.01004118604098       -2.98253428194547        0.31958942604222
H            3.57478669900899       -0.04131280404430       -0.06523266076261
H            1.80487494504999        2.73433543472483       -0.07546876204426
H           -2.57137356284145        1.38793021504224        0.23399749821202
H           -4.26635801163759       -0.50503234404777       -0.34016774605046
24
 energy: -687.114235485481 gnorm: 0.000654704992 xtb: 6.7.1 (edcfbbe)
C           -2.41227153780822       -1.13949268417939       -0.33056183653793
C           -1.09859547304879       -0.61468862640703        0.22838520666274
H           -1.12355582453717       -0.63580971325778        1.33068925728359
C           -0.77812843656891        0.81396329592006       -0.23839249571090
H           -0.84012787787017        0.84474733214534       -1.33878253267883
C            0.62703618570489        1.20191142775694        0.18853085586136
H            0.64689336920534        1.28393063544523        1.28742346648977
C            1.63793415796200        0.14424380431372       -0.23390002585406
H            1.69769296825178        0.10414670406207       -1.33186773356006
C            1.19707403316234       -1.22481903719015        0.27006939045844
H            1.15188826337970       -1.24513547025911        1.37127315165618
O           -0.10140826388975       -1.52144477999918       -0.26125045038831
O            2.09157973680352       -2.18630266412425       -0.22131130907525
O            2.89633719480960        0.52115443591300        0.33083226942400
O            0.93254609133423        2.47088299088238       -0.40141001001750
O           -1.68010327319344        1.76354033586631        0.34056143201863
O           -3.48154941606610       -0.33288594513411        0.19404437599415
H           -2.53691765661905       -2.18772584227557       -0.02949655668674
H           -2.38753054528381       -1.08399702767035       -1.42667640048087
H            2.01549375422589       -2.98060847001418        0.32433236247417
H            3.57395769433426       -0.04239873473204       -0.06574382061674
H            1.80440151123724        2.73394675749028       -0.07699674144294
H           -2.57120452901481        1.38603473738670        0.23799822789495
H           -4.26544077172899       -0.50141177423119       -0.34393746188977
24
 energy: -687.114235485481 gnorm: 0.000654704992 xtb: 6.7.1 (edcfbbe)
C           -2.41227153780822       -1.13949268417939       -0.33056183653793
C           -1.09859547304879       -0.61468862640703        0.22838520666274
H           -1.12355582453717       -0.63580971325778        1.33068925728359
C           -0.77812843656891        0.81396329592006       -0.23839249571090
H           -0.84012787787017        0.84474733214534       -1.33878253267883
C            0.62703618570489        1.20191142775694        0.18853085586136
H            0.64689336920534        1.28393063544523        1.28742346648977
C            1.63793415796200        0.14424380431372       -0.23390002585406
H            1.69769296825178        0.10414670406207       -1.33186773356006
C            1.19707403316234       -1.22481903719015        0.27006939045844
H            1.15188826337970       -1.24513547025911        1.37127315165618
O           -0.10140826388975       -1.52144477999918       -0.26125045038831
O            2.09157973680352       -2.18630266412425       -0.22131130907525
O            2.89633719480960        0.52115443591300        0.33083226942400
O            0.93254609133423        2.47088299088238       -0.40141001001750
O           -1.68010327319344        1.76354033586631        0.34056143201863
O           -3.48154941606610       -0.33288594513411        0.19404437599415
H           -2.53691765661905       -2.18772584227557       -0.02949655668674
H           -2.38753054528381       -1.08399702767035       -1.42667640048087
H            2.01549375422589       -2.98060847001418        0.32433236247417
H            3.57395769433426       -0.04239873473204       -0.06574382061674
H            1.80440151123724        2.73394675749028       -0.07699674144294
H           -2.57120452901481        1.38603473738670        0.23799822789495
H           -4.26544077172899       -0.50141177423119       -0.34393746188977
