      -----------------------------------------------------------      
     |                   =====================                   |     
     |                           x T B                           |     
     |                   =====================                   |     
     |                         S. Grimme                         |     
     |          Mulliken Center for Theoretical Chemistry        |     
     |                    University of Bonn                     |     
      -----------------------------------------------------------      

   * xtb version 6.7.1 (edcfbbe) compiled by 'albert@albert-system' on 2024-07-22

   xtb is free software: you can redistribute it and/or modify it under
   the terms of the GNU Lesser General Public License as published by
   the Free Software Foundation, either version 3 of the License, or
   (at your option) any later version.
   
   xtb is distributed in the hope that it will be useful,
   but WITHOUT ANY WARRANTY; without even the implied warranty of
   MERCHANTABILITY or FITNESS FOR A PARTICULAR PURPOSE.  See the
   GNU Lesser General Public License for more details.
   
   Cite this work as:
   * C. Bannwarth, E. Caldeweyher, S. Ehlert, A. Hansen, P. Pracht,
     J. Seibert, S. Spicher, S. Grimme, WIREs Comput. Mol. Sci., 2020, 11,
     e01493. DOI: 10.1002/wcms.1493
   
   for GFN2-xTB:
   * C. Bannwarth, S. Ehlert and S. Grimme., J. Chem. Theory Comput., 2019,
     15, 1652-1671. DOI: 10.1021/acs.jctc.8b01176
   for GFN1-xTB:
   * S. Grimme, C. Bannwarth, P. Shushkov, J. Chem. Theory Comput., 2017,
     13, 1989-2009. DOI: 10.1021/acs.jctc.7b00118
   for GFN0-xTB:
   * P. Pracht, E. Caldeweyher, S. Ehlert, S. Grimme, ChemRxiv, 2019, preprint.
     DOI: 10.26434/chemrxiv.8326202.v1
   for GFN-FF:
   * S. Spicher and S. Grimme, Angew. Chem. Int. Ed., 2020, 59, 15665-15673.
     DOI: 10.1002/anie.202004239
   
   for ALPB and GBSA implicit solvation:
   * S. Ehlert, M. Stahn, S. Spicher, S. Grimme, J. Chem. Theory Comput.,
     2021, 17, 4250-4261. DOI: 10.1021/acs.jctc.1c00471
   
   for ddCOSMO and CPCM-X implicit solvation:
   * M. Stahn, S. Ehlert, S. Grimme, J. Phys. Chem. A,
     2023, XX, XXXX-XXXX. DOI: 10.1021/acs.jpca.3c04382
   
   for DFT-D4:
   * E. Caldeweyher, C. Bannwarth and S. Grimme, J. Chem. Phys., 2017,
     147, 034112. DOI: 10.1063/1.4993215
   * E. Caldeweyher, S. Ehlert, A. Hansen, H. Neugebauer, S. Spicher,
     C. Bannwarth and S. Grimme, J. Chem. Phys., 2019, 150, 154122.
     DOI: 10.1063/1.5090222
   * E. Caldeweyher, J.-M. Mewes, S. Ehlert and S. Grimme, Phys. Chem. Chem. Phys.
     2020, 22, 8499-8512. DOI: 10.1039/D0CP00502A
   
   for sTDA-xTB:
   * S. Grimme and C. Bannwarth, J. Chem. Phys., 2016, 145, 054103.
     DOI: 10.1063/1.4959605
   
   in the mass-spec context:
   * V. Asgeirsson, C. Bauer and S. Grimme, Chem. Sci., 2017, 8, 4879.
     DOI: 10.1039/c7sc00601b
   * J. Koopman and S. Grimme, ACS Omega 2019, 4, 12, 15120-15133.
     DOI: 10.1021/acsomega.9b02011
   
   for metadynamics refer to:
   * S. Grimme, J. Chem. Theory Comput., 2019, 155, 2847-2862
     DOI: 10.1021/acs.jctc.9b00143
   
   for SPH calculations refer to:
   * S. Spicher and S. Grimme, J. Chem. Theory Comput., 2021, 17, 1701-1714
     DOI: 10.1021/acs.jctc.0c01306
   
   for ONIOM refer to:
   * C. Plett, A. Katbashev, S. Ehlert, S. Grimme, M. Bursch,
     Phys. Chem. Chem. Phys., 2023, 25, 17860-17868. DOI: 10.1039/D3CP02178E
   
   for DIPRO refer to:
   * J. Kohn, N. Gildemeister, S. Grimme, D. Fazzi, A. Hansen,
     J. Chem. Phys., 2023, just accepted.
   
   for PTB refer to:
   * S. Grimme, M. Mueller, A. Hansen, J. Chem. Phys., 2023, 158, 124111.
     DOI: 10.1063/5.0137838
   
   with help from (in alphabetical order)
   P. Atkinson, C. Bannwarth, F. Bohle, G. Brandenburg, E. Caldeweyher
   M. Checinski, S. Dohm, S. Ehlert, S. Ehrlich, I. Gerasimov, C. Hölzer
   A. Katbashev, J. Kohn, J. Koopman, C. Lavigne, S. Lehtola, F. März, M. Müller,
   F. Musil, H. Neugebauer, J. Pisarek, C. Plett, P. Pracht, F. Pultar,
   J. Seibert, P. Shushkov, S. Spicher, M. Stahn, M. Steiner, T. Strunk,
   J. Stückrath, T. Rose, and J. Unsleber
   
 * started run on 2025/04/06 at 18:00:48.516     
   ID    Z sym.   atoms
    1    6 C      1, 2, 4, 6, 8, 10
    2    1 H      3, 5, 7, 9, 11, 18-24
    3    8 O      12-17

           -------------------------------------------------
          |                Calculation Setup                |
           -------------------------------------------------

          program call               : /srv/scratch/z5358697/.xtb/bin/xtb solv.coord --gfn2 --sp --chrg 0 --norestart --parallel 1 --alpb water reference -I xtb_sp-xcontrol-inp
          hostname                   : k155
          coordinate file            : solv.coord
          omp threads                :                     1


           -------------------------------------------------
          |                 G F N 2 - x T B                 |
           -------------------------------------------------

        Reference                      10.1021/acs.jctc.8b01176
      * Hamiltonian:
        H0-scaling (s, p, d)           1.850000    2.230000    2.230000
        zeta-weighting                 0.500000
      * Dispersion:
        s8                             2.700000
        a1                             0.520000
        a2                             5.000000
        s9                             5.000000
      * Repulsion:
        kExp                           1.500000    1.000000
        rExp                           1.000000
      * Coulomb:
        alpha                          2.000000
        third order                    shell-resolved
        anisotropic                    true
        a3                             3.000000
        a5                             4.000000
        cn-shift                       1.200000
        cn-exp                         4.000000
        max-rad                        5.000000

      * Solvation model:               ALPB
        Solvent                        water
        Parameter file                 internal GFN2-xTB/ALPB
        Dielectric constant                8.0200E+01
        Reference state                gsolv=reference [X=1]
        Free energy shift                  2.8945E-03 Eh       1.8164E+00 kcal/mol
        Temperature                        2.9815E+02 K
        Density                            1.0000E+00 kg/L
        Solvent mass                       1.8000E+01 g/mol
        Interaction kernel             P16
        Born radius scaling (c1)           1.4744E+00
        Born radii integrator          GBOBC
        Born offset                        0.0000E+00 a0       0.0000E+00 AA
        H-bond correction              true
        Ion screening                  false
        Surface tension                    1.0000E-05 Eh       1.5569E+01 dyn/cm
        Grid points                               974 per atom

          ...................................................
          :                      SETUP                      :
          :.................................................:
          :  # basis functions                  60          :
          :  # atomic orbitals                  60          :
          :  # shells                           36          :
          :  # electrons                        72          :
          :  max. iterations                   250          :
          :  Hamiltonian                  GFN2-xTB          :
          :  restarted?                      false          :
          :  GBSA solvation                   true          :
          :  PC potential                    false          :
          :  electronic temp.          300.0000000     K    :
          :  accuracy                    1.0000000          :
          :  -> integral cutoff          0.2500000E+02      :
          :  -> integral neglect         0.1000000E-07      :
          :  -> SCF convergence          0.1000000E-05 Eh   :
          :  -> wf. convergence          0.1000000E-03 e    :
          :  Broyden damping             0.4000000          :
          :  net charge                          0          :
          :  unpaired electrons                  0          :
          ...................................................

 iter      E             dE          RMSdq      gap      omega  full diag
   1    -43.6534556 -0.436535E+02  0.485E+00   10.30       0.0  T
   2    -43.6824428 -0.289872E-01  0.262E+00   10.27       1.0  T
   3    -43.6847320 -0.228922E-02  0.541E-01   10.29       1.0  T
   4    -43.6849248 -0.192833E-03  0.175E-01   10.30       1.0  T
   5    -43.6849714 -0.465808E-04  0.585E-02   10.31       1.0  T
   6    -43.6849877 -0.162417E-04  0.231E-02   10.31       1.0  T
   7    -43.6849887 -0.106621E-05  0.662E-03   10.31       3.1  T
   8    -43.6849890 -0.226194E-06  0.241E-03   10.31       8.5  T
   9    -43.6849890 -0.149005E-07  0.928E-04   10.31      22.0  T
  10    -43.6849890 -0.349701E-08  0.314E-04   10.31      65.0  T

   *** convergence criteria satisfied after 10 iterations ***

         #    Occupation            Energy/Eh            Energy/eV
      -------------------------------------------------------------
         1        2.0000           -0.7220382             -19.6477
       ...           ...                  ...                  ...
        30        2.0000           -0.4576699             -12.4538
        31        2.0000           -0.4505399             -12.2598
        32        2.0000           -0.4424150             -12.0387
        33        2.0000           -0.4308560             -11.7242
        34        2.0000           -0.4209151             -11.4537
        35        2.0000           -0.4077647             -11.0958
        36        2.0000           -0.4026332             -10.9562 (HOMO)
        37                         -0.0236110              -0.6425 (LUMO)
        38                         -0.0053691              -0.1461
        39                          0.0242540               0.6600
        40                          0.0341098               0.9282
        41                          0.0514054               1.3988
       ...                                ...                  ...
        60                          0.3136105               8.5338
      -------------------------------------------------------------
                  HL-Gap            0.3790222 Eh           10.3137 eV
             Fermi-level           -0.2131221 Eh           -5.7993 eV

 SCC (total)                   0 d,  0 h,  0 min,  0.042 sec
 SCC setup                      ...        0 min,  0.002 sec (  3.565%)
 Dispersion                     ...        0 min,  0.000 sec (  0.341%)
 classical contributions        ...        0 min,  0.000 sec (  0.064%)
 integral evaluation            ...        0 min,  0.003 sec (  6.988%)
 iterations                     ...        0 min,  0.025 sec ( 58.969%)
 molecular gradient             ...        0 min,  0.013 sec ( 29.704%)
 printout                       ...        0 min,  0.000 sec (  0.334%)

         :::::::::::::::::::::::::::::::::::::::::::::::::::::
         ::                     SUMMARY                     ::
         :::::::::::::::::::::::::::::::::::::::::::::::::::::
         :: total energy             -43.382545765876 Eh    ::
         :: total w/o Gsasa/hb       -43.364007157145 Eh    ::
         :: gradient norm              0.000149730431 Eh/a0 ::
         :: HOMO-LUMO gap             10.313718281538 eV    ::
         ::.................................................::
         :: SCC energy               -43.684786536729 Eh    ::
         :: -> isotropic ES            0.174280257179 Eh    ::
         :: -> anisotropic ES         -0.007084361395 Eh    ::
         :: -> anisotropic XC         -0.009833765548 Eh    ::
         :: -> dispersion             -0.019726704776 Eh    ::
         :: -> Gsolv                  -0.038895505344 Eh    ::
         ::    -> Gelec               -0.020356896613 Eh    ::
         ::    -> Gsasa                0.004565555792 Eh    ::
         ::    -> Ghb                 -0.025998713684 Eh    ::
         ::    -> Gshift               0.002894549160 Eh    ::
         :: repulsion energy           0.302240770852 Eh    ::
         :: add. restraining           0.000000000000 Eh    ::
         :: total charge               0.000000000000 e     ::
         :::::::::::::::::::::::::::::::::::::::::::::::::::::

           -------------------------------------------------
          |                Property Printout                |
           -------------------------------------------------

    * Orbital Energies and Occupations

         #    Occupation            Energy/Eh            Energy/eV
      -------------------------------------------------------------
         1        2.0000           -0.7220382             -19.6477
       ...           ...                  ...                  ...
        24        2.0000           -0.5140125             -13.9870
        25        2.0000           -0.5034700             -13.7001
        26        2.0000           -0.4925395             -13.4027
        27        2.0000           -0.4860346             -13.2257
        28        2.0000           -0.4804041             -13.0725
        29        2.0000           -0.4717296             -12.8364
        30        2.0000           -0.4576699             -12.4538
        31        2.0000           -0.4505399             -12.2598
        32        2.0000           -0.4424150             -12.0387
        33        2.0000           -0.4308560             -11.7242
        34        2.0000           -0.4209151             -11.4537
        35        2.0000           -0.4077647             -11.0958
        36        2.0000           -0.4026332             -10.9562 (HOMO)
        37                         -0.0236110              -0.6425 (LUMO)
        38                         -0.0053691              -0.1461
        39                          0.0242540               0.6600
        40                          0.0341098               0.9282
        41                          0.0514054               1.3988
        42                          0.0616195               1.6768
        43                          0.0695497               1.8925
        44                          0.0758370               2.0636
        45                          0.1087801               2.9601
        46                          0.1157398               3.1494
        47                          0.1187722               3.2320
       ...                                ...                  ...
        60                          0.3136105               8.5338
      -------------------------------------------------------------
                  HL-Gap            0.3790222 Eh           10.3137 eV
             Fermi-level           -0.2131221 Eh           -5.7993 eV

     #   Z          covCN         q      C6AA      α(0)
     1   6 C        3.676     0.068    19.664     6.353
     2   6 C        3.742     0.098    19.041     6.225
     3   1 H        0.924     0.048     2.339     2.392
     4   6 C        3.726     0.101    19.007     6.225
     5   1 H        0.923     0.053     2.282     2.362
     6   6 C        3.725     0.092    19.158     6.250
     7   1 H        0.923     0.041     2.437     2.441
     8   6 C        3.723     0.085    19.271     6.269
     9   1 H        0.923     0.039     2.466     2.456
    10   6 C        3.619     0.245    17.211     5.983
    11   1 H        0.923     0.038     2.470     2.458
    12   8 O        1.701    -0.363    20.135     6.058
    13   8 O        1.656    -0.491    22.699     6.432
    14   8 O        1.656    -0.512    23.153     6.496
    15   8 O        1.655    -0.510    23.112     6.490
    16   8 O        1.656    -0.511    23.139     6.494
    17   8 O        1.655    -0.492    22.729     6.436
    18   1 H        0.924     0.071     2.078     2.254
    19   1 H        0.924     0.042     2.424     2.435
    20   1 H        0.804     0.372     0.540     1.154
    21   1 H        0.804     0.377     0.529     1.143
    22   1 H        0.805     0.374     0.535     1.149
    23   1 H        0.805     0.378     0.527     1.140
    24   1 H        0.805     0.359     0.568     1.184

 Mol. C6AA /au·bohr⁶  :       4727.797854
 Mol. C8AA /au·bohr⁸  :     100771.729408
 Mol. α(0) /au        :         98.277502


Wiberg/Mayer (AO) data.
largest (>0.10) Wiberg bond orders for each atom

 ---------------------------------------------------------------------------
     #   Z sym  total        # sym  WBO       # sym  WBO       # sym  WBO
 ---------------------------------------------------------------------------
     1   6 C    3.959 --    17 O    1.011     2 C    0.977    18 H    0.969
                            19 H    0.968
     2   6 C    3.940 --     1 C    0.977     4 C    0.971    12 O    0.957
                             3 H    0.956
     3   1 H    0.998 --     2 C    0.956
     4   6 C    3.957 --    16 O    1.000     2 C    0.971     6 C    0.961
                             5 H    0.958
     5   1 H    0.997 --     4 C    0.958
     6   6 C    3.956 --    15 O    0.994     4 C    0.961     8 C    0.961
                             7 H    0.960
     7   1 H    0.998 --     6 C    0.960
     8   6 C    3.957 --    14 O    1.000     6 C    0.961     9 H    0.957
                            10 C    0.956
     9   1 H    0.998 --     8 C    0.957
    10   6 C    3.932 --    13 O    1.016    12 O    0.958     8 C    0.956
                            11 H    0.950
    11   1 H    0.998 --    10 C    0.950
    12   8 O    2.059 --    10 C    0.958     2 C    0.957
    13   8 O    1.945 --    10 C    1.016    20 H    0.834
    14   8 O    1.917 --     8 C    1.000    21 H    0.842
    15   8 O    1.925 --     6 C    0.994    22 H    0.845
    16   8 O    1.916 --     4 C    1.000    23 H    0.844
    17   8 O    1.929 --     1 C    1.011    24 H    0.857
    18   1 H    0.995 --     1 C    0.969
    19   1 H    0.998 --     1 C    0.968
    20   1 H    0.862 --    13 O    0.834
    21   1 H    0.858 --    14 O    0.842
    22   1 H    0.860 --    15 O    0.845
    23   1 H    0.857 --    16 O    0.844
    24   1 H    0.871 --    17 O    0.857
 ---------------------------------------------------------------------------

Topologies differ in total number of bonds
Writing topology from bond orders to xtbtopo.mol

molecular dipole:
                 x           y           z       tot (Debye)
 q only:        0.804       1.800      -0.304
   full:        1.176       2.147      -0.302       6.269
molecular quadrupole (traceless):
                xx          xy          yy          xz          yz          zz
 q only:       -3.115       8.540       4.394      -2.278      -1.394      -1.280
  q+dip:       -3.973      11.409       8.163      -1.165      -4.153      -4.190
   full:       -4.382      11.145       7.399      -1.730      -3.353      -3.017


           -------------------------------------------------
          | TOTAL ENERGY              -43.382545765876 Eh   |
          | GRADIENT NORM               0.000149730431 Eh/α |
          | HOMO-LUMO GAP              10.313718281538 eV   |
           -------------------------------------------------

------------------------------------------------------------------------
 * finished run on 2025/04/06 at 18:00:48.604     
------------------------------------------------------------------------
 total:
 * wall-time:     0 d,  0 h,  0 min,  0.088 sec
 *  cpu-time:     0 d,  0 h,  0 min,  0.029 sec
 * ratio c/w:     0.333 speedup
 SCF:
 * wall-time:     0 d,  0 h,  0 min,  0.042 sec
 *  cpu-time:     0 d,  0 h,  0 min,  0.021 sec
 * ratio c/w:     0.491 speedup

