16
 energy: -21.159076106029 gnorm: 0.020255637128 xtb: 6.7.1 (edcfbbe)
C           -2.97900329227455       -0.35491282068363       -0.00187688378327
C           -1.96875013215165        0.52197003110443        0.00205100357033
C           -0.53416362996194        0.21646002316201        0.00099769602037
C            0.38172392560743        1.27987387023164        0.00017684219042
C            1.75359469647772        1.04628337040436       -0.00089743485130
C            2.23893390985616       -0.25863613412446       -0.00100892297997
C            1.33974228356462       -1.32656669831397       -0.00007592689842
C           -0.02919844092643       -1.09458124173067        0.00092380610516
H           -4.00737285156097       -0.00771520630515       -0.00104248179278
H           -2.82371231131761       -1.43018541372144       -0.00679364769989
H           -2.20478411751499        1.58565046780994        0.00545666826755
H            0.00636739809588        2.29973300940087        0.00035682967385
H            2.44360195011416        1.88452036049071       -0.00150870057365
H            3.30819908534732       -0.44528815793845       -0.00175865906450
H            1.71073056859146       -2.34700895815760        0.00011984819181
H           -0.71006997197734       -1.93976999880799        0.00202770811227
16
 energy: -21.159950473172 gnorm: 0.003369981457 xtb: 6.7.1 (edcfbbe)
C           -2.96509325418349       -0.35204511881900       -0.00226961793557
C           -1.96103543686986        0.51873502527669        0.00162079300759
C           -0.53276563710885        0.21494595386188        0.00090183809509
C            0.37961257210170        1.27305061303977        0.00021023000696
C            1.74350962919758        1.04053042091607       -0.00082920963911
C            2.22647279181536       -0.25786821108262       -0.00096351476221
C            1.33319540653375       -1.31974448767713        0.00001011398837
C           -0.02938153986560       -1.08880707742060        0.00092963058312
H           -3.98853093653047       -0.01394784610848       -0.00096459080791
H           -2.81443400435603       -1.41913402472230       -0.00627500839091
H           -2.19365099008790        1.57817016177287        0.00573285490659
H            0.00860084594070        2.28946203560462        0.00030568809650
H            2.43127818145062        1.87480244150273       -0.00149171992217
H            3.29118050416471       -0.44352025604656       -0.00172019166838
H            1.70430776520413       -2.33534871509713        0.00005321326919
H           -0.70742682743710       -1.92945441218021        0.00189723566085
16
 energy: -21.159979263146 gnorm: 0.000840375230 xtb: 6.7.1 (edcfbbe)
C           -2.96157080371819       -0.35192350769174       -0.00169799015572
C           -1.95924682226072        0.51903164537690        0.00203885339919
C           -0.53262028011281        0.21543341748332        0.00095053840288
C            0.37935122071021        1.27249140464999        0.00015564516520
C            1.74152496260958        1.03973975733761       -0.00086747296503
C            2.22365197865627       -0.25822846746959       -0.00098720211612
C            1.33128555478804       -1.31873563008378       -0.00002805607318
C           -0.03033576851987       -1.08702615695227        0.00092774249449
H           -3.98504093732082       -0.01939808897944       -0.00130053588306
H           -2.81063975330849       -1.41720524205463       -0.00661461357813
H           -2.18998881241892        1.57766787361245        0.00552998490948
H            0.00985419644185        2.28827876935355        0.00029641005538
H            2.42912225789359        1.87269771498362       -0.00150500548767
H            3.28719558098942       -0.44381474772264       -0.00173972780353
H            1.70193678814867       -2.33332125572462        0.00005748507941
H           -0.70864029260855       -1.92586098329813        0.00193168904441
16
 energy: -21.159980931075 gnorm: 0.000354896894 xtb: 6.7.1 (edcfbbe)
C           -2.96069668732585       -0.35210518456752       -0.00276490556988
C           -1.95930803965695        0.51994178224888        0.00129007519637
C           -0.53283713328539        0.21610125244391        0.00091284918864
C            0.37951876638226        1.27308589556320        0.00027497587344
C            1.74148128439824        1.03982932076531       -0.00078341142766
C            2.22317016207230       -0.25869337128914       -0.00092848134100
C            1.33065309957683       -1.31889283760267        0.00000111225343
C           -0.03107371874179       -1.08639567835909        0.00090279101503
H           -3.98525917422198       -0.02315640077787       -0.00062435508538
H           -2.80802695050898       -1.41725575219775       -0.00590985607586
H           -2.18942952267181        1.57855921910571        0.00576965828634
H            0.01066148529819        2.28901945857151        0.00029836146045
H            2.42958806345560        1.87218434641888       -0.00145579953629
H            3.28658092545698       -0.44432511683909       -0.00166107823899
H            1.70081447067128       -2.33350399089629        0.00002407016550
H           -0.70999796092968       -1.92456643976739        0.00180173832388
16
 energy: -21.159980845359 gnorm: 0.000428673421 xtb: 6.7.1 (edcfbbe)
C           -2.96024168698703       -0.35221514285979       -0.00095561801826
C           -1.95963445823493        0.52072206141371        0.00246173573003
C           -0.53304578162197        0.21662761785427        0.00091526785675
C            0.37969610057347        1.27357212954773        0.00006643654579
C            1.74158200909702        1.03986287936668       -0.00089219431780
C            2.22294897898033       -0.25905357573037       -0.00099623548867
C            1.33023906879282       -1.31902837350066       -0.00004408504270
C           -0.03156921704749       -1.08595336482064        0.00090884156300
H           -3.98573902374514       -0.02589756631360       -0.00180761291544
H           -2.80576879373825       -1.41732641005586       -0.00687557046719
H           -2.18955593740512        1.57938886773760        0.00536094083883
H            0.01123333032456        2.28970177281307        0.00029508521244
H            2.43025619011528        1.87176789923286       -0.00150163332120
H            3.28639821359013       -0.44468902230469       -0.00175207403745
H            1.69993443696758       -2.33381897063264        0.00002213644480
H           -0.71089435969202       -1.92383429892707        0.00194232390508
16
 energy: -21.159981403459 gnorm: 0.000066508127 xtb: 6.7.1 (edcfbbe)
C           -2.96052916076137       -0.35213056434150       -0.00203295948056
C           -1.95967846811233        0.52047078675018        0.00176845634576
C           -0.53298458408696        0.21643152058044        0.00092950940299
C            0.37965023118898        1.27336761582931        0.00019995993486
C            1.74159121975437        1.03978979004848       -0.00082395332825
C            2.22309288874720       -0.25890902496063       -0.00095989138334
C            1.33041876705793       -1.31894864518733       -0.00003480643571
C           -0.03132340142608       -1.08612185903598        0.00089705316589
H           -3.98568989538395       -0.02474871493477       -0.00105067671319
H           -2.80639883464463       -1.41726349684376       -0.00630338252699
H           -2.18986549805017        1.57913977531352        0.00553006742539
H            0.01096919629527        2.28945998389666        0.00030068435281
H            2.43016603259519        1.87186224558044       -0.00145648252550
H            3.28661074603484       -0.44451089328373       -0.00168880132031
H            1.70020362280503       -2.33377721230955        0.00002509206702
H           -0.71039379204408       -1.92428480428119        0.00184787550714
16
 energy: -21.159981409379 gnorm: 0.000019656458 xtb: 6.7.1 (edcfbbe)
C           -2.96049521044291       -0.35213446959027       -0.00199217887400
C           -1.95964115660592        0.52046860308524        0.00175529147407
C           -0.53297741241105        0.21644305136700        0.00089773280379
C            0.37963408755547        1.27334873296492        0.00018766325317
C            1.74155136831638        1.03977010517769       -0.00081552014982
C            2.22306062625641       -0.25890575600809       -0.00094761292442
C            1.33038518900420       -1.31892597269045       -0.00002497400182
C           -0.03133938091322       -1.08609064440682        0.00088659628747
H           -3.98561661548797       -0.02477761505124       -0.00110867953550
H           -2.80631981939701       -1.41721550104525       -0.00624710234032
H           -2.18979387730620        1.57912261022965        0.00554718330619
H            0.01095507366303        2.28941699805117        0.00030242436374
H            2.43011079250857        1.87183201934146       -0.00144937329965
H            3.28655486013216       -0.44450276479137       -0.00168540238781
H            1.70012708145039       -2.33375119286959        0.00001017333668
H           -0.71035653635309       -1.92427170094346        0.00183152317623
