      -----------------------------------------------------------      
     |                   =====================                   |     
     |                           x T B                           |     
     |                   =====================                   |     
     |                         S. Grimme                         |     
     |          Mulliken Center for Theoretical Chemistry        |     
     |                    University of Bonn                     |     
      -----------------------------------------------------------      

   * xtb version 6.7.1 (edcfbbe) compiled by 'albert@albert-system' on 2024-07-22

   xtb is free software: you can redistribute it and/or modify it under
   the terms of the GNU Lesser General Public License as published by
   the Free Software Foundation, either version 3 of the License, or
   (at your option) any later version.
   
   xtb is distributed in the hope that it will be useful,
   but WITHOUT ANY WARRANTY; without even the implied warranty of
   MERCHANTABILITY or FITNESS FOR A PARTICULAR PURPOSE.  See the
   GNU Lesser General Public License for more details.
   
   Cite this work as:
   * C. Bannwarth, E. Caldeweyher, S. Ehlert, A. Hansen, P. Pracht,
     J. Seibert, S. Spicher, S. Grimme, WIREs Comput. Mol. Sci., 2020, 11,
     e01493. DOI: 10.1002/wcms.1493
   
   for GFN2-xTB:
   * C. Bannwarth, S. Ehlert and S. Grimme., J. Chem. Theory Comput., 2019,
     15, 1652-1671. DOI: 10.1021/acs.jctc.8b01176
   for GFN1-xTB:
   * S. Grimme, C. Bannwarth, P. Shushkov, J. Chem. Theory Comput., 2017,
     13, 1989-2009. DOI: 10.1021/acs.jctc.7b00118
   for GFN0-xTB:
   * P. Pracht, E. Caldeweyher, S. Ehlert, S. Grimme, ChemRxiv, 2019, preprint.
     DOI: 10.26434/chemrxiv.8326202.v1
   for GFN-FF:
   * S. Spicher and S. Grimme, Angew. Chem. Int. Ed., 2020, 59, 15665-15673.
     DOI: 10.1002/anie.202004239
   
   for ALPB and GBSA implicit solvation:
   * S. Ehlert, M. Stahn, S. Spicher, S. Grimme, J. Chem. Theory Comput.,
     2021, 17, 4250-4261. DOI: 10.1021/acs.jctc.1c00471
   
   for ddCOSMO and CPCM-X implicit solvation:
   * M. Stahn, S. Ehlert, S. Grimme, J. Phys. Chem. A,
     2023, XX, XXXX-XXXX. DOI: 10.1021/acs.jpca.3c04382
   
   for DFT-D4:
   * E. Caldeweyher, C. Bannwarth and S. Grimme, J. Chem. Phys., 2017,
     147, 034112. DOI: 10.1063/1.4993215
   * E. Caldeweyher, S. Ehlert, A. Hansen, H. Neugebauer, S. Spicher,
     C. Bannwarth and S. Grimme, J. Chem. Phys., 2019, 150, 154122.
     DOI: 10.1063/1.5090222
   * E. Caldeweyher, J.-M. Mewes, S. Ehlert and S. Grimme, Phys. Chem. Chem. Phys.
     2020, 22, 8499-8512. DOI: 10.1039/D0CP00502A
   
   for sTDA-xTB:
   * S. Grimme and C. Bannwarth, J. Chem. Phys., 2016, 145, 054103.
     DOI: 10.1063/1.4959605
   
   in the mass-spec context:
   * V. Asgeirsson, C. Bauer and S. Grimme, Chem. Sci., 2017, 8, 4879.
     DOI: 10.1039/c7sc00601b
   * J. Koopman and S. Grimme, ACS Omega 2019, 4, 12, 15120-15133.
     DOI: 10.1021/acsomega.9b02011
   
   for metadynamics refer to:
   * S. Grimme, J. Chem. Theory Comput., 2019, 155, 2847-2862
     DOI: 10.1021/acs.jctc.9b00143
   
   for SPH calculations refer to:
   * S. Spicher and S. Grimme, J. Chem. Theory Comput., 2021, 17, 1701-1714
     DOI: 10.1021/acs.jctc.0c01306
   
   for ONIOM refer to:
   * C. Plett, A. Katbashev, S. Ehlert, S. Grimme, M. Bursch,
     Phys. Chem. Chem. Phys., 2023, 25, 17860-17868. DOI: 10.1039/D3CP02178E
   
   for DIPRO refer to:
   * J. Kohn, N. Gildemeister, S. Grimme, D. Fazzi, A. Hansen,
     J. Chem. Phys., 2023, just accepted.
   
   for PTB refer to:
   * S. Grimme, M. Mueller, A. Hansen, J. Chem. Phys., 2023, 158, 124111.
     DOI: 10.1063/5.0137838
   
   with help from (in alphabetical order)
   P. Atkinson, C. Bannwarth, F. Bohle, G. Brandenburg, E. Caldeweyher
   M. Checinski, S. Dohm, S. Ehlert, S. Ehrlich, I. Gerasimov, C. Hölzer
   A. Katbashev, J. Kohn, J. Koopman, C. Lavigne, S. Lehtola, F. März, M. Müller,
   F. Musil, H. Neugebauer, J. Pisarek, C. Plett, P. Pracht, F. Pultar,
   J. Seibert, P. Shushkov, S. Spicher, M. Stahn, M. Steiner, T. Strunk,
   J. Stückrath, T. Rose, and J. Unsleber
   
 * started run on 2025/04/06 at 05:07:26.707     
   ID    Z sym.   atoms
    1    6 C      1, 2, 4-6, 8, 10-13
    2    1 H      3, 7, 14-29
    3    8 O      9

           -------------------------------------------------
          |                Calculation Setup                |
           -------------------------------------------------

          program call               : /srv/scratch/z5358697/.xtb/bin/xtb gas.coord --gfn2 --sp --chrg 0 --norestart --parallel 1
          hostname                   : k139
          coordinate file            : gas.coord
          omp threads                :                     1


           -------------------------------------------------
          |                 G F N 2 - x T B                 |
           -------------------------------------------------

        Reference                      10.1021/acs.jctc.8b01176
      * Hamiltonian:
        H0-scaling (s, p, d)           1.850000    2.230000    2.230000
        zeta-weighting                 0.500000
      * Dispersion:
        s8                             2.700000
        a1                             0.520000
        a2                             5.000000
        s9                             5.000000
      * Repulsion:
        kExp                           1.500000    1.000000
        rExp                           1.000000
      * Coulomb:
        alpha                          2.000000
        third order                    shell-resolved
        anisotropic                    true
        a3                             3.000000
        a5                             4.000000
        cn-shift                       1.200000
        cn-exp                         4.000000
        max-rad                        5.000000


          ...................................................
          :                      SETUP                      :
          :.................................................:
          :  # basis functions                  62          :
          :  # atomic orbitals                  62          :
          :  # shells                           40          :
          :  # electrons                        64          :
          :  max. iterations                   250          :
          :  Hamiltonian                  GFN2-xTB          :
          :  restarted?                      false          :
          :  GBSA solvation                  false          :
          :  PC potential                    false          :
          :  electronic temp.          300.0000000     K    :
          :  accuracy                    1.0000000          :
          :  -> integral cutoff          0.2500000E+02      :
          :  -> integral neglect         0.1000000E-07      :
          :  -> SCF convergence          0.1000000E-05 Eh   :
          :  -> wf. convergence          0.1000000E-03 e    :
          :  Broyden damping             0.4000000          :
          :  net charge                          0          :
          :  unpaired electrons                  0          :
          ...................................................

 iter      E             dE          RMSdq      gap      omega  full diag
   1    -35.0569768 -0.350570E+02  0.305E+00    4.40       0.0  T
   2    -35.1380692 -0.810924E-01  0.163E+00    3.45       1.0  T
   3    -35.1458840 -0.781483E-02  0.103E+00    3.92       1.0  T
   4    -35.1498459 -0.396189E-02  0.214E-01    3.64       1.0  T
   5    -35.1502813 -0.435372E-03  0.764E-02    3.71       1.0  T
   6    -35.1503108 -0.295284E-04  0.339E-02    3.70       1.0  T
   7    -35.1503139 -0.310752E-05  0.116E-02    3.70       1.6  T
   8    -35.1503143 -0.358896E-06  0.182E-03    3.70      10.2  T
   9    -35.1503143 -0.725035E-08  0.101E-03    3.70      18.5  T
  10    -35.1503143 -0.289285E-08  0.243E-04    3.70      76.4  T
  11    -35.1503143 -0.274326E-09  0.860E-05    3.70     216.0  T

   *** convergence criteria satisfied after 11 iterations ***

         #    Occupation            Energy/Eh            Energy/eV
      -------------------------------------------------------------
         1        2.0000           -0.6994227             -19.0323
       ...           ...                  ...                  ...
        26        2.0000           -0.4450759             -12.1111
        27        2.0000           -0.4429714             -12.0539
        28        2.0000           -0.4372294             -11.8976
        29        2.0000           -0.4313623             -11.7380
        30        2.0000           -0.4288077             -11.6685
        31        2.0000           -0.4247087             -11.5569
        32        2.0000           -0.3822184             -10.4007 (HOMO)
        33                         -0.2461824              -6.6990 (LUMO)
        34                          0.0415915               1.1318
        35                          0.0632892               1.7222
        36                          0.0747697               2.0346
        37                          0.0766504               2.0858
       ...                                ...                  ...
        62                          0.5957456              16.2111
      -------------------------------------------------------------
                  HL-Gap            0.1360361 Eh            3.7017 eV
             Fermi-level           -0.3142004 Eh           -8.5498 eV

 SCC (total)                   0 d,  0 h,  0 min,  0.034 sec
 SCC setup                      ...        0 min,  0.000 sec (  0.521%)
 Dispersion                     ...        0 min,  0.000 sec (  0.547%)
 classical contributions        ...        0 min,  0.000 sec (  0.095%)
 integral evaluation            ...        0 min,  0.003 sec (  8.089%)
 iterations                     ...        0 min,  0.023 sec ( 69.400%)
 molecular gradient             ...        0 min,  0.007 sec ( 20.969%)
 printout                       ...        0 min,  0.000 sec (  0.343%)

         :::::::::::::::::::::::::::::::::::::::::::::::::::::
         ::                     SUMMARY                     ::
         :::::::::::::::::::::::::::::::::::::::::::::::::::::
         :: total energy             -34.675683723931 Eh    ::
         :: gradient norm              0.023484587671 Eh/a0 ::
         :: HOMO-LUMO gap              3.701730450587 eV    ::
         ::.................................................::
         :: SCC energy               -35.150117963085 Eh    ::
         :: -> isotropic ES            0.031139422200 Eh    ::
         :: -> anisotropic ES          0.006483298315 Eh    ::
         :: -> anisotropic XC          0.016518056923 Eh    ::
         :: -> dispersion             -0.023681473404 Eh    ::
         :: repulsion energy           0.474434239154 Eh    ::
         :: add. restraining           0.000000000000 Eh    ::
         :: total charge               0.000000000000 e     ::
         :::::::::::::::::::::::::::::::::::::::::::::::::::::

           -------------------------------------------------
          |                Property Printout                |
           -------------------------------------------------

    * Orbital Energies and Occupations

         #    Occupation            Energy/Eh            Energy/eV
      -------------------------------------------------------------
         1        2.0000           -0.6994227             -19.0323
       ...           ...                  ...                  ...
        20        2.0000           -0.4806999             -13.0805
        21        2.0000           -0.4761909             -12.9578
        22        2.0000           -0.4707547             -12.8099
        23        2.0000           -0.4657082             -12.6726
        24        2.0000           -0.4613630             -12.5543
        25        2.0000           -0.4538815             -12.3507
        26        2.0000           -0.4450759             -12.1111
        27        2.0000           -0.4429714             -12.0539
        28        2.0000           -0.4372294             -11.8976
        29        2.0000           -0.4313623             -11.7380
        30        2.0000           -0.4288077             -11.6685
        31        2.0000           -0.4247087             -11.5569
        32        2.0000           -0.3822184             -10.4007 (HOMO)
        33                         -0.2461824              -6.6990 (LUMO)
        34                          0.0415915               1.1318
        35                          0.0632892               1.7222
        36                          0.0747697               2.0346
        37                          0.0766504               2.0858
        38                          0.0787328               2.1424
        39                          0.0975706               2.6550
        40                          0.1171153               3.1869
        41                          0.1186148               3.2277
        42                          0.1251804               3.4063
        43                          0.1437588               3.9119
       ...                                ...                  ...
        62                          0.5957456              16.2111
      -------------------------------------------------------------
                  HL-Gap            0.1360361 Eh            3.7017 eV
             Fermi-level           -0.3142004 Eh           -8.5498 eV

     #   Z          covCN         q      C6AA      α(0)
     1   6 C        3.755    -0.108    22.626     6.782
     2   6 C        3.853    -0.011    20.739     6.477
     3   1 H        0.924     0.032     2.558     2.501
     4   6 C        3.807    -0.063    21.698     6.631
     5   6 C        3.807    -0.061    21.662     6.626
     6   6 C        3.855    -0.049    21.414     6.581
     7   1 H        0.924     0.055     2.257     2.350
     8   6 C        2.818     0.241    22.971     7.853
     9   8 O        0.857    -0.375    21.178     6.170
    10   6 C        3.807    -0.090    22.202     6.708
    11   6 C        3.852    -0.006    20.645     6.463
    12   6 C        3.756    -0.106    22.582     6.776
    13   6 C        3.757    -0.109    22.635     6.783
    14   1 H        0.925     0.041     2.438     2.442
    15   1 H        0.925     0.039     2.468     2.457
    16   1 H        0.925     0.038     2.478     2.462
    17   1 H        0.924     0.036     2.497     2.471
    18   1 H        0.924     0.035     2.514     2.480
    19   1 H        0.925     0.037     2.483     2.464
    20   1 H        0.924     0.039     2.464     2.455
    21   1 H        0.924     0.063     2.165     2.301
    22   1 H        0.924     0.058     2.219     2.329
    23   1 H        0.924     0.029     2.606     2.524
    24   1 H        0.925     0.037     2.487     2.466
    25   1 H        0.925     0.045     2.384     2.415
    26   1 H        0.925     0.034     2.525     2.485
    27   1 H        0.925     0.039     2.464     2.455
    28   1 H        0.925     0.037     2.486     2.466
    29   1 H        0.925     0.041     2.441     2.443

 Mol. C6AA /au·bohr⁶  :       6299.624352
 Mol. C8AA /au·bohr⁸  :     136536.678675
 Mol. α(0) /au        :        117.813530


Wiberg/Mayer (AO) data.
largest (>0.10) Wiberg bond orders for each atom

 ---------------------------------------------------------------------------
     #   Z sym  total        # sym  WBO       # sym  WBO       # sym  WBO
 ---------------------------------------------------------------------------
     1   6 C    3.996 --     2 C    1.010    15 H    0.986    14 H    0.986
                            16 H    0.985
     2   6 C    3.995 --     1 C    1.010     4 C    0.999    10 C    0.977
                             3 H    0.971
     3   1 H    0.999 --     2 C    0.971
     4   6 C    3.997 --     5 C    1.009     2 C    0.999    18 H    0.976
                            17 H    0.974
     5   6 C    3.997 --     4 C    1.009     6 C    0.982    19 H    0.979
                            20 H    0.974
     6   6 C    3.993 --     5 C    0.982     8 C    0.981     7 H    0.964
                            11 C    0.956
     7   1 H    0.997 --     6 C    0.964
     8   6 C    3.914 --     9 O    1.848    10 C    0.998     6 C    0.981
     9   8 O    2.052 --     8 C    1.848
    10   6 C    3.995 --     8 C    0.998     2 C    0.977    21 H    0.970
                            22 H    0.946
    11   6 C    3.994 --    12 C    1.010    13 C    1.008    23 H    0.967
                             6 C    0.956
    12   6 C    3.996 --    11 C    1.010    25 H    0.986    24 H    0.985
                            26 H    0.985
    13   6 C    3.996 --    11 C    1.008    29 H    0.986    27 H    0.985
                            28 H    0.984
    14   1 H    0.998 --     1 C    0.986
    15   1 H    0.998 --     1 C    0.986
    16   1 H    0.998 --     1 C    0.985
    17   1 H    0.999 --     4 C    0.974
    18   1 H    0.998 --     4 C    0.976
    19   1 H    0.998 --     5 C    0.979
    20   1 H    0.998 --     5 C    0.974
    21   1 H    0.996 --    10 C    0.970
    22   1 H    0.997 --    10 C    0.946
    23   1 H    0.999 --    11 C    0.967
    24   1 H    0.998 --    12 C    0.985
    25   1 H    0.998 --    12 C    0.986
    26   1 H    0.999 --    12 C    0.985
    27   1 H    0.997 --    13 C    0.985
    28   1 H    0.999 --    13 C    0.984
    29   1 H    0.998 --    13 C    0.986
 ---------------------------------------------------------------------------

Topologies differ in total number of bonds
Writing topology from bond orders to xtbtopo.mol

molecular dipole:
                 x           y           z       tot (Debye)
 q only:       -0.151      -0.975      -0.685
   full:       -0.171      -1.086      -0.801       3.458
molecular quadrupole (traceless):
                xx          xy          yy          xz          yz          zz
 q only:        5.040      -1.181      -4.234       0.201      -4.614      -0.806
  q+dip:        4.147      -1.543      -5.442       0.282      -4.973       1.294
   full:        4.865      -1.174      -5.458      -0.337      -5.620       0.593


           -------------------------------------------------
          | TOTAL ENERGY              -34.675683723931 Eh   |
          | GRADIENT NORM               0.023484587671 Eh/α |
          | HOMO-LUMO GAP               3.701730450587 eV   |
           -------------------------------------------------

------------------------------------------------------------------------
 * finished run on 2025/04/06 at 05:07:26.873     
------------------------------------------------------------------------
 total:
 * wall-time:     0 d,  0 h,  0 min,  0.166 sec
 *  cpu-time:     0 d,  0 h,  0 min,  0.037 sec
 * ratio c/w:     0.225 speedup
 SCF:
 * wall-time:     0 d,  0 h,  0 min,  0.034 sec
 *  cpu-time:     0 d,  0 h,  0 min,  0.020 sec
 * ratio c/w:     0.585 speedup

