
                                 *****************
                                 * O   R   C   A *
                                 *****************

                                            #,                                       
                                            ###                                      
                                            ####                                     
                                            #####                                    
                                            ######                                   
                                           ########,                                 
                                     ,,################,,,,,                         
                               ,,#################################,,                 
                          ,,##########################################,,             
                       ,#########################################, ''#####,          
                    ,#############################################,,   '####,        
                  ,##################################################,,,,####,       
                ,###########''''           ''''###############################       
              ,#####''   ,,,,##########,,,,          '''####'''          '####       
            ,##' ,,,,###########################,,,                        '##       
           ' ,,###''''                  '''############,,,                           
         ,,##''                                '''############,,,,        ,,,,,,###''
      ,#''                                            '''#######################'''  
     '                                                          ''''####''''         
             ,#######,   #######,   ,#######,      ##                                
            ,#'     '#,  ##    ##  ,#'     '#,    #''#        ,####,   ,####,        
            ##       ##  ##   ,#'  ##            #'  '#       #'       #'  '#        
            ##       ##  #######   ##           ,######,      #####,   #    #        
            '#,     ,#'  ##    ##  '#,     ,#' ,#      #,     #,   #   #,  ,#        
             '#######'   ##     ##  '#######'  #'      '#     '####' # '####'        



                #########################################################
                #                        -***-                          #
                #          Department of theory and spectroscopy        #
                #                                                       #
                #                      Frank Neese                      #
                #                                                       #
                #     Directorship, Architecture, Infrastructure        #
                #                    SHARK, DRIVERS                     #
                #        Core code/Algorithms in most modules           #
                #                                                       #
                #        Max Planck Institute fuer Kohlenforschung      #
                #                Kaiser Wilhelm Platz 1                 #
                #                 D-45470 Muelheim/Ruhr                 #
                #                      Germany                          #
                #                                                       #
                #                  All rights reserved                  #
                #                        -***-                          #
                #########################################################


                         Program Version 6.0.0  -   RELEASE  -


 With contributions from (in alphabetic order):
   Daniel Aravena         : Magnetic Suceptibility
   Michael Atanasov       : Ab Initio Ligand Field Theory (pilot matlab implementation)
   Alexander A. Auer      : GIAO ZORA, VPT2 properties, NMR spectrum
   Ute Becker             : All parallelization in ORCA, NUMFREQ, NUMCALC
   Giovanni Bistoni       : ED, misc. LED, open-shell LED, HFLD
   Martin Brehm           : Molecular dynamics
   Dmytro Bykov           : pre 5.0 version of the SCF Hessian
   Marcos Casanova-Páez   : Triplet and SCS-CIS(D). UHF-(DLPNO)-IP/EA/STEOM-CCSD. UHF-CVS-IP/STEOM-CCSD
   Vijay G. Chilkuri      : MRCI spin determinant printing, contributions to CSF-ICE
   Pauline Colinet        : FMM embedding
   Dipayan Datta          : RHF DLPNO-CCSD density
   Achintya Kumar Dutta   : EOM-CC, STEOM-CC
   Nicolas Foglia         : Exact transition moments, OPA infrastructure, MCD improvements
   Dmitry Ganyushin       : Spin-Orbit,Spin-Spin,Magnetic field MRCI
   Miquel Garcia          : C-PCM and meta-GGA Hessian, CCSD/C-PCM, Gaussian charge scheme
   Tiago L. C. Gouveia    : GS-ROHF, GS-ROCIS
   Yang Guo               : DLPNO-NEVPT2, F12-NEVPT2, CIM, IAO-localization
   Andreas Hansen         : Spin unrestricted coupled pair/coupled cluster methods
   Ingolf Harden          : AUTO-CI MPn and infrastructure 
   Benjamin Helmich-Paris : MC-RPA, TRAH-(SCF,CASSCF), AVAS, COSX integrals, SCF dyn. polar.
   Lee Huntington         : MR-EOM, pCC
   Robert Izsak           : Overlap fitted RIJCOSX, COSX-SCS-MP3, EOM
   Riya Kayal             : Wick's Theorem for AUTO-CI, AUTO-CI UHF-CCSDT
   Emily Kempfer          : AUTO-CI, RHF CISDT and CCSDT
   Christian Kollmar      : KDIIS, OOCD, Brueckner-CCSD(T), CCSD density, CASPT2, CASPT2-K, improved NEVPT2
   Axel Koslowski         : Symmetry handling
   Simone Kossmann        : Meta GGA functionals, TD-DFT gradient, OOMP2, (MP2 Hessian; deprecated post 5.0)
   Lucas Lang             : DCDCAS
   Marvin Lechner         : AUTO-CI (C++ implementation), FIC-MRCC
   Spencer Leger          : CASSCF response
   Dagmar Lenk            : GEPOL surface, SMD, ORCA-2-JSON
   Dimitrios Liakos       : Extrapolation schemes; Compound Job, initial MDCI parallelization
   Dimitrios Manganas     : Further ROCIS development; embedding schemes. LFT, Crystal Embedding
   Dimitrios Pantazis     : SARC Basis sets
   Anastasios Papadopoulos: AUTO-CI, single reference methods and gradients
   Taras Petrenko         : pre 6.0 DFT Hessian and TD-DFT gradient, (ASA, deprecated), ECA, 1-Electron XAS/XES, NRVS
   Peter Pinski           : DLPNO-MP2, DLPNO-MP2 Gradient
   Christoph Reimann      : Effective Core Potentials
   Marius Retegan         : Local ZFS, SOC
   Christoph Riplinger    : Optimizer, TS searches, QM/MM, DLPNO-CCSD(T), (RO)-DLPNO pert. Triples
   Michael Roemelt        : Original ROCIS implementation
   Masaaki Saitow         : Open-shell DLPNO-CCSD energy and density
   Barbara Sandhoefer     : DKH picture change effects
   Kantharuban Sivalingam : CASSCF convergence/infrastructure, NEVPT2 and variants, FIC-MRCI
   Bernardo de Souza      : ESD, SOC TD-DFT
   Georgi Stoychev        : AutoAux, RI-MP2 NMR, DLPNO-MP2 response, X2C
   Van Anh Tran           : RI-MP2 g-tensors
   Willem Van den Heuvel  : Paramagnetic NMR
   Zikuan Wang            : NOTCH, Electric field optimization 
   Frank Wennmohs         : Technical directorship and infrastructure
   Hang Xu                : AUTO-CI-Response properties 


 We gratefully acknowledge several colleagues who have allowed us to
 interface, adapt or use parts of their codes:
   Stefan Grimme, W. Hujo, H. Kruse, P. Pracht,  : VdW corrections, initial TS optimization,
                  C. Bannwarth, S. Ehlert,         DFT functionals, gCP, sTDA/sTD-DF
                  L. Wittmann, M. Mueller
   Ed Valeev, F. Pavosevic, A. Kumar             : LibInt (2-el integral package), F12 methods
   Garnet Chan, S. Sharma, J. Yang, R. Olivares  : DMRG
   Ulf Ekstrom                                   : XCFun DFT Library
   Mihaly Kallay                                 : mrcc  (arbitrary order and MRCC methods)
   Frank Weinhold                                : gennbo (NPA and NBO analysis)
   Simon Mueller                                 : openCOSMO-RS
   Christopher J. Cramer and Donald G. Truhlar   : smd solvation model
   Lars Goerigk                                  : TD-DFT with DH, B97 family of functionals
   V. Asgeirsson, H. Jonsson                     : NEB implementation
   FAccTs GmbH                                   : IRC, NEB, NEB-TS, DLPNO-Multilevel, CI-OPT
                                                   MM, QMMM, 2- and 3-layer-ONIOM, Crystal-QMMM,
                                                   LR-CPCM, SF, NACMEs, symmetry and pop. for TD-DFT,
                                                   nearIR, NL-DFT gradient (VV10), updates on ESD,
                                                   ML-optimized integration grids, MBIS, APM,
                                                   GOAT, DOCKER, SOLVATOR, interface openCOSMO-RS
   S Lehtola, MJT Oliveira, MAL Marques          : LibXC Library
   Liviu Ungur et al                             : ANISO software


 Your calculation uses the libint2 library for the computation of 2-el integrals
 For citations please refer to: http://libint.valeyev.net

 Your ORCA version has been built with support for libXC version: 6.2.2
 For citations please refer to: https://libxc.gitlab.io

 This ORCA versions uses:
   CBLAS   interface :  Fast vector & matrix operations
   LAPACKE interface :  Fast linear algebra routines
   SCALAPACK package :  Parallel linear algebra routines
   Shared memory     :  Shared parallel matrices
   BLAS/LAPACK       :  OpenBLAS 0.3.27  USE64BITINT DYNAMIC_ARCH NO_AFFINITY SapphireRapids SINGLE_THREADED
        Core in use  :  SapphireRapids
   Copyright (c) 2011-2014, The OpenBLAS Project


Your calculation utilizes the geometrical counterpoise correction gCP
Please cite in your paper:
H.Kruse, S. Grimme J.Chem.Phys., 136, (2012), 154101 
   

Your calculation utilizes the atom-pairwise dispersion correction
based on EEQ partial charges (D4)


Your calculation utilizes the SMD solvation module
Please cite in your paper:
A.V. Marenich, C.J. Cramer, D.G. Truhlar J. Phys. Chem. B, 113, (2009), 6378 

================================================================================

----- Orbital basis set information -----
Your calculation utilizes the basis: def2-mTZVPP
   Stefan Grimme, Andreas Hansen, Sebastian Ehlert, and Jan-Michael Mewes 
   J. Chem. Phys. 154, 064103 (2021). DOI: 10.1063/5.0040021

----- AuxJ basis set information -----
Your calculation utilizes the auxiliary basis: def2/J
   F. Weigend, Phys. Chem. Chem. Phys. 8, 1057 (2006).

================================================================================
                                        WARNINGS
                       Please study these warnings very carefully!
================================================================================

Using LibXC functional ID 497 : Re-regularized SCAN exchange by Furness et al
[ 1]  J. W. Furness, A. D. Kaplan, J. Ning, J. P. Perdew, and J. Sun.,  J. Phys. Chem. Lett. 11, 8208-8215 (2020)
[ 2]  J. W. Furness, A. D. Kaplan, J. Ning, J. P. Perdew, and J. Sun.,  J. Phys. Chem. Lett. 11, 9248-9248 (2020)
Using LibXC functional ID 498 : Re-regularized SCAN correlation by Furness et al
[ 1]  J. W. Furness, A. D. Kaplan, J. Ning, J. P. Perdew, and J. Sun.,  J. Phys. Chem. Lett. 11, 8208-8215 (2020)
[ 2]  J. W. Furness, A. D. Kaplan, J. Ning, J. P. Perdew, and J. Sun.,  J. Phys. Chem. Lett. 11, 9248-9248 (2020)
Using LibXC functional ID 497 : Re-regularized SCAN exchange by Furness et al
[ 1]  J. W. Furness, A. D. Kaplan, J. Ning, J. P. Perdew, and J. Sun.,  J. Phys. Chem. Lett. 11, 8208-8215 (2020)
[ 2]  J. W. Furness, A. D. Kaplan, J. Ning, J. P. Perdew, and J. Sun.,  J. Phys. Chem. Lett. 11, 9248-9248 (2020)
Using LibXC functional ID 498 : Re-regularized SCAN correlation by Furness et al
[ 1]  J. W. Furness, A. D. Kaplan, J. Ning, J. P. Perdew, and J. Sun.,  J. Phys. Chem. Lett. 11, 8208-8215 (2020)
[ 2]  J. W. Furness, A. D. Kaplan, J. Ning, J. P. Perdew, and J. Sun.,  J. Phys. Chem. Lett. 11, 9248-9248 (2020)

================================================================================
                                       INPUT FILE
================================================================================
NAME = sp_solv.inp
|  1> ! r2scan-3c def2/J RI DEFGRID2 scfconv6 printgap
|  2> %output
|  3>     printlevel normal
|  4> end
|  5> %cpcm
|  6>     smd true
|  7>     smdsolvent "water"
|  8> end
|  9> * xyz 0 1
| 10> C 0.4408244547 -2.83247e-05 -0.4025472857
| 11> F 1.0397752339 1.0763398508 0.1259379901
| 12> F 1.0402880057 -1.0760831213 0.1259750461
| 13> Cl -1.280194385 -0.000124213 0.0438245495
| 14> H 0.569622266 -0.000132483 -1.4929104758
| 15> *
| 16> 
| 17>                          ****END OF INPUT****
================================================================================

                       ****************************
                       * Single Point Calculation *
                       ****************************

---------------------------------
CARTESIAN COORDINATES (ANGSTROEM)
---------------------------------
  C      0.440824   -0.000028   -0.402547
  F      1.039775    1.076340    0.125938
  F      1.040288   -1.076083    0.125975
  Cl    -1.280194   -0.000124    0.043825
  H      0.569622   -0.000132   -1.492910

----------------------------
CARTESIAN COORDINATES (A.U.)
----------------------------
  NO LB      ZA    FRAG     MASS         X           Y           Z
   0 C     6.0000    0    12.011    0.833037   -0.000054   -0.760704
   1 F     9.0000    0    18.998    1.964890    2.033988    0.237988
   2 F     9.0000    0    18.998    1.965859   -2.033502    0.238058
   3 Cl   17.0000    0    35.453   -2.419217   -0.000235    0.082816
   4 H     1.0000    0     1.008    1.076430   -0.000250   -2.821192

--------------------------------
INTERNAL COORDINATES (ANGSTROEM)
--------------------------------
 C      0   0   0     0.000000000000     0.00000000     0.00000000
 F      1   0   0     1.340375757715     0.00000000     0.00000000
 F      1   2   0     1.340367982859   106.81972637     0.00000000
 Cl     1   2   3     1.777963349188   109.48724053   118.48729486
 H      1   2   3     1.097943884436   109.82910456   240.95270996

---------------------------
INTERNAL COORDINATES (A.U.)
---------------------------
 C      0   0   0     0.000000000000     0.00000000     0.00000000
 F      1   0   0     2.532943098629     0.00000000     0.00000000
 F      1   2   0     2.532928406281   106.81972637     0.00000000
 Cl     1   2   3     3.359863806115   109.48724053   118.48729486
 H      1   2   3     2.074813251997   109.82910456   240.95270996

---------------------
BASIS SET INFORMATION
---------------------
There are 4 groups of distinct atoms

 Group   1 Type C   : 11s6p1d contracted to 5s3p1d pattern {62111/411/1}
 Group   2 Type F   : 11s6p2d contracted to 5s3p2d pattern {62111/411/11}
 Group   3 Type Cl  : 14s9p2d contracted to 5s4p2d pattern {73211/6111/11}
 Group   4 Type H   : 4s1p contracted to 2s1p pattern {31/1}

Atom   0C    basis set group =>   1
Atom   1F    basis set group =>   2
Atom   2F    basis set group =>   2
Atom   3Cl   basis set group =>   3
Atom   4H    basis set group =>   4
---------------------------------
AUXILIARY/J BASIS SET INFORMATION
---------------------------------
There are 4 groups of distinct atoms

 Group   1 Type C   : 12s5p4d2f1g contracted to 6s4p3d1f1g pattern {711111/2111/211/2/1}
 Group   2 Type F   : 12s5p4d2f1g contracted to 6s4p3d1f1g pattern {711111/2111/211/2/1}
 Group   3 Type Cl  : 14s5p5d2f1g contracted to 8s4p3d1f1g pattern {71111111/2111/311/2/1}
 Group   4 Type H   : 5s2p1d contracted to 3s1p1d pattern {311/2/1}

Atom   0C    basis set group =>   1
Atom   1F    basis set group =>   2
Atom   2F    basis set group =>   2
Atom   3Cl   basis set group =>   3
Atom   4H    basis set group =>   4

Checking for AutoStart:
The File: sp_solv.gbw exists
Trying to determine its content:
     ... Fine, the file contains calculation information
     ... Fine, the calculation information was read
     ... Fine, the file contains a basis set
     ... Fine, the basis set was read
     ... Fine, the file contains a geometry
     ... Fine, the geometry was read
     ... Fine, the file contains a set of orbitals
     ... Fine, the orbitals can be read
     => possible old guess file was deleted
     => GBW file was renamed to GES file
     => GES file is set as startup file
     => Guess is set to MORead
     ... now leaving AutoStart

------------------------------------------------------------------------------
                             ORCA STARTUP CALCULATIONS
                           -- RI-GTO INTEGRALS CHOSEN --
------------------------------------------------------------------------------
------------------------------------------------------------------------------
                   ___                                                        
                  /   \      - P O W E R E D   B Y -                         
                 /     \                                                     
                 |  |  |   _    _      __       _____    __    __             
                 |  |  |  | |  | |    /  \     |  _  \  |  |  /  |          
                  \  \/   | |  | |   /    \    | | | |  |  | /  /          
                 / \  \   | |__| |  /  /\  \   | |_| |  |  |/  /          
                |  |  |   |  __  | /  /__\  \  |    /   |      \           
                |  |  |   | |  | | |   __   |  |    \   |  |\   \          
                \     /   | |  | | |  |  |  |  | |\  \  |  | \   \       
                 \___/    |_|  |_| |__|  |__|  |_| \__\ |__|  \__/        
                                                                              
                      - O R C A' S   B I G   F R I E N D -                    
                                      &                                       
                       - I N T E G R A L  F E E D E R -                       
                                                                              
 v1 FN, 2020, v2 2021, v3 2022-2024                                           
------------------------------------------------------------------------------


----------------------
SHARK INTEGRAL PACKAGE
----------------------

Number of atoms                             ...      5
Number of basis functions                   ...     99
Number of shells                            ...     43
Maximum angular momentum                    ...      2
Integral batch strategy                     ... SHARK/LIBINT Hybrid
RI-J (if used) integral strategy            ... SPLIT-RIJ (Revised 2003 algorithm where possible)
Printlevel                                  ...      1
Contraction scheme used                     ... SEGMENTED contraction
Prescreening option                         ... SCHWARTZ
   Thresh                                   ... 1.000e-10
   Tcut                                     ... 1.000e-11
   Tpresel                                  ... 1.000e-11 
Coulomb Range Separation                    ... NOT USED
Exchange Range Separation                   ... NOT USED
Multipole approximations                    ... NOT USED
Finite Nucleus Model                        ... NOT USED
CABS basis                                  ... NOT available
Auxiliary Coulomb fitting basis             ... AVAILABLE
   # of basis functions in Aux-J            ...    209
   # of shells in Aux-J                     ...     67
   Maximum angular momentum in Aux-J        ...      4
Auxiliary J/K fitting basis                 ... NOT available
Auxiliary Correlation fitting basis         ... NOT available
Auxiliary 'external' fitting basis          ... NOT available

Checking pre-screening integrals            ... done (  0.0 sec) Dimension = 43
Check shell pair data                       ... done (  0.0 sec)
Shell pair information
Shell pair cut-off parameter TPreSel        ...   1.0e-11
Total number of shell pairs                 ...       946
Shell pairs after pre-screening             ...       904
Total number of primitive shell pairs       ...      3850
Primitive shell pairs kept                  ...      2807
          la=0 lb=0:    224 shell pairs
          la=1 lb=0:    297 shell pairs
          la=1 lb=1:    105 shell pairs
          la=2 lb=0:    152 shell pairs
          la=2 lb=1:     98 shell pairs
          la=2 lb=2:     28 shell pairs

Calculating one electron integrals          ... done (  0.0 sec)
Calculating RI/J V-Matrix + Cholesky decomp.... done (  0.0 sec)
Calculating Nuclear repulsion               ... done (  0.0 sec) ENN=    167.583873605224 Eh

Diagonalization of the overlap matrix:
Smallest eigenvalue                        ... 1.293e-03
Time for diagonalization                   ...    0.001 sec
Threshold for overlap eigenvalues          ... 1.000e-07
Number of eigenvalues below threshold      ... 0
Time for construction of square roots      ...    0.012 sec
Total time needed                          ...    0.020 sec

-------------------
DFT GRID GENERATION
-------------------

General Integration Accuracy     IntAcc      ... 4.388
Radial Grid Type                 RadialGrid  ... OptM3 with GC (2021)
Angular Grid (max. ang.)         AngularGrid ... 4 (Lebedev-302)
Angular grid pruning method      GridPruning ... 4 (adaptive)
Weight generation scheme         WeightScheme... mBecke (2022)
Basis function cutoff            BFCut       ... 1.0000e-10
Integration weight cutoff        WCut        ... 1.0000e-14
Partially contracted basis set               ... off
Rotationally invariant grid construction     ... off
Angular grids for H and He will be reduced by one unit

Total number of grid points                  ...    28969
Total number of batches                      ...      455
Average number of points per batch           ...       63
Average number of grid points per atom       ...     5794
Initializing property integral containers    ... done (  0.0 sec)

SHARK setup successfully completed in   0.4 seconds

Maximum memory used throughout the entire STARTUP-calculation: 14.1 MB
-------------------------------------------------------------------------------
                                 ORCA GUESS
                   Start orbitals & Density for SCF / CASSCF
-------------------------------------------------------------------------------

------------
SCF SETTINGS
------------
Hamiltonian:
 Density Functional     Method          .... DFT(GTOs)
  Functional kind                       .... Exchange
  Functional name                       .... Re-regularized SCAN exchange by Furness et al
  Functional family                     .... MGGA
  Functional refs                              
    [ 0] J. W. Furness, A. D. Kaplan, J. Ning, J. P. Perdew, and J. Sun.,  J. Phys. Chem. Lett. 11, 8208-8215 (2020), doi: 10.1021/acs.jpclett.0c02405
    [ 1] J. W. Furness, A. D. Kaplan, J. Ning, J. P. Perdew, and J. Sun.,  J. Phys. Chem. Lett. 11, 9248-9248 (2020), doi: 10.1021/acs.jpclett.0c03077
  Functional external parameters        .... 6
    Parameter  0 _c1        =  6.670000e-01 : c1 parameter        
    Parameter  1 _c2        =  8.000000e-01 : c2 parameter        
    Parameter  2 _d         =  1.240000e+00 : d parameter         
    Parameter  3 _k1        =  6.500000e-02 : k1 parameter        
    Parameter  4 _eta       =  1.000000e-03 : eta parameter       
    Parameter  5 _dp2       =  3.610000e-01 : dp2 parameter       
  Functional kind                       .... Correlation
  Functional name                       .... Re-regularized SCAN correlation by Furness et al
  Functional family                     .... MGGA
  Functional refs                              
    [ 0] J. W. Furness, A. D. Kaplan, J. Ning, J. P. Perdew, and J. Sun.,  J. Phys. Chem. Lett. 11, 8208-8215 (2020), doi: 10.1021/acs.jpclett.0c02405
    [ 1] J. W. Furness, A. D. Kaplan, J. Ning, J. P. Perdew, and J. Sun.,  J. Phys. Chem. Lett. 11, 9248-9248 (2020), doi: 10.1021/acs.jpclett.0c03077
  Functional external parameters        .... 1
    Parameter  0 _eta       =  1.000000e-03 : Regularization parameter
 Gradients option       PostSCFGGA      .... off
 RI-approximation to the Coulomb term is turned on
   Number of AuxJ basis functions       .... 209


General Settings:
 Integral files         IntName         .... sp_solv
 Hartree-Fock type      HFTyp           .... RHF
 Total Charge           Charge          ....    0
 Multiplicity           Mult            ....    1
 Number of Electrons    NEL             ....   42
 Basis Dimension        Dim             ....   99
 Nuclear Repulsion      ENuc            ....    167.5838736052 Eh

Convergence Acceleration:
 AO-DIIS                CNVDIIS         .... on
   Start iteration      DIISMaxIt       ....    12
   Startup error        DIISStart       ....  0.200000
   # of expansion vecs  DIISMaxEq       ....     5
   Bias factor          DIISBfac        ....   1.050
   Max. coefficient     DIISMaxC        ....  10.000
 MO-DIIS                CNVKDIIS        .... off
 Trust-Rad. Augm. Hess. CNVTRAH         .... auto
   Auto Start mean grad. ratio tolernc. ....  1.125000
   Auto Start start iteration           ....     1
   Auto Start num. interpolation iter.  ....    10
   Max. Number of Micro iterations      ....    24
   Max. Number of Macro iterations      .... Maxiter - #DIIS iter
   Number of Davidson start vectors     ....     2
   Converg. threshold    (grad. norm)   ....   3.330e-04
   Grad. Scal. Fac. for Micro threshold ....   0.100
   Minimum threshold for Micro iter.    ....   1.000e-02
   NR start threshold (gradient norm)   ....   1.000e-04
   Initial trust radius                 ....   0.400
   Minimum AH scaling param. (alpha)    ....   1.000
   Maximum AH scaling param. (alpha)    .... 1000.000
   Quad. conv. algorithm                .... NR
   White noise on init. David. guess    .... on
   Maximum white noise                  ....   0.010
   Pseudo random numbers                .... off
   Inactive MOs                         .... canonical
   Orbital update algorithm             .... Taylor
   Preconditioner                       .... Diag
   Full preconditioner red. dimension   ....   250
   COSX micro iterations for RIJONX calc.... off
 SOSCF                  CNVSOSCF        .... on
   Start iteration      SOSCFMaxIt      ....   150
   Startup grad/error   SOSCFStart      ....  0.003300
   Hessian update       SOSCFHessUp     .... L-BFGS
 Level Shifting         CNVShift        .... on
   Level shift para.    LevelShift      ....    0.2500
   Turn off err/grad.   ShiftErr        ....    0.0010
 Zerner damping         CNVZerner       .... off
 Static damping         CNVDamp         .... on
   Fraction old density DampFac         ....    0.7000
   Max. Damping (<1)    DampMax         ....    0.9800
   Min. Damping (>=0)   DampMin         ....    0.0000
   Turn off err/grad.   DampErr         ....    0.1000

SCF Procedure:
 Maximum # iterations   MaxIter         ....   125
 SCF integral mode      SCFMode         .... Direct
   Integral package                     .... SHARK and LIBINT hybrid scheme
 Reset frequency        DirectResetFreq ....    20
 Integral Threshold     Thresh          ....  1.000e-10 Eh
 Primitive CutOff       TCut            ....  1.000e-11 Eh

Convergence Tolerance:
 Convergence Check Mode ConvCheckMode   .... Total+1el-Energy
 Convergence forced     ConvForced      .... 0
 Energy Change          TolE            ....  1.000e-06 Eh
 1-El. energy change                    ....  1.000e-03 Eh
 Orbital Gradient       TolG            ....  3.330e-04
 Orbital Rotation angle TolX            ....  3.330e-04
 DIIS Error             TolErr          ....  1.000e-06

---------------------
INITIAL GUESS: MOREAD
---------------------
Guess MOs are being read from file: sp_solv.ges
Input Geometry matches current geometry (good)
Atom 0: N(Shells)= 9 and 6 - projection required
Input basis set needs projection
NBasis(read)= 62
NBasis(calc)= 99
Basis set overlap was calculated
Using GuessMode=FMatrix for the initial guess
C*T matrix was formed
Effective Fockian was calculated
Effective Fockian was diagonalized
Initial density was built
                      ------------------
                      INITIAL GUESS DONE (   0.0 sec)
                      ------------------
             **** ENERGY FILE WAS UPDATED (sp_solv.en.tmp) ****
Finished Guess after   0.2 sec
Maximum memory used throughout the entire GUESS-calculation: 7.6 MB

-------------------------------------------------------------------------------------------
                                      ORCA LEAN-SCF
                              memory conserving SCF solver
-------------------------------------------------------------------------------------------

--------------------
CPCM SOLVATION MODEL
--------------------
CPCM parameters:
  Epsilon                                         ...      78.3550
  Refrac                                          ...       1.3328
  Rsolv                                           ...       1.3000
  Surface type                                    ... GAUSSIAN VDW
  Discretization scheme                           ... Constant charge density
    Threshold for H atoms                         ...       5.0000 (charges/Ang^2)
    Threshold for non-H atoms                     ...       5.0000 (charges/Ang^2)
  Epsilon function type                           ...         CPCM
Solvent:                                          ... WATER
SMD-CDS solvent descriptors:
  Soln                                            ...       1.3328
  Soln25                                          ...       1.3323
  Sola                                            ...       0.0000
  Solb                                            ...       0.0000
  Solg                                            ...       0.0000
  Solc                                            ...       0.0000
  Solh                                            ...       0.0000
Radii:
  Scheme                                          ... Element-dependent radii
  Radius for C  used is    3.4960 Bohr (=   1.8500 Ang.)
  Radius for F  used is    3.2692 Bohr (=   1.7300 Ang.)
  Radius for Cl used is    4.4975 Bohr (=   2.3800 Ang.)
  Radius for H  used is    2.2677 Bohr (=   1.2000 Ang.)
Calculating surface                               ...        done! (  0.0s)
Cavity surface points                             ...          617
Cavity Volume                                     ...     592.9886
Cavity Surface-area                               ...     372.0162
Calculating surface distance matrix               ...        done! (  0.0s)
Performing Cholesky decomposition & store         ...        done! (  0.0s)
Overall time for CPCM initialization              ...                 0.0s

----------------------------------------D-I-I-S--------------------------------------------
Iteration    Energy (Eh)           Delta-E    RMSDP     MaxDP     DIISErr   Damp  Time(sec)
-------------------------------------------------------------------------------------------
               ***  Starting incremental Fock matrix formation  ***
    1    -698.4316074478203973     0.00e+00  3.05e-03  7.98e-02  8.36e-01  0.700   0.6
    2    -698.4728074421278734    -4.12e-02  2.45e-03  5.72e-02  5.88e-01  0.700   0.6
    3    -698.5018323373782323    -2.90e-02  1.79e-03  3.98e-02  4.13e-01  0.700   0.6
    4    -698.5222152017747703    -2.04e-02  1.28e-03  2.77e-02  2.89e-01  0.700   0.6
    5    -698.5365137148860413    -1.43e-02  9.08e-04  1.94e-02  2.02e-01  0.700   0.6
                               ***Turning on AO-DIIS***
    6    -698.5465376485607294    -1.00e-02  6.56e-04  1.39e-02  1.42e-01  0.700   0.6
    7    -698.5535621830892978    -7.02e-03  4.63e-04  9.63e-03  9.92e-02  0.700   0.6
    8    -698.5584841164290992    -4.92e-03  1.09e-03  2.23e-02  6.95e-02  0.000   0.7
                              *** Initializing SOSCF ***
---------------------------------------S-O-S-C-F--------------------------------------
Iteration    Energy (Eh)           Delta-E    RMSDP     MaxDP     MaxGrad    Time(sec)
--------------------------------------------------------------------------------------
    9    -698.5699843004384775    -1.15e-02  1.28e-05  1.62e-04  2.41e-04     0.6
               *** Restarting incremental Fock matrix formation ***
   10    -698.5699843101040187    -9.67e-09  1.41e-05  1.93e-04  1.18e-04     0.6
   11    -698.5699840091707529     3.01e-07  8.69e-06  1.18e-04  2.01e-04     0.5
                 **** Energy Check signals convergence ****

               *****************************************************
               *                     SUCCESS                       *
               *           SCF CONVERGED AFTER  11 CYCLES          *
               *****************************************************


SMD CDS free energy correction energy :                 2.89799     Kcal/mol
Total Energy after SMD CDS correction =              -698.565365764 Eh
             **** ENERGY FILE WAS UPDATED (sp_solv.en.tmp) ****

----------------
TOTAL SCF ENERGY
----------------

Total Energy       :       -698.56536576418557 Eh          -19008.93000 eV

Components:
Nuclear Repulsion  :        167.58387360522411 Eh            4560.18904 eV
Electronic Energy  :       -866.14749976750727 Eh          -23569.07170 eV
One Electron Energy:      -1298.95941962916481 Eh          -35346.48279 eV
Two Electron Energy:        432.81191986165760 Eh           11777.41109 eV
CPCM Dielectric    :         -0.00635784688765 Eh              -0.17301 eV
SMD CDS (Gcds)     :          0.00461824498516 Eh               0.12567 eV

Virial components:
Potential Energy   :      -1395.31815646692939 Eh          -37968.53732 eV
Kinetic Energy     :        696.75279070274371 Eh           18959.60732 eV
Virial Ratio       :          2.00260146078441

DFT components:
N(Alpha)           :       21.000015815032 electrons
N(Beta)            :       21.000015815032 electrons
N(Total)           :       42.000031630064 electrons
E(X)               :      -53.332322877987 Eh       
E(C)               :       -1.516151086768 Eh       
E(XC)              :      -54.848473964755 Eh       

CPCM Solvation Model Properties:
Surface-charge          :         -0.00685230773882
Corrected charge        :         -0.00000000000000
Outlying charge corr.   :          0.00000432093823 Eh               0.00012 eV
Free-energy (cav+disp)  :          0.00461824498516 Eh               0.12567 eV

---------------
SCF CONVERGENCE
---------------

  Last Energy change         ...   -3.0093e-07  Tolerance :   1.0000e-06
  Last MAX-Density change    ...    1.1837e-04  Tolerance :   1.0000e-05
  Last RMS-Density change    ...    8.6920e-06  Tolerance :   1.0000e-06
  Last DIIS Error            ...    2.4130e-04  Tolerance :   1.0000e-06
  Last Orbital Gradient      ...    2.0138e-04  Tolerance :   3.3300e-04
  Last Orbital Rotation      ...    1.1893e-04  Tolerance :   3.3300e-04


----------------
ORBITAL ENERGIES
----------------

  NO   OCC          E(Eh)            E(eV) 
   0   2.0000    -101.234002     -2754.7172 
   1   2.0000     -24.525149      -667.3632 
   2   2.0000     -24.525140      -667.3630 
   3   2.0000     -10.258725      -279.1541 
   4   2.0000      -9.390550      -255.5299 
   5   2.0000      -7.136752      -194.2009 
   6   2.0000      -7.126630      -193.9255 
   7   2.0000      -7.126464      -193.9210 
   8   2.0000      -1.255111       -34.1533 
   9   2.0000      -1.191244       -32.4154 
  10   2.0000      -0.837285       -22.7837 
  11   2.0000      -0.661909       -18.0115 
  12   2.0000      -0.546032       -14.8583 
  13   2.0000      -0.545158       -14.8345 
  14   2.0000      -0.510426       -13.8894 
  15   2.0000      -0.413352       -11.2479 
  16   2.0000      -0.408917       -11.1272 
  17   2.0000      -0.389926       -10.6104 
  18   2.0000      -0.344762        -9.3814 
  19   2.0000      -0.309742        -8.4285 
  20   2.0000      -0.307758        -8.3745 
  21   0.0000      -0.011900        -0.3238 
  22   0.0000       0.072384         1.9697 
  23   0.0000       0.098237         2.6732 
  24   0.0000       0.128575         3.4987 
  25   0.0000       0.165218         4.4958 
  26   0.0000       0.233529         6.3546 
  27   0.0000       0.258616         7.0373 
  28   0.0000       0.267720         7.2850 
  29   0.0000       0.346068         9.4170 
  30   0.0000       0.360461         9.8086 
  31   0.0000       0.361257         9.8303 
*Only the first 10 virtual orbitals were printed.

                    ********************************
                    * MULLIKEN POPULATION ANALYSIS *
                    ********************************

-----------------------
MULLIKEN ATOMIC CHARGES
-----------------------
   0 C :    0.319106
   1 F :   -0.197208
   2 F :   -0.197197
   3 Cl:   -0.120783
   4 H :    0.196082
Sum of atomic charges:    0.0000000

--------------------------------
MULLIKEN REDUCED ORBITAL CHARGES
--------------------------------
  0 C s       :     3.180669  s :     3.180669
      pz      :     1.006411  p :     2.383632
      px      :     0.736617
      py      :     0.640604
      dz2     :     0.024469  d :     0.116593
      dxz     :     0.012970
      dyz     :     0.022489
      dx2y2   :     0.029269
      dxy     :     0.027397

  1 F s       :     3.915313  s :     3.915313
      pz      :     1.855022  p :     5.270556
      px      :     1.805290
      py      :     1.610244
      dz2     :     0.001753  d :     0.011338
      dxz     :     0.001137
      dyz     :     0.003724
      dx2y2   :     0.004075
      dxy     :     0.000650

  2 F s       :     3.915314  s :     3.915314
      pz      :     1.855032  p :     5.270545
      px      :     1.805074
      py      :     1.610439
      dz2     :     0.001754  d :     0.011339
      dxz     :     0.001138
      dyz     :     0.003723
      dx2y2   :     0.004071
      dxy     :     0.000654

  3 Cls       :     5.937143  s :     5.937143
      pz      :     3.902576  p :    11.144687
      px      :     3.296202
      py      :     3.945909
      dz2     :     0.005846  d :     0.038953
      dxz     :     0.010337
      dyz     :     0.000735
      dx2y2   :     0.014754
      dxy     :     0.007282

  4 H s       :     0.786566  s :     0.786566
      pz      :     0.014085  p :     0.017352
      px      :     0.001957
      py      :     0.001310


------------------------
MULLIKEN OVERLAP CHARGES
------------------------
B(  0-C ,  1-F ) :   0.3978 B(  0-C ,  2-F ) :   0.3978 B(  0-C ,  3-Cl) :   0.6742 
B(  0-C ,  4-H ) :   0.8780 B(  1-F ,  2-F ) :  -0.1256 B(  1-F ,  3-Cl) :  -0.1505 
B(  1-F ,  4-H ) :  -0.0890 B(  2-F ,  3-Cl) :  -0.1504 B(  2-F ,  4-H ) :  -0.0890 
B(  3-Cl,  4-H ) :  -0.1064 


                     *******************************
                     * LOEWDIN POPULATION ANALYSIS *
                     *******************************

----------------------
LOEWDIN ATOMIC CHARGES
----------------------
   0 C :    0.248590
   1 F :   -0.272292
   2 F :   -0.272262
   3 Cl:    0.106031
   4 H :    0.189933

-------------------------------
LOEWDIN REDUCED ORBITAL CHARGES
-------------------------------
  0 C s       :     2.854550  s :     2.854550
      pz      :     0.999404  p :     2.638566
      px      :     0.883966
      py      :     0.755196
      dz2     :     0.058314  d :     0.258294
      dxz     :     0.023859
      dyz     :     0.048926
      dx2y2   :     0.065779
      dxy     :     0.061416

  1 F s       :     3.752729  s :     3.752729
      pz      :     1.866922  p :     5.361864
      px      :     1.824856
      py      :     1.670085
      dz2     :     0.030774  d :     0.157700
      dxz     :     0.014579
      dyz     :     0.035004
      dx2y2   :     0.041535
      dxy     :     0.035809

  2 F s       :     3.752724  s :     3.752724
      pz      :     1.866936  p :     5.361853
      px      :     1.824698
      py      :     1.670219
      dz2     :     0.030773  d :     0.157685
      dxz     :     0.014593
      dyz     :     0.034992
      dx2y2   :     0.041530
      dxy     :     0.035797

  3 Cls       :     5.700584  s :     5.700584
      pz      :     3.884345  p :    11.108525
      px      :     3.326886
      py      :     3.897294
      dz2     :     0.012261  d :     0.084859
      dxz     :     0.022254
      dyz     :     0.001353
      dx2y2   :     0.034267
      dxy     :     0.014724

  4 H s       :     0.768028  s :     0.768028
      pz      :     0.032708  p :     0.042038
      px      :     0.005449
      py      :     0.003881


---------------------------------
LOEWDIN BOND ORDERS (THRESH 0.050000)
---------------------------------
B(  0-C ,  1-F ) :   1.3513 B(  0-C ,  2-F ) :   1.3513 B(  0-C ,  3-Cl) :   1.3339 
B(  0-C ,  4-H ) :   0.7964 B(  1-F ,  2-F ) :   0.2451 B(  1-F ,  3-Cl) :   0.1886 
B(  1-F ,  4-H ) :   0.0768 B(  2-F ,  3-Cl) :   0.1885 B(  2-F ,  4-H ) :   0.0769 


------------------------------------------
LOEWDIN REDUCED ORBITAL POPULATIONS PER MO
-------------------------------------------
THRESHOLD FOR PRINTING IS 0.1%%
                      0         1         2         3         4         5   
                 -101.23400 -24.52515 -24.52514 -10.25872  -9.39055  -7.13675
                   2.00000   2.00000   2.00000   2.00000   2.00000   2.00000
                  --------  --------  --------  --------  --------  --------
 0 C  s               0.0       0.0       0.0      98.8       0.0       0.0
 0 C  px              0.0       0.0       0.0       0.0       0.1       0.0
 1 F  s               0.0       0.4      99.6       0.0       0.0       0.0
 1 F  dyz             0.0       0.0       0.0       0.1       0.0       0.0
 1 F  dxy             0.0       0.0       0.0       0.1       0.0       0.0
 2 F  s               0.0      99.6       0.4       0.0       0.0       0.0
 2 F  dyz             0.0       0.0       0.0       0.1       0.0       0.0
 2 F  dxy             0.0       0.0       0.0       0.1       0.0       0.0
 3 Cl s             100.0       0.0       0.0       0.0      99.8       0.0
 3 Cl pz              0.0       0.0       0.0       0.0       0.0       7.0
 3 Cl px              0.0       0.0       0.0       0.0       0.0      93.0

                      6         7         8         9        10        11   
                  -7.12663  -7.12646  -1.25511  -1.19124  -0.83728  -0.66191
                   2.00000   2.00000   2.00000   2.00000   2.00000   2.00000
                  --------  --------  --------  --------  --------  --------
 0 C  s               0.0       0.0      14.0       0.0       9.6      15.1
 0 C  pz              0.0       0.0       3.2       0.0       0.1       3.6
 0 C  px              0.0       0.0       3.2       0.0      15.8       1.6
 0 C  py              0.0       0.0       0.0      15.8       0.0       0.0
 0 C  dz2             0.0       0.0       0.2       0.0       0.0       0.1
 0 C  dxz             0.0       0.0       0.2       0.0       0.2       0.0
 0 C  dyz             0.0       0.0       0.0       1.0       0.0       0.0
 0 C  dx2y2           0.0       0.0       0.4       0.0       0.5       0.0
 0 C  dxy             0.0       0.0       0.0       1.2       0.0       0.0
 1 F  s               0.0       0.0      35.6      40.1       1.6       5.6
 1 F  pz              0.0       0.0       0.2       0.1       0.2       4.9
 1 F  px              0.0       0.0       0.3       0.2       1.0       2.4
 1 F  py              0.0       0.0       1.6       0.4       0.7      13.0
 1 F  dz2             0.0       0.0       0.1       0.0       0.1       0.0
 1 F  dxz             0.0       0.0       0.0       0.0       0.0       0.1
 1 F  dyz             0.0       0.0       0.1       0.0       0.1       0.7
 1 F  dx2y2           0.0       0.0       0.3       0.1       0.1       0.3
 1 F  dxy             0.0       0.0       0.1       0.0       0.4       0.3
 2 F  s               0.0       0.0      35.6      40.1       1.6       5.6
 2 F  pz              0.0       0.0       0.2       0.1       0.2       4.9
 2 F  px              0.0       0.0       0.3       0.2       1.0       2.4
 2 F  py              0.0       0.0       1.6       0.4       0.7      13.0
 2 F  dz2             0.0       0.0       0.1       0.0       0.1       0.0
 2 F  dxz             0.0       0.0       0.0       0.0       0.0       0.1
 2 F  dyz             0.0       0.0       0.1       0.0       0.1       0.7
 2 F  dx2y2           0.0       0.0       0.3       0.1       0.1       0.3
 2 F  dxy             0.0       0.0       0.1       0.0       0.4       0.3
 3 Cl s               0.0       0.0       0.3       0.0      61.8      12.7
 3 Cl pz              0.0      93.0       0.0       0.0       0.1       0.5
 3 Cl px              0.0       7.0       0.9       0.0       1.6       3.6
 3 Cl py            100.0       0.0       0.0       0.0       0.0       0.0
 3 Cl dxz             0.0       0.0       0.0       0.0       0.1       0.2
 3 Cl dx2y2           0.0       0.0       0.1       0.0       0.3       0.5
 4 H  s               0.0       0.0       0.8       0.0       1.2       6.7
 4 H  pz              0.0       0.0       0.1       0.0       0.1       0.7

                     12        13        14        15        16        17   
                  -0.54603  -0.54516  -0.51043  -0.41335  -0.40892  -0.38993
                   2.00000   2.00000   2.00000   2.00000   2.00000   2.00000
                  --------  --------  --------  --------  --------  --------
 0 C  s               0.0       1.9       0.7       0.0       1.3       0.0
 0 C  pz              0.0      31.8       0.9       0.0       1.4       0.0
 0 C  px              0.0       0.5      17.3       0.0       2.8       0.0
 0 C  py             18.1       0.0       0.0       0.1       0.0       2.0
 0 C  dz2             0.0       0.0       0.0       0.0       0.4       0.0
 0 C  dxz             0.0       0.1       0.1       0.0       0.0       0.0
 0 C  dyz             0.2       0.0       0.0       0.6       0.0       0.6
 0 C  dx2y2           0.0       0.0       0.1       0.0       2.0       0.0
 0 C  dxy             0.1       0.0       0.0       0.9       0.0       0.5
 1 F  s               3.4       0.9       0.1       0.0       0.1       0.1
 1 F  pz              9.3       6.7       3.2      24.9      14.4      11.5
 1 F  px             13.6       1.8      11.8      21.5      19.8       5.6
 1 F  py             13.2      14.1       6.8       0.6       2.6      29.8
 1 F  dz2             0.0       0.5       0.0       0.0       0.0       0.1
 1 F  dxz             0.1       0.2       0.0       0.0       0.1       0.0
 1 F  dyz             0.1       0.4       0.1       0.0       0.0       0.0
 1 F  dx2y2           0.1       0.1       0.3       0.0       0.0       0.2
 1 F  dxy             0.1       0.1       0.5       0.0       0.0       0.0
 2 F  s               3.3       0.9       0.1       0.0       0.1       0.1
 2 F  pz              9.4       6.6       3.2      24.9      14.4      11.5
 2 F  px             13.6       1.9      11.8      21.5      19.8       5.6
 2 F  py             13.0      14.3       6.8       0.6       2.6      29.8
 2 F  dz2             0.0       0.5       0.0       0.0       0.0       0.1
 2 F  dxz             0.1       0.2       0.0       0.0       0.1       0.0
 2 F  dyz             0.1       0.4       0.1       0.0       0.0       0.0
 2 F  dx2y2           0.1       0.1       0.3       0.0       0.0       0.2
 2 F  dxy             0.1       0.1       0.5       0.0       0.0       0.0
 3 Cl s               0.0       0.0       9.6       0.0       0.6       0.0
 3 Cl pz              0.0       2.4       0.9       0.0       4.8       0.0
 3 Cl px              0.0       0.0      23.4       0.0       9.2       0.0
 3 Cl py              1.3       0.0       0.0       3.9       0.0       2.0
 3 Cl dz2             0.0       0.1       0.2       0.0       0.1       0.0
 3 Cl dxz             0.0       0.5       0.1       0.0       0.2       0.0
 3 Cl dx2y2           0.0       0.0       0.7       0.0       0.1       0.0
 3 Cl dxy             0.4       0.0       0.0       0.3       0.0       0.0
 4 H  s               0.0      12.2       0.1       0.0       2.8       0.0
 4 H  pz              0.0       0.7       0.0       0.0       0.0       0.0
 4 H  px              0.0       0.0       0.1       0.0       0.1       0.0
 4 H  py              0.2       0.0       0.0       0.0       0.0       0.0

                     18        19        20        21        22        23   
                  -0.34476  -0.30974  -0.30776  -0.01190   0.07238   0.09824
                   2.00000   2.00000   2.00000   0.00000   0.00000   0.00000
                  --------  --------  --------  --------  --------  --------
 0 C  s               0.6       0.0       0.6       8.4       0.0      18.9
 0 C  pz              7.1       0.0       1.9       1.7       0.0      14.7
 0 C  px              2.1       0.0       0.7      22.9       0.0      18.2
 0 C  py              0.0       1.7       0.0       0.0      49.5       0.0
 0 C  dz2             1.6       0.0       0.6       0.0       0.0       1.1
 0 C  dxz             0.1       0.0       0.4       0.2       0.0       2.4
 0 C  dyz             0.0       0.0       0.0       0.0       2.5       0.0
 0 C  dx2y2           0.4       0.0       0.0       0.1       0.0       0.5
 0 C  dxy             0.0       0.2       0.0       0.0       3.0       0.0
 1 F  s               0.0       0.1       0.1       0.1       3.4       5.2
 1 F  pz             17.2       0.0       0.6       0.1       3.3       0.1
 1 F  px              8.2       4.6       0.3       2.1       3.1       0.4
 1 F  py              0.0       0.2       0.3       0.2       1.2       5.3
 1 F  dz2             0.5       0.0       0.0       0.4       0.3       0.1
 1 F  dxz             0.0       0.0       0.0       0.6       1.4       1.1
 1 F  dyz             0.1       0.0       0.1       0.1       0.4       0.0
 1 F  dx2y2           0.2       0.2       0.0       0.0       0.3       0.3
 1 F  dxy             0.1       0.0       0.0       1.6       0.5       0.4
 2 F  s               0.0       0.1       0.1       0.1       3.4       5.2
 2 F  pz             17.2       0.0       0.6       0.1       3.3       0.1
 2 F  px              8.2       4.6       0.3       2.1       3.1       0.4
 2 F  py              0.0       0.2       0.3       0.2       1.2       5.3
 2 F  dz2             0.5       0.0       0.0       0.4       0.3       0.1
 2 F  dxz             0.0       0.0       0.0       0.6       1.4       1.1
 2 F  dyz             0.1       0.0       0.1       0.1       0.4       0.0
 2 F  dx2y2           0.2       0.2       0.0       0.0       0.3       0.3
 2 F  dxy             0.1       0.0       0.0       1.6       0.5       0.4
 3 Cl s               0.2       0.0       0.0       4.0       0.0       0.7
 3 Cl pz              0.4       0.0      85.1       2.0       0.0       1.5
 3 Cl px             24.1       0.0       3.5      28.1       0.0       0.6
 3 Cl py              0.0      87.6       0.0       0.0       3.5       0.0
 3 Cl dz2             0.0       0.0       0.0       2.7       0.0       1.8
 3 Cl dxz             0.0       0.0       0.0       4.3       0.0       7.1
 3 Cl dyz             0.0       0.0       0.0       0.0       2.6       0.0
 3 Cl dx2y2           0.1       0.0       0.0      13.1       0.0       1.4
 3 Cl dxy             0.0       0.0       0.0       0.0       8.5       0.0
 4 H  s              10.5       0.0       4.1       1.1       0.0       3.2
 4 H  pz              0.1       0.0       0.0       0.1       0.0       0.5
 4 H  px              0.0       0.0       0.0       0.8       0.0       1.6
 4 H  py              0.0       0.0       0.0       0.0       2.7       0.0

                     24        25        26        27        28        29   
                   0.12858   0.16522   0.23353   0.25862   0.26772   0.34607
                   0.00000   0.00000   0.00000   0.00000   0.00000   0.00000
                  --------  --------  --------  --------  --------  --------
 0 C  s              25.7      17.1      12.4       0.0       6.2       1.1
 0 C  pz             19.1      34.4       4.5       0.0      24.2       1.0
 0 C  px             11.8      16.5      33.4       0.0      10.6       0.3
 0 C  py              0.0       0.0       0.0      64.0       0.0       0.0
 0 C  dz2             0.3       0.3       2.0       0.0       0.4       0.2
 0 C  dxz             0.5       0.2       0.3       0.0       0.0       0.9
 0 C  dx2y2           0.4       0.0       0.1       0.0       0.6       0.2
 0 C  dxy             0.0       0.0       0.0       1.5       0.0       0.0
 1 F  s               0.1       1.3       0.3       0.4       0.8       1.0
 1 F  pz              0.8       1.4       0.5       0.6       6.6       0.7
 1 F  px              0.1       0.3       4.5       1.0       0.2       0.3
 1 F  py              2.4       0.3       2.5       4.2       2.2       0.8
 1 F  dz2             0.0       0.2       0.2       0.6       1.8       0.0
 1 F  dxz             0.1       0.1       0.0       0.5       0.3       0.3
 1 F  dyz             3.7       0.0       0.2       1.1       1.8       0.5
 1 F  dx2y2           0.7       0.0       2.4       0.2       1.2       0.4
 1 F  dxy             0.3       0.6       3.1       1.7       0.0       0.1
 2 F  s               0.1       1.3       0.3       0.4       0.8       1.0
 2 F  pz              0.8       1.4       0.5       0.6       6.6       0.7
 2 F  px              0.1       0.3       4.5       1.0       0.2       0.3
 2 F  py              2.4       0.3       2.5       4.1       2.2       0.8
 2 F  dz2             0.0       0.1       0.2       0.6       1.8       0.0
 2 F  dxz             0.1       0.1       0.0       0.5       0.3       0.3
 2 F  dyz             3.7       0.0       0.2       1.1       1.8       0.5
 2 F  dx2y2           0.7       0.0       2.4       0.2       1.2       0.4
 2 F  dxy             0.3       0.6       3.1       1.7       0.0       0.1
 3 Cl s               4.2       7.4       0.8       0.0       0.5       2.0
 3 Cl pz              0.8       0.9       0.7       0.0       2.3       1.5
 3 Cl px              1.1       1.9       0.3       0.0       1.7      73.7
 3 Cl py              0.0       0.0       0.0       9.9       0.0       0.0
 3 Cl dz2             1.3       1.0       0.4       0.0       0.1       6.9
 3 Cl dxz             0.0       0.1       8.6       0.0       7.5       1.2
 3 Cl dyz             0.0       0.0       0.0       0.2       0.0       0.0
 3 Cl dx2y2           1.0       3.1       0.6       0.0       3.2       1.3
 3 Cl dxy             0.0       0.0       0.0       3.8       0.0       0.0
 4 H  s              12.0       5.2       7.0       0.0      11.3       0.5
 4 H  pz              5.0       2.9       1.3       0.0       1.5       0.0
 4 H  px              0.5       0.5       0.1       0.0       0.0       0.7
 4 H  py              0.0       0.0       0.0       0.2       0.0       0.0

                     30        31        32        33        34        35   
                   0.36046   0.36126   0.37858   0.39035   0.43828   0.47388
                   0.00000   0.00000   0.00000   0.00000   0.00000   0.00000
                  --------  --------  --------  --------  --------  --------
 0 C  s               0.1       0.0       0.0       0.6       0.0       1.1
 0 C  pz              1.4       0.0       0.0       0.9       0.0       6.1
 0 C  px              0.6       0.0       0.0       0.4       0.0       0.9
 0 C  py              0.0       9.3       3.9       0.0       3.6       0.0
 0 C  dxz             0.1       0.0       0.0       0.1       0.0       0.4
 0 C  dyz             0.0       1.3       0.0       0.0       0.4       0.0
 0 C  dx2y2           0.6       0.0       0.0       0.1       0.0       0.3
 0 C  dxy             0.0       0.1       0.0       0.0       0.7       0.0
 1 F  s               0.0       0.1       1.0       0.0       0.8       0.3
 1 F  pz              0.0       0.9       2.3       0.0       0.7       7.9
 1 F  px              0.2       0.9       0.8       3.2       6.9       6.4
 1 F  py              0.4       0.7       0.6       0.4       1.4       0.5
 1 F  dz2             0.0       0.2       0.1       0.1       1.8       0.2
 1 F  dxz             0.4       1.5       0.2       0.0       0.0       3.7
 1 F  dyz             0.1       0.6       0.6       0.0       0.0       0.0
 1 F  dx2y2           1.1       0.8       0.2       0.1       0.6       1.3
 1 F  dxy             0.2       0.2       0.0       0.0       1.1       0.1
 2 F  s               0.0       0.1       1.0       0.0       0.8       0.3
 2 F  pz              0.0       0.9       2.3       0.0       0.7       7.9
 2 F  px              0.2       0.9       0.8       3.2       6.9       6.4
 2 F  py              0.4       0.7       0.6       0.4       1.4       0.5
 2 F  dz2             0.0       0.2       0.1       0.1       1.8       0.2
 2 F  dxz             0.4       1.5       0.2       0.0       0.0       3.7
 2 F  dyz             0.1       0.6       0.6       0.0       0.0       0.0
 2 F  dx2y2           1.1       0.8       0.2       0.1       0.6       1.3
 2 F  dxy             0.2       0.2       0.0       0.0       1.1       0.1
 3 Cl s               0.0       0.0       0.0       0.0       0.0       1.8
 3 Cl pz             53.7       0.0       0.0      18.4       0.0       9.6
 3 Cl px              0.6       0.0       0.0       3.4       0.0       5.8
 3 Cl py              0.0      15.0      33.1       0.0      31.4       0.0
 3 Cl dz2            21.0       0.0       0.0      43.4       0.0       0.9
 3 Cl dxz            13.9       0.0       0.0       3.3       0.0      23.2
 3 Cl dyz             0.0      15.1      50.9       0.0      19.7       0.0
 3 Cl dx2y2           1.7       0.0       0.0      19.1       0.0       1.8
 3 Cl dxy             0.0      47.2       0.5       0.0      16.2       0.0
 4 H  s               0.9       0.0       0.0       2.1       0.0       5.2
 4 H  pz              0.4       0.0       0.0       0.6       0.0       2.2
 4 H  px              0.1       0.0       0.0       0.2       0.0       0.1
 4 H  py              0.0       0.3       0.0       0.0       1.1       0.0

                     36        37        38        39        40        41   
                   0.51750   0.53648   0.58500   0.65663   0.66612   0.69030
                   0.00000   0.00000   0.00000   0.00000   0.00000   0.00000
                  --------  --------  --------  --------  --------  --------
 0 C  s               0.0       0.6       3.8       0.0       0.3       0.7
 0 C  pz              0.0       0.5       0.9       0.0       0.3       1.3
 0 C  px              0.0       0.2       5.7       0.0       1.3       2.3
 0 C  py              0.1       0.0       0.0       0.5       0.0       0.0
 0 C  dz2             0.0       0.0       0.9       0.0       1.0       0.3
 0 C  dxz             0.0       0.1       0.1       0.0       0.1       0.2
 0 C  dyz             0.8       0.0       0.0       0.6       0.0       0.0
 0 C  dx2y2           0.0       0.0       1.2       0.0       0.7       0.0
 0 C  dxy             0.0       0.0       0.0       0.4       0.0       0.0
 1 F  s               3.4       0.4       0.1       0.3       0.0       1.7
 1 F  pz             18.4       0.1       0.4       8.5       1.1       0.3
 1 F  px              5.3       0.1       4.8      18.1       0.2       7.0
 1 F  py             14.6      37.8       2.3       0.1       0.3       0.6
 1 F  dz2             1.1       0.1       3.1       4.0       9.0       7.8
 1 F  dxz             0.0       0.0       0.0       0.9       2.0       7.8
 1 F  dyz             1.2       0.2       1.0       2.7      19.9       4.8
 1 F  dx2y2           0.0       1.8       1.0       5.9       4.2       0.0
 1 F  dxy             0.5       1.0       6.8       4.6       6.6       3.3
 2 F  s               3.4       0.4       0.1       0.2       0.0       1.7
 2 F  pz             18.4       0.1       0.4       8.5       1.1       0.3
 2 F  px              5.3       0.1       4.8      18.1       0.2       7.0
 2 F  py             14.6      37.8       2.3       0.1       0.3       0.5
 2 F  dz2             1.1       0.1       3.1       4.0       9.0       8.0
 2 F  dxz             0.0       0.0       0.0       0.9       2.0       7.9
 2 F  dyz             1.2       0.3       1.0       2.7      19.9       4.8
 2 F  dx2y2           0.0       1.8       1.0       5.9       4.2       0.0
 2 F  dxy             0.5       1.0       6.8       4.6       6.6       3.3
 3 Cl s               0.0       3.4       3.8       0.0       1.3       2.4
 3 Cl pz              0.0       0.5       0.4       0.0       0.0       8.1
 3 Cl px              0.0       0.5       1.8       0.0       2.2       0.2
 3 Cl py              0.0       0.0       0.0       5.1       0.0       0.0
 3 Cl dz2             0.0       0.6       6.3       0.0       0.1       1.7
 3 Cl dxz             0.0       0.8       6.5       0.0       0.0      10.1
 3 Cl dyz             8.3       0.0       0.0       0.0       0.0       0.0
 3 Cl dx2y2           0.0       9.2      27.6       0.0       3.7       2.9
 3 Cl dxy             0.2       0.0       0.0       3.2       0.0       0.0
 4 H  s               0.0       0.5       2.1       0.0       1.5       1.6
 4 H  pz              0.0       0.0       0.0       0.0       1.0       0.0
 4 H  px              0.0       0.0       0.0       0.0       0.0       1.4
 4 H  py              1.6       0.0       0.0       0.2       0.0       0.0

                     42        43        44        45        46        47   
                   0.69263   0.71432   0.77397   0.80478   0.83744   0.89034
                   0.00000   0.00000   0.00000   0.00000   0.00000   0.00000
                  --------  --------  --------  --------  --------  --------
 0 C  s               0.0       2.6       1.9       0.0       0.6       0.0
 0 C  pz              0.0       9.8       1.1       0.0      10.2       0.0
 0 C  px              0.0       0.9       8.7       0.0       4.1       0.0
 0 C  py              1.7       0.0       0.0       3.6       0.0       4.5
 0 C  dz2             0.0       1.3       0.5       0.0       1.8       0.0
 0 C  dxz             0.0       0.3       0.1       0.0       3.2       0.0
 0 C  dyz             0.4       0.0       0.0       0.1       0.0       0.1
 0 C  dx2y2           0.0       0.9       0.6       0.0       1.6       0.0
 0 C  dxy             0.1       0.0       0.0       0.2       0.0       1.2
 1 F  s               0.0       0.3       0.1       4.8       0.0       6.3
 1 F  pz              7.6      11.3       0.5       1.9      11.7       0.0
 1 F  px              3.6       1.4      11.2       1.4       0.1       1.0
 1 F  py             13.1       0.6       0.2       0.7       0.2       0.3
 1 F  dz2            13.7       5.4       0.0       3.6       1.6       0.4
 1 F  dxz             0.2       5.1      12.4      33.5       8.0       1.7
 1 F  dyz             1.5       4.7       0.5       0.1       0.1       4.1
 1 F  dx2y2           8.6       1.9       1.7       0.0      10.6      16.2
 1 F  dxy             0.1       4.0       8.6       0.1       0.5      11.0
 2 F  s               0.0       0.3       0.1       4.8       0.0       6.3
 2 F  pz              7.6      11.3       0.5       1.9      11.7       0.0
 2 F  px              3.7       1.4      11.2       1.4       0.1       1.0
 2 F  py             13.1       0.6       0.2       0.7       0.2       0.3
 2 F  dz2            13.6       5.4       0.0       3.6       1.6       0.4
 2 F  dxz             0.2       5.1      12.4      33.5       8.0       1.7
 2 F  dyz             1.4       4.7       0.5       0.1       0.1       4.1
 2 F  dx2y2           8.6       1.9       1.7       0.0      10.6      16.2
 2 F  dxy             0.1       4.0       8.6       0.1       0.5      11.0
 3 Cl s               0.0       0.4       0.8       0.0       0.1       0.0
 3 Cl pz              0.0       3.1       0.2       0.0       0.3       0.0
 3 Cl px              0.0       0.1       1.4       0.0       0.2       0.0
 3 Cl py              0.1       0.0       0.0       0.1       0.0       1.9
 3 Cl dz2             0.0       1.9       6.5       0.0       0.9       0.0
 3 Cl dxz             0.0       3.7       3.4       0.0       1.9       0.0
 3 Cl dyz             0.2       0.0       0.0       3.7       0.0       0.1
 3 Cl dx2y2           0.0       0.1       2.2       0.0       1.7       0.0
 3 Cl dxy             0.2       0.0       0.0       0.1       0.0       9.7
 4 H  s               0.0       5.0       1.2       0.0       4.1       0.0
 4 H  pz              0.0       0.3       0.2       0.0       1.4       0.0
 4 H  px              0.0       0.0       0.7       0.0       2.4       0.0
 4 H  py              0.7       0.0       0.0       0.0       0.0       0.4

                     48        49        50        51        52        53   
                   0.91644   0.92706   0.96378   0.98736   1.04487   1.13386
                   0.00000   0.00000   0.00000   0.00000   0.00000   0.00000
                  --------  --------  --------  --------  --------  --------
 0 C  s               0.0       1.9      20.3       0.0       5.8       6.5
 0 C  pz              0.0       0.9       3.9       0.0       9.4       4.0
 0 C  px              0.0      10.2       1.5       0.0       2.3       2.3
 0 C  py             12.6       0.0       0.0       1.2       0.0       0.0
 0 C  dz2             0.0       2.8       0.1       0.0       5.4       0.2
 0 C  dxz             0.0       0.2       1.3       0.0       1.5       1.6
 0 C  dyz             2.8       0.0       0.0       4.2       0.0       0.0
 0 C  dx2y2           0.0       0.6       0.1       0.0       0.2       3.7
 0 C  dxy             0.2       0.0       0.0       2.4       0.0       0.0
 1 F  s               2.5       1.0      23.1       0.0       1.3       0.7
 1 F  pz              1.0       4.2       1.5       3.3       0.1       0.2
 1 F  px              0.8       5.2       0.0       3.3       0.2       1.9
 1 F  py              3.0       0.0       0.0       0.3       0.5       0.0
 1 F  dz2            15.6       6.0       2.6       1.1       2.2       3.5
 1 F  dxz             6.1       1.1       1.4       0.0       0.2       1.7
 1 F  dyz             3.5       1.8       0.4      22.6       1.1       0.6
 1 F  dx2y2           2.5       5.0       3.9       0.1       1.6       3.9
 1 F  dxy             0.2       2.1       0.5      13.2       2.1       0.5
 2 F  s               2.5       1.0      23.1       0.0       1.3       0.7
 2 F  pz              1.0       4.1       1.5       3.3       0.1       0.2
 2 F  px              0.9       5.2       0.0       3.3       0.2       1.9
 2 F  py              3.0       0.0       0.0       0.3       0.5       0.0
 2 F  dz2            15.6       5.9       2.6       1.1       2.2       3.5
 2 F  dxz             6.1       1.1       1.4       0.0       0.2       1.7
 2 F  dyz             3.5       1.8       0.4      22.6       1.1       0.6
 2 F  dx2y2           2.6       5.0       3.9       0.1       1.6       3.9
 2 F  dxy             0.3       2.1       0.5      13.2       2.1       0.5
 3 Cl s               0.0       7.1       2.6       0.0      25.0      30.4
 3 Cl pz              0.0       0.5       0.1       0.0       0.0       0.0
 3 Cl px              0.0       0.4       0.2       0.0       1.7       3.7
 3 Cl py              3.1       0.0       0.0       0.2       0.0       0.0
 3 Cl dz2             0.0       0.8       1.5       0.0       1.0       3.4
 3 Cl dxz             0.0       3.8       0.4       0.0       0.8       0.1
 3 Cl dyz             0.1       0.0       0.0       0.1       0.0       0.0
 3 Cl dx2y2           0.0       2.1       0.6       0.0       0.8       5.7
 3 Cl dxy            10.3       0.0       0.0       2.7       0.0       0.0
 4 H  s               0.0      14.8       0.2       0.0      27.8      10.7
 4 H  pz              0.0       0.7       0.0       0.0       0.2       0.0
 4 H  px              0.0       0.8       0.1       0.0       0.0       1.6
 4 H  py              0.0       0.0       0.0       1.2       0.0       0.0

                     54        55        56        57        58        59   
                   1.28543   1.29911   1.31130   1.44890   1.59845   1.60064
                   0.00000   0.00000   0.00000   0.00000   0.00000   0.00000
                  --------  --------  --------  --------  --------  --------
 0 C  s               0.0      15.7       0.0      19.9      15.2       0.0
 0 C  pz              0.0      14.6       0.0       3.1       0.4       0.0
 0 C  px              0.0      13.5       0.0      18.8       0.5       0.0
 0 C  py              8.7       0.0      32.0       0.0       0.0       6.7
 0 C  dz2             0.0       0.1       0.0       0.0       0.4       0.0
 0 C  dxz             0.0      13.9       0.0       4.6       0.7       0.0
 0 C  dyz             0.6       0.0       8.4       0.0       0.0       0.0
 0 C  dx2y2           0.0       3.3       0.0       0.1       0.0       0.0
 0 C  dxy             0.6       0.0      11.4       0.0       0.0       0.1
 1 F  s               2.3       4.9      11.8       2.3       1.3       6.9
 1 F  pz              3.2       0.6       0.4       0.3       0.0       0.6
 1 F  px              5.3       0.5       0.3       0.6       0.5       0.1
 1 F  py              2.6       1.4       2.9       2.2       0.2       2.5
 1 F  dz2             0.8       0.1       0.1       2.9       0.2       1.2
 1 F  dxz             2.3       0.1       1.1       1.2       0.1       0.2
 1 F  dyz             8.8       3.1       0.2       1.7       0.1       0.1
 1 F  dx2y2           4.6       0.3       1.3       2.9       0.1       2.0
 1 F  dxy            13.5       1.2       1.1       3.0       0.2       0.3
 2 F  s               2.2       4.8      11.9       2.3       1.3       6.8
 2 F  pz              3.2       0.6       0.4       0.3       0.0       0.6
 2 F  px              5.3       0.5       0.3       0.6       0.5       0.1
 2 F  py              2.6       1.4       2.9       2.2       0.2       2.5
 2 F  dz2             0.8       0.1       0.1       2.9       0.2       1.2
 2 F  dxz             2.3       0.1       1.1       1.2       0.1       0.2
 2 F  dyz             8.8       3.1       0.2       1.7       0.1       0.1
 2 F  dx2y2           4.6       0.3       1.3       2.9       0.1       2.0
 2 F  dxy            13.5       1.2       1.1       3.0       0.2       0.3
 3 Cl s               0.0       0.0       0.0       3.3       0.0       0.0
 3 Cl pz              0.0       0.3       0.0       0.1       0.0       0.0
 3 Cl px              0.0       0.2       0.0       1.0       0.6       0.0
 3 Cl py              0.2       0.0       0.4       0.0       0.0       0.4
 3 Cl dz2             0.0       0.5       0.0       1.9      44.3       0.0
 3 Cl dxz             0.0       1.3       0.0       2.3       0.3       0.0
 3 Cl dyz             0.0       0.0       0.4       0.0       0.0      63.5
 3 Cl dx2y2           0.0       1.8       0.0       1.4      28.4       0.0
 3 Cl dxy             3.3       0.0       0.9       0.0       0.0       0.1
 4 H  s               0.0       1.3       0.0       0.1       3.3       0.0
 4 H  pz              0.0       0.4       0.0       0.4       0.2       0.0
 4 H  px              0.0       8.8       0.0       8.9       0.1       0.0
 4 H  py              0.2       0.0       8.1       0.0       0.0       1.6

                     60        61        62        63        64        65   
                   1.62206   1.63798   1.66569   1.78938   1.82406   1.89253
                   0.00000   0.00000   0.00000   0.00000   0.00000   0.00000
                  --------  --------  --------  --------  --------  --------
 0 C  s               0.0      26.1       6.0       0.0       8.8       3.0
 0 C  pz              0.0       0.9       3.3       0.0       0.9      28.1
 0 C  px              0.0       0.3      11.4       0.0       0.6       2.4
 0 C  py             10.0       0.0       0.0       0.7       0.0       0.0
 0 C  dz2             0.0       0.0       0.1       0.0       2.2      23.1
 0 C  dxz             0.0       0.0       0.4       0.0       0.8       2.1
 0 C  dyz             0.9       0.0       0.0       4.9       0.0       0.0
 0 C  dx2y2           0.0       1.3       0.5       0.0       1.8      10.9
 0 C  dxy             0.5       0.0       0.0       1.3       0.0       0.0
 1 F  s               6.5       2.6       0.3       0.4       2.4       0.0
 1 F  pz              0.8       0.1       0.1       0.2       0.1       1.8
 1 F  px              0.2       0.3       0.3       1.0       0.5       0.4
 1 F  py              4.6       0.7       0.1       0.0       0.9       0.1
 1 F  dz2             4.3       0.2       0.0       0.2       0.3       0.2
 1 F  dxz             0.2       0.2       0.1       0.0       0.3       0.1
 1 F  dyz             0.2       0.3       0.1       0.3       0.1       1.7
 1 F  dx2y2           3.1       0.0       0.0       0.7       0.1       0.6
 1 F  dxy             0.7       0.5       0.1       0.1       0.4       0.5
 2 F  s               6.5       2.6       0.3       0.4       2.4       0.0
 2 F  pz              0.8       0.1       0.1       0.2       0.1       1.8
 2 F  px              0.2       0.3       0.3       1.0       0.5       0.4
 2 F  py              4.6       0.7       0.1       0.0       0.9       0.1
 2 F  dz2             4.3       0.2       0.0       0.2       0.3       0.2
 2 F  dxz             0.2       0.2       0.1       0.0       0.3       0.1
 2 F  dyz             0.2       0.3       0.1       0.3       0.1       1.7
 2 F  dx2y2           3.1       0.0       0.0       0.7       0.1       0.6
 2 F  dxy             0.7       0.5       0.1       0.1       0.4       0.5
 3 Cl s               0.0       0.5       4.4       0.0       1.2       0.7
 3 Cl pz              0.0       0.5       0.1       0.0       1.2       4.7
 3 Cl px              0.0       2.1       6.9       0.0       0.6       1.4
 3 Cl py              0.3       0.0       0.0       1.1       0.0       0.0
 3 Cl dz2             0.0       9.7       7.2       0.0      27.1       0.0
 3 Cl dxz             0.0      32.5      23.9       0.0      26.6       5.9
 3 Cl dyz            32.2       0.0       0.0       0.2       0.0       0.0
 3 Cl dx2y2           0.0       8.3      32.7       0.0      12.2       0.3
 3 Cl dxy             0.1       0.0       0.0      85.9       0.0       0.0
 4 H  s               0.0       7.8       0.0       0.0       1.6       0.7
 4 H  pz              0.0       0.0       0.0       0.0       0.1       0.4
 4 H  px              0.0       0.2       0.8       0.0       4.3       5.4
 4 H  py             14.8       0.0       0.0       0.0       0.0       0.0

                     66        67        68        69        70        71   
                   1.93367   2.04682   2.19405   2.27843   2.32758   2.35018
                   0.00000   0.00000   0.00000   0.00000   0.00000   0.00000
                  --------  --------  --------  --------  --------  --------
 0 C  s               0.0       2.0       2.2       3.2       0.0       2.5
 0 C  pz              0.0       4.4      11.0       0.6       0.0      14.9
 0 C  px              0.0       8.5       6.2      15.0       0.0       0.7
 0 C  py              6.2       0.0       0.0       0.0       0.5       0.0
 0 C  dz2             0.0       9.2       9.3       7.5       0.0       1.8
 0 C  dxz             0.0      25.9       1.6       3.0       0.0       7.0
 0 C  dyz            19.2       0.0       0.0       0.0       0.9       0.0
 0 C  dx2y2           0.0      26.3      10.8       2.6       0.0       7.2
 0 C  dxy            33.3       0.0       0.0       0.0       6.7       0.0
 1 F  s               0.1       0.3       0.1       0.7       0.3       0.5
 1 F  pz              0.9       1.0       0.3       0.5       0.3       0.2
 1 F  px              1.3       1.6       0.2       0.7       0.0       0.5
 1 F  py              0.7       0.2       0.2       1.8       0.2       2.9
 1 F  dz2             1.2       0.7       0.6       0.1       0.2       0.0
 1 F  dxz             0.1       1.6       0.1       0.2       0.0       0.2
 1 F  dyz             2.6       0.7       0.4       0.2       0.6       0.2
 1 F  dx2y2           2.8       3.1       0.2       0.0       0.5       0.1
 1 F  dxy             0.8       0.6       0.3       0.3       0.1       0.2
 2 F  s               0.1       0.3       0.1       0.7       0.3       0.5
 2 F  pz              0.9       1.0       0.3       0.5       0.3       0.2
 2 F  px              1.3       1.6       0.2       0.7       0.0       0.5
 2 F  py              0.7       0.2       0.2       1.8       0.2       2.9
 2 F  dz2             1.2       0.7       0.6       0.1       0.2       0.0
 2 F  dxz             0.1       1.6       0.1       0.2       0.0       0.2
 2 F  dyz             2.6       0.7       0.4       0.2       0.6       0.2
 2 F  dx2y2           2.8       3.1       0.2       0.0       0.5       0.1
 2 F  dxy             0.8       0.6       0.3       0.3       0.1       0.2
 3 Cl s               0.0       0.3       0.5       0.3       0.0       0.0
 3 Cl pz              0.0       0.2       1.5      40.0       0.0      33.0
 3 Cl px              0.0       0.2      19.1       2.1       0.0       4.1
 3 Cl py              3.9       0.0       0.0       0.0      84.5       0.0
 3 Cl dz2             0.0       2.1       0.7       1.2       0.0       0.0
 3 Cl dxz             0.0       0.3       3.6       0.2       0.0       0.3
 3 Cl dyz             2.1       0.0       0.0       0.0       0.0       0.0
 3 Cl dx2y2           0.0       0.3       6.2       2.0       0.0       0.2
 3 Cl dxy             4.0       0.0       0.0       0.0       0.6       0.0
 4 H  s               0.0       0.1       9.1       0.8       0.0       4.1
 4 H  pz              0.0       0.2      12.6       6.1       0.0      12.2
 4 H  px              0.0       0.1       0.8       6.7       0.0       2.4
 4 H  py             10.6       0.0       0.0       0.0       2.3       0.0

                     72        73        74        75        76        77   
                   2.43313   2.44540   2.48903   2.82793   3.20382   3.22644
                   0.00000   0.00000   0.00000   0.00000   0.00000   0.00000
                  --------  --------  --------  --------  --------  --------
 0 C  s               0.0       0.0       0.5       0.8       0.0       0.1
 0 C  pz              0.0       0.0       0.1       0.5       0.0       0.5
 0 C  px              0.0       0.0       5.3      11.8       0.0       0.7
 0 C  py              7.1      25.7       0.0       0.0       0.0       0.0
 0 C  dz2             0.0       0.0       0.6       0.2       0.0       0.5
 0 C  dxz             0.0       0.0      18.0       0.2       0.0       0.0
 0 C  dyz            37.3       1.6       0.0       0.0       0.0       0.0
 0 C  dx2y2           0.0       0.0       5.2       6.5       0.0       0.2
 0 C  dxy            11.9      10.0       0.0       0.0       0.0       0.0
 1 F  s               1.9       0.9       0.0       0.2       0.0       0.1
 1 F  pz              0.4       2.2       0.2       0.5      16.9       6.8
 1 F  px              1.7       0.3       0.9       0.7      20.8      13.5
[...]
 2 F  px              7.1       5.7       4.9       5.9       0.8       0.0
 2 F  py             18.8       0.6       0.0      11.5       0.1       0.3
 2 F  dz2             4.7       6.7      13.2       0.1       0.0       1.0
 2 F  dxz             0.1       0.5       0.6       0.1      28.4      46.9
 2 F  dyz             0.7      13.1       3.1      13.9      13.3       0.0
 2 F  dx2y2           6.3       0.7       2.3       1.5       0.0       1.1
 2 F  dxy             0.4       9.8       0.4      11.7       6.1       0.2
 3 Cl s               0.0       0.0       0.1       0.0       0.3       0.0
 3 Cl pz              0.0       0.1       0.0       0.0       0.1       0.0
 3 Cl px              0.0       0.0       0.0       0.0       0.4       0.0
 3 Cl dyz             0.0       0.0       0.0       0.0       0.0       0.1
 4 H  s               0.0       3.2       1.1       0.0       0.1       0.0
 4 H  pz              0.0      13.6       0.6       0.0       0.1       0.0
 4 H  py              0.0       0.0       0.0       0.2       0.0       0.0

                     84        85        86        87        88        89   
                   3.39414   3.40369   3.42341   3.46506   3.54131   3.57276
                   0.00000   0.00000   0.00000   0.00000   0.00000   0.00000
                  --------  --------  --------  --------  --------  --------
 0 C  s               0.0       3.8       0.0       3.4       2.3       0.0
 0 C  pz              0.0       0.5       0.0       5.7       0.2       0.0
 0 C  px              0.0       0.2       0.0       1.1       0.6       0.0
 0 C  py              0.1       0.0       0.2       0.0       0.0       0.2
 0 C  dz2             0.0       0.7       0.0       9.2       2.1       0.0
 0 C  dxz             0.0       0.4       0.0       0.6       0.0       0.0
 0 C  dyz             0.0       0.0       0.7       0.0       0.0       4.3
 0 C  dx2y2           0.0       0.8       0.0       0.9       0.0       0.0
 0 C  dxy             0.0       0.0       0.3       0.0       0.0       2.0
 1 F  s               0.0       0.4       0.3       0.0       0.1       0.0
 1 F  pz              0.0       3.1       4.1       1.2       6.3       6.0
 1 F  px              0.2       0.1       5.0       0.5      13.1       4.5
 1 F  py              0.3       6.3       3.7       2.6       1.4       0.0
 1 F  dz2            20.6       7.8       6.3       9.3       6.0      11.1
 1 F  dxz             1.2       4.3       0.1       0.1       2.7       0.4
 1 F  dyz            11.6       0.1       3.4       1.2       6.5       7.6
 1 F  dx2y2           4.8       5.9      24.5       0.6       7.1       4.5
 1 F  dxy            11.1      18.1       1.4       5.8       1.2      10.6
 2 F  s               0.0       0.4       0.3       0.0       0.1       0.0
 2 F  pz              0.0       3.1       4.1       1.2       6.4       5.9
 2 F  px              0.2       0.1       5.0       0.5      13.2       4.5
 2 F  py              0.3       6.3       3.7       2.6       1.4       0.0
 2 F  dz2            20.6       7.8       6.2       9.3       6.0      11.0
 2 F  dxz             1.2       4.3       0.1       0.1       2.8       0.4
 2 F  dyz            11.6       0.1       3.5       1.2       6.6       7.5
 2 F  dx2y2           4.8       5.9      24.6       0.6       7.1       4.5
 2 F  dxy            11.1      18.1       1.4       5.8       1.2      10.5
 3 Cl s               0.0       0.1       0.0       0.5       0.7       0.0
 3 Cl px              0.0       0.6       0.0       1.8       3.4       0.0
 3 Cl py              0.1       0.0       0.2       0.0       0.0       0.6
 3 Cl dx2y2           0.0       0.1       0.0       0.2       0.1       0.0
 3 Cl dxy             0.1       0.0       0.2       0.0       0.0       0.4
 4 H  s               0.0       0.0       0.0       7.5       0.3       0.0
 4 H  pz              0.0       0.0       0.0      26.4       0.2       0.0
 4 H  px              0.0       0.5       0.0       0.0       0.9       0.0
 4 H  py              0.0       0.0       0.5       0.0       0.0       3.3

                     90        91        92        93        94        95   
                   3.70617   3.96032   4.00638   4.41895   4.56297  21.79740
                   0.00000   0.00000   0.00000   0.00000   0.00000   0.00000
                  --------  --------  --------  --------  --------  --------
 0 C  s               0.2       0.0       2.6       1.2       0.0      99.4
 0 C  pz              0.3       0.0       2.3       2.9       0.0       0.0
 0 C  px              0.4       0.0       0.8       1.1       0.0       0.0
 0 C  py              0.0       2.4       0.0       0.0       5.5       0.0
 0 C  dz2             2.9       0.0       2.1       2.4       0.0       0.0
 0 C  dxz             2.0       0.0       1.0       2.1       0.0       0.0
 0 C  dyz             0.0       1.7       0.0       0.0       3.6       0.0
 0 C  dx2y2           3.8       0.0       0.8       0.9       0.0       0.0
 0 C  dxy             0.0       3.0       0.0       0.0       5.8       0.0
 1 F  s               0.2      32.2      28.7      22.4      19.5       0.1
 1 F  pz              3.5       1.6       2.0       1.0       2.1       0.0
 1 F  px              4.8       1.6       2.1       1.2       3.0       0.0
 1 F  py              4.5       4.2       8.0      11.4       6.7       0.0
 1 F  dz2             2.3       0.1       0.6       1.3       0.8       0.0
 1 F  dxz             3.4       0.0       1.0       0.9       0.5       0.0
 1 F  dyz             5.1       3.2       0.7       1.5       3.6       0.0
 1 F  dx2y2          16.1       0.4       0.7       2.6       1.6       0.0
 1 F  dxy             4.3       3.0       0.5       1.4       4.5       0.0
 2 F  s               0.2      32.2      28.7      22.4      19.5       0.1
 2 F  pz              3.5       1.6       2.0       1.0       2.1       0.0
 2 F  px              4.8       1.6       2.1       1.2       3.0       0.0
 2 F  py              4.5       4.2       8.0      11.4       6.7       0.0
 2 F  dz2             2.3       0.1       0.6       1.3       0.8       0.0
 2 F  dxz             3.4       0.0       1.0       0.9       0.5       0.0
 2 F  dyz             5.1       3.2       0.7       1.5       3.6       0.0
 2 F  dx2y2          16.1       0.4       0.7       2.6       1.5       0.0
 2 F  dxy             4.3       3.0       0.5       1.4       4.5       0.0
 3 Cl px              0.4       0.0       0.0       0.0       0.0       0.0
 3 Cl py              0.0       0.0       0.0       0.0       0.2       0.0
 3 Cl dz2             0.1       0.0       0.0       0.0       0.0       0.0
 4 H  s               0.3       0.0       0.6       1.0       0.0       0.0
 4 H  pz              0.4       0.0       1.1       0.7       0.0       0.0
 4 H  px              0.5       0.0       0.1       0.2       0.0       0.0
 4 H  py              0.0       0.1       0.0       0.0       0.5       0.0

                     96        97        98   
                  25.08069  57.07468  57.08991
                   0.00000   0.00000   0.00000
                  --------  --------  --------
 0 C  s               0.3       0.0       0.1
 1 F  s               0.0      49.9      50.0
 2 F  s               0.0      50.0      49.9
 3 Cl s              99.4       0.0       0.0
 3 Cl px              0.1       0.0       0.0


                      *****************************
                      * MAYER POPULATION ANALYSIS *
                      *****************************

  NA   - Mulliken gross atomic population
  ZA   - Total nuclear charge
  QA   - Mulliken gross atomic charge
  VA   - Mayer's total valence
  BVA  - Mayer's bonded valence
  FA   - Mayer's free valence

  ATOM       NA         ZA         QA         VA         BVA        FA
  0 C      5.6809     6.0000     0.3191     3.9760     3.9760     0.0000
  1 F      9.1972     9.0000    -0.1972     0.9394     0.9394     0.0000
  2 F      9.1972     9.0000    -0.1972     0.9395     0.9395     0.0000
  3 Cl    17.1208    17.0000    -0.1208     1.1152     1.1152    -0.0000
  4 H      0.8039     1.0000     0.1961     0.9390     0.9390     0.0000

  Mayer bond orders larger than 0.100000
B(  0-C ,  1-F ) :   0.9636 B(  0-C ,  2-F ) :   0.9636 B(  0-C ,  3-Cl) :   1.1120 
B(  0-C ,  4-H ) :   0.9368 

-------
TIMINGS
-------

Total SCF time: 0 days 0 hours 0 min 6 sec 

Total time                  ....       6.812 sec
Sum of individual times     ....       6.248 sec  ( 91.7%)

SCF preparation             ....       0.196 sec  (  2.9%)
Fock matrix formation       ....       5.273 sec  ( 77.4%)
  Startup                   ....       0.055 sec  (  1.0% of F)
  Split-RI-J                ....       0.442 sec  (  8.4% of F)
  XC integration            ....       3.410 sec  ( 64.7% of F)
    XC Preparation          ....       0.000 sec  (  0.0% of XC)
    Basis function eval.    ....       0.488 sec  ( 14.3% of XC)
    Density eval.           ....       0.582 sec  ( 17.1% of XC)
    XC-Functional eval.     ....       0.567 sec  ( 16.6% of XC)
    XC-Potential eval.      ....       0.850 sec  ( 24.9% of XC)
  CPCM terms                ....       0.879 sec  ( 16.7% of F)
Diagonalization             ....       0.000 sec  (  0.0%)
Density matrix formation    ....       0.189 sec  (  2.8%)
Total Energy calculation    ....       0.045 sec  (  0.7%)
Population analysis         ....       0.037 sec  (  0.5%)
Orbital Transformation      ....       0.038 sec  (  0.6%)
Orbital Orthonormalization  ....       0.000 sec  (  0.0%)
DIIS solution               ....       0.414 sec  (  6.1%)
  MO trafo                  ....       0.000 sec  (  0.0 % of DIIS)
  Orb grad                  ....       0.000 sec  (  0.0 % of DIIS)
  Energy W gradient         ....       0.000 sec  (  0.0 % of DIIS)
  DIIS error                ....       0.001 sec  (  0.3 % of DIIS)
  DIIS work                 ....       0.376 sec  ( 90.8 % of DIIS)
  Form Q                    ....       0.000 sec  (  0.0 % of DIIS)
  Form QpQm                 ....       0.000 sec  (  0.0 % of DIIS)
  Exp/Cayley                ....       0.000 sec  (  0.0 % of DIIS)
  Orb update                ....       0.000 sec  (  0.0 % of DIIS)
  Wake-sleep                ....       0.018 sec  (  4.4 % of DIIS)
SOSCF solution              ....       0.056 sec  (  0.8%)
  MO trafo                  ....       0.032 sec  ( 57.5 % of SOSCF)
  Orb grad                  ....       0.001 sec  (  2.2 % of SOSCF)
  Rot update                ....       0.009 sec  ( 16.8 % of SOSCF)
  Step                      ....       0.013 sec  ( 23.5 % of SOSCF)
Finished LeanSCF after   6.9 sec

Maximum memory used throughout the entire LEANSCF-calculation: 9.5 MB


-------------------------------------------------------------------------------
                          DFT DISPERSION CORRECTION                            
                                                                               
                                DFTD4 V3.4.0                                   
-------------------------------------------------------------------------------
The R2SCAN3C composite method is recognized
Using three-body term ABC
Active option DFTDOPT                   ...         5   

-------------------------   ----------------
Dispersion correction           -0.000741764
-------------------------   ----------------

------------------   -----------------
gCP correction             0.008668173
------------------   -----------------

-------------------------   --------------------
FINAL SINGLE POINT ENERGY      -698.557439354654
-------------------------   --------------------


------------------------------------------------------------------------------
                              ORCA PROPERTY CALCULATIONS
------------------------------------------------------------------------------

GBWName                                 ... sp_solv.gbw
Number of atoms                         ...      5
Number of basis functions               ...     99
Max core memory                         ...   1024 MB

Electric properties:
Dipole moment                           ... YES
Quadrupole moment                       ...  NO
Static polarizability (Dipole/Dipole)   ...  NO
Static polarizability (Dipole/Quad.)    ...  NO
Static polarizability (Quad./Quad.)     ...  NO
Static polarizability (Velocity)        ...  NO

Atomic electric properties:
Dipole moment                           ...  NO
Quadrupole moment                       ...  NO
Static polarizability                   ...  NO

Choice of electric origin               ... Center of mass
Position of electric origin             ...    -0.000017    -0.000000    -0.000006

General magnetic properties:
Magnetizability                         ...  NO

EPR properties:
g-Tensor (aka g-matrix)                 ...  NO
Zero-Field splitting spin-orbit         ...  NO
Zero-field splitting spin-spin          ...  NO
Hyperfine couplings                     ...  NO (   0 nuclei)
Quadrupole couplings                    ...  NO (   0 nuclei)
Contact density                         ...  NO (   0 nuclei)

NMR properties:
Chemical shifts                         ...  NO (   0 nuclei)
Spin-rotation constants                 ...  NO (   0 nuclei)
Spin-spin couplings                     ...  NO (   0 nuclei,    0 pairs)

Choice of magnetic origin               ... GIAO
Position of magnetic origin             ...     0.000000     0.000000     0.000000

Properties with geometric perturbations:
SCF Hessian                             ...  NO
IR spectrum                             ...  NO
VCD spectrum                            ...  NO
X-ray spectroscopy properties:
SCF XES/XAS/RIXS spectra                ...  NO


-------------
DIPOLE MOMENT
-------------

Method             : SCF
Type of density    : Electron Density
Multiplicity       :   1
Irrep              :   0
Energy             :  -698.5653657641855716 Eh
Relativity type    : 
Basis              : AO
                                X                 Y                 Z
Electronic contribution:     -0.234631190       0.000078322       0.939261129
Nuclear contribution   :      0.325423706      -0.000195445      -1.692848638
                        -----------------------------------------
Total Dipole Moment    :      0.090792516      -0.000117122      -0.753587509
                        -----------------------------------------
Magnitude (a.u.)       :      0.759037172
Magnitude (Debye)      :      1.929319165



--------------------
Rotational spectrum 
--------------------
 
Rotational constants in cm-1:             0.344935             0.157950             0.115565 
Rotational constants in MHz :         10340.884571          4735.220683          3464.538704 

Dipole components along the rotational axes: 
x,y,z [a.u.] :    -0.090794    -0.000117    -0.753587 
x,y,z [Debye]:    -0.230780    -0.000298    -1.915467 

 

Dipole moment calculation done in   0.0 sec 

Maximum memory used throughout the entire PROP-calculation: 5.8 MB

--------------------------------
SUGGESTED CITATIONS FOR THIS RUN
--------------------------------

Below you find a list of papers that are relevant to this ORCA run
We neither can nor want to force you to cite these papers, but we appreciate if you do
You receive ORCA, which is the product of decades of hard work by many enthusiastic individuals, for free
The only thing we kindly ask in return is that you cite our papers,
We deeply appreciate it, if you show your appreciation for ORCA by not just citing the generic ORCA reference.

Please note that relegating all ORCA citations to the supporting information does *not* help us.
SI sections are not indexed - citations you put there will not count into any citation statistics
But we need these citations in order to attract the funding resources that allow us to do what we are doing

Therefore, if you are a happy ORCA user, please consider citing a few of the papers listed below in the main body of your paper

In addition to the list printed below, the program has created the file sp_solv.bibtex that contains the list in bibtex format
You can import this file easily into all common literature databanks and citation aid programs


List of essential papers. We consider these as the minimum necessary citations

  1. Neese,F.
     Software update: the ORCA program system, version 5.0
     WIRES Comput. Molec. Sci., 2022 12(1)e1606
     doi.org/10.1002/wcms.1606
  2. Grimme,S.; Hansen,A.; Ehlert,S.; Mewes,J.
     r2SCAN-3c: A 'Swiss army knife' composite electronic-structure method
     J. Chem. Phys., 2021 154 064103
     doi.org/10.1063/5.0040021

List of papers to cite with high priority. The work reported in these papers was absolutely
necessary for this run to complete.
Our perspective: the developers of density functionals and basis sets usually get cited in chemistry papers
Good! But without the algorithms to do something with them, the functionals or basis sets would not do anything.
Hence, in our opinion, the algorithm design and method developments papers are equally worthy of getting cited

  1. Neese,F.
     An improvement of the resolution of the identity approximation for the formation of the Coulomb matrix
     J. Comp. Chem., 2003 24(14)1740-1747
     doi.org/10.1002/jcc.10318
  2. Garcia-Rates,M.; Neese,F.
     Effect of the Solute Cavity on the Solvation Energy and its Derivatives within the Framework of the Gaussian Charge Scheme
     J. Comput. Chem., 2020 41 922-939
     doi.org/10.1002/jcc.26139
  3. Neese,F.
     The SHARK Integral Generation and Digestion System
     J. Comp. Chem., 2022  1-16
     doi.org/10.1002/jcc.26942
  4. Lehtola,S.; Steigemann,C.; Oliveira,M.; Marques,M.
     Recent developments in Libxc - A comprehensive library of functionals for density functional theory
     Software X, 2018 7 
     doi.org/10.1016/j.softx.2017.11.002
  5. Caldeweyher,E.; Bannwarth,C.; Grimme,S.
     Extension of the D3 dispersion coefficient model
     J. Chem. Phys., 2017 147 034112-XXXX
     doi.org/10.1063/1.4993215
  6. Caldeweyher,E.; Ehlert,S.; Hansen,A.; Neugebauer,H.; Spicher,S.; Bannwarth,C.; Grimme,S.
     A generally applicable atomic-charge dependent London dispersion correction
     J. Chem. Phys., 2019 150 154122-XXXX
     doi.org/10.1063/1.5090222
  7. Caldeweyher,E.; Mewes,J.; Ehlert,S.; Grimme,S.
     Extension and evaluation of the D4 London-dispersion model for periodic systems
     Phys. Chem. Chem. Phys., 2020 22(16)8499-8512
     doi.org/10.1039/D0CP00502A

List of suggested additional citations. These are papers that are important in the 'surrounding' of 
of this run, or papers that preceded the highly important papers. If you like your results we are grateful for a citation.

  1. Neese,F.
     The ORCA program system
     WIRES Comput. Molec. Sci., 2012 2(1)73-78
     doi.org/10.1002/wcms.81
  2. Neese,F.
     Software update: the ORCA program system, version 4.0
     WIRES Comput. Molec. Sci., 2018 8(1)1-6
     doi.org/10.1002/wcms.1327
  3. Neese,F.; Wennmohs,F.; Becker,U.; Riplinger,C.
     The ORCA quantum chemistry program package
     J. Chem. Phys., 2020 152 Art. No. L224108
     doi.org/10.1063/5.0004608

List of optional additional citations

  1. Neese,F.
     Approximate second-order SCF convergence for spin unrestricted wavefunctions
     Chem. Phys. Lett., 2000 325(1-3)93-98
     doi.org/10.1016/s0009-2614(00)00662-x

Timings for individual modules:

Sum of individual times          ...        7.618 sec (=   0.127 min)
Startup calculation              ...        0.417 sec (=   0.007 min)   5.5 %
SCF iterations                   ...        7.119 sec (=   0.119 min)  93.4 %
Property calculations            ...        0.083 sec (=   0.001 min)   1.1 %
                             ****ORCA TERMINATED NORMALLY****
TOTAL RUN TIME: 0 days 0 hours 0 minutes 8 seconds 239 msec
