
                                 *****************
                                 * O   R   C   A *
                                 *****************

                                            #,                                       
                                            ###                                      
                                            ####                                     
                                            #####                                    
                                            ######                                   
                                           ########,                                 
                                     ,,################,,,,,                         
                               ,,#################################,,                 
                          ,,##########################################,,             
                       ,#########################################, ''#####,          
                    ,#############################################,,   '####,        
                  ,##################################################,,,,####,       
                ,###########''''           ''''###############################       
              ,#####''   ,,,,##########,,,,          '''####'''          '####       
            ,##' ,,,,###########################,,,                        '##       
           ' ,,###''''                  '''############,,,                           
         ,,##''                                '''############,,,,        ,,,,,,###''
      ,#''                                            '''#######################'''  
     '                                                          ''''####''''         
             ,#######,   #######,   ,#######,      ##                                
            ,#'     '#,  ##    ##  ,#'     '#,    #''#        ,####,   ,####,        
            ##       ##  ##   ,#'  ##            #'  '#       #'       #'  '#        
            ##       ##  #######   ##           ,######,      #####,   #    #        
            '#,     ,#'  ##    ##  '#,     ,#' ,#      #,     #,   #   #,  ,#        
             '#######'   ##     ##  '#######'  #'      '#     '####' # '####'        



                #########################################################
                #                        -***-                          #
                #          Department of theory and spectroscopy        #
                #                                                       #
                #                      Frank Neese                      #
                #                                                       #
                #     Directorship, Architecture, Infrastructure        #
                #                    SHARK, DRIVERS                     #
                #        Core code/Algorithms in most modules           #
                #                                                       #
                #        Max Planck Institute fuer Kohlenforschung      #
                #                Kaiser Wilhelm Platz 1                 #
                #                 D-45470 Muelheim/Ruhr                 #
                #                      Germany                          #
                #                                                       #
                #                  All rights reserved                  #
                #                        -***-                          #
                #########################################################


                         Program Version 6.0.0  -   RELEASE  -


 With contributions from (in alphabetic order):
   Daniel Aravena         : Magnetic Suceptibility
   Michael Atanasov       : Ab Initio Ligand Field Theory (pilot matlab implementation)
   Alexander A. Auer      : GIAO ZORA, VPT2 properties, NMR spectrum
   Ute Becker             : All parallelization in ORCA, NUMFREQ, NUMCALC
   Giovanni Bistoni       : ED, misc. LED, open-shell LED, HFLD
   Martin Brehm           : Molecular dynamics
   Dmytro Bykov           : pre 5.0 version of the SCF Hessian
   Marcos Casanova-Páez   : Triplet and SCS-CIS(D). UHF-(DLPNO)-IP/EA/STEOM-CCSD. UHF-CVS-IP/STEOM-CCSD
   Vijay G. Chilkuri      : MRCI spin determinant printing, contributions to CSF-ICE
   Pauline Colinet        : FMM embedding
   Dipayan Datta          : RHF DLPNO-CCSD density
   Achintya Kumar Dutta   : EOM-CC, STEOM-CC
   Nicolas Foglia         : Exact transition moments, OPA infrastructure, MCD improvements
   Dmitry Ganyushin       : Spin-Orbit,Spin-Spin,Magnetic field MRCI
   Miquel Garcia          : C-PCM and meta-GGA Hessian, CCSD/C-PCM, Gaussian charge scheme
   Tiago L. C. Gouveia    : GS-ROHF, GS-ROCIS
   Yang Guo               : DLPNO-NEVPT2, F12-NEVPT2, CIM, IAO-localization
   Andreas Hansen         : Spin unrestricted coupled pair/coupled cluster methods
   Ingolf Harden          : AUTO-CI MPn and infrastructure 
   Benjamin Helmich-Paris : MC-RPA, TRAH-(SCF,CASSCF), AVAS, COSX integrals, SCF dyn. polar.
   Lee Huntington         : MR-EOM, pCC
   Robert Izsak           : Overlap fitted RIJCOSX, COSX-SCS-MP3, EOM
   Riya Kayal             : Wick's Theorem for AUTO-CI, AUTO-CI UHF-CCSDT
   Emily Kempfer          : AUTO-CI, RHF CISDT and CCSDT
   Christian Kollmar      : KDIIS, OOCD, Brueckner-CCSD(T), CCSD density, CASPT2, CASPT2-K, improved NEVPT2
   Axel Koslowski         : Symmetry handling
   Simone Kossmann        : Meta GGA functionals, TD-DFT gradient, OOMP2, (MP2 Hessian; deprecated post 5.0)
   Lucas Lang             : DCDCAS
   Marvin Lechner         : AUTO-CI (C++ implementation), FIC-MRCC
   Spencer Leger          : CASSCF response
   Dagmar Lenk            : GEPOL surface, SMD, ORCA-2-JSON
   Dimitrios Liakos       : Extrapolation schemes; Compound Job, initial MDCI parallelization
   Dimitrios Manganas     : Further ROCIS development; embedding schemes. LFT, Crystal Embedding
   Dimitrios Pantazis     : SARC Basis sets
   Anastasios Papadopoulos: AUTO-CI, single reference methods and gradients
   Taras Petrenko         : pre 6.0 DFT Hessian and TD-DFT gradient, (ASA, deprecated), ECA, 1-Electron XAS/XES, NRVS
   Peter Pinski           : DLPNO-MP2, DLPNO-MP2 Gradient
   Christoph Reimann      : Effective Core Potentials
   Marius Retegan         : Local ZFS, SOC
   Christoph Riplinger    : Optimizer, TS searches, QM/MM, DLPNO-CCSD(T), (RO)-DLPNO pert. Triples
   Michael Roemelt        : Original ROCIS implementation
   Masaaki Saitow         : Open-shell DLPNO-CCSD energy and density
   Barbara Sandhoefer     : DKH picture change effects
   Kantharuban Sivalingam : CASSCF convergence/infrastructure, NEVPT2 and variants, FIC-MRCI
   Bernardo de Souza      : ESD, SOC TD-DFT
   Georgi Stoychev        : AutoAux, RI-MP2 NMR, DLPNO-MP2 response, X2C
   Van Anh Tran           : RI-MP2 g-tensors
   Willem Van den Heuvel  : Paramagnetic NMR
   Zikuan Wang            : NOTCH, Electric field optimization 
   Frank Wennmohs         : Technical directorship and infrastructure
   Hang Xu                : AUTO-CI-Response properties 


 We gratefully acknowledge several colleagues who have allowed us to
 interface, adapt or use parts of their codes:
   Stefan Grimme, W. Hujo, H. Kruse, P. Pracht,  : VdW corrections, initial TS optimization,
                  C. Bannwarth, S. Ehlert,         DFT functionals, gCP, sTDA/sTD-DF
                  L. Wittmann, M. Mueller
   Ed Valeev, F. Pavosevic, A. Kumar             : LibInt (2-el integral package), F12 methods
   Garnet Chan, S. Sharma, J. Yang, R. Olivares  : DMRG
   Ulf Ekstrom                                   : XCFun DFT Library
   Mihaly Kallay                                 : mrcc  (arbitrary order and MRCC methods)
   Frank Weinhold                                : gennbo (NPA and NBO analysis)
   Simon Mueller                                 : openCOSMO-RS
   Christopher J. Cramer and Donald G. Truhlar   : smd solvation model
   Lars Goerigk                                  : TD-DFT with DH, B97 family of functionals
   V. Asgeirsson, H. Jonsson                     : NEB implementation
   FAccTs GmbH                                   : IRC, NEB, NEB-TS, DLPNO-Multilevel, CI-OPT
                                                   MM, QMMM, 2- and 3-layer-ONIOM, Crystal-QMMM,
                                                   LR-CPCM, SF, NACMEs, symmetry and pop. for TD-DFT,
                                                   nearIR, NL-DFT gradient (VV10), updates on ESD,
                                                   ML-optimized integration grids, MBIS, APM,
                                                   GOAT, DOCKER, SOLVATOR, interface openCOSMO-RS
   S Lehtola, MJT Oliveira, MAL Marques          : LibXC Library
   Liviu Ungur et al                             : ANISO software


 Your calculation uses the libint2 library for the computation of 2-el integrals
 For citations please refer to: http://libint.valeyev.net

 Your ORCA version has been built with support for libXC version: 6.2.2
 For citations please refer to: https://libxc.gitlab.io

 This ORCA versions uses:
   CBLAS   interface :  Fast vector & matrix operations
   LAPACKE interface :  Fast linear algebra routines
   SCALAPACK package :  Parallel linear algebra routines
   Shared memory     :  Shared parallel matrices
   BLAS/LAPACK       :  OpenBLAS 0.3.27  USE64BITINT DYNAMIC_ARCH NO_AFFINITY SkylakeX SINGLE_THREADED
        Core in use  :  SkylakeX
   Copyright (c) 2011-2014, The OpenBLAS Project


Your calculation utilizes the geometrical counterpoise correction gCP
Please cite in your paper:
H.Kruse, S. Grimme J.Chem.Phys., 136, (2012), 154101 
   

Your calculation utilizes the atom-pairwise dispersion correction
based on EEQ partial charges (D4)


================================================================================

----- Orbital basis set information -----
Your calculation utilizes the basis: def2-SV(P)
   F. Weigend and R. Ahlrichs, Phys. Chem. Chem. Phys. 7, 3297 (2005).

----- AuxJ basis set information -----
Your calculation utilizes the auxiliary basis: def2/J
   F. Weigend, Phys. Chem. Chem. Phys. 8, 1057 (2006).

================================================================================
                                        WARNINGS
                       Please study these warnings very carefully!
================================================================================


================================================================================
                                       INPUT FILE
================================================================================
NAME = sp.inp
|  1> ! pbe def2-sv(p) def2/J RI DEFGRID1 loosescf d4 GCP(DFT/SV(P)) printgap
|  2> %output
|  3>     printlevel normal
|  4> end
|  5> * xyz 0 1
|  6> C 3.7186758942 0.3104045 0.2131472246
|  7> C 2.2948839747 0.1687222696 -0.3171923027
|  8> H 2.3411750098 -0.0906653472 -1.3813466379
|  9> C 1.5166445658 1.4741892219 -0.1682327231
| 10> C 0.0799376617 1.3259098361 -0.6624194099
| 11> C -0.6644248581 0.2325138136 0.1106071357
| 12> H -0.6251793951 0.4833625883 1.1759934725
| 13> C 0.1142332144 -1.0846657972 -0.0924635878
| 14> H 0.1471654018 -1.3004349017 -1.1728453672
| 15> C 1.5486370489 -0.9411240247 0.4174239936
| 16> O -0.4522099608 -2.1959570105 0.5847546599
| 17> C -2.151517865 0.0690166289 -0.2876214652
| 18> C -2.9678914576 -0.4009622789 0.9205153027
| 19> C -2.7989756936 1.3407671092 -0.8376565821
| 20> H 4.2478397695 1.0946187968 -0.3227768746
| 21> H 3.7047661588 0.5646517944 1.2705405449
| 22> H 4.2656766138 -0.6212566162 0.0915485378
| 23> H 1.5080748092 1.7662107436 0.8842934756
| 24> H 2.0144649706 2.2663171422 -0.7310978491
| 25> H -0.4290931766 2.2805728756 -0.5378508183
| 26> H 0.0864125646 1.0779083035 -1.7265738661
| 27> H 1.5135920887 -0.7288424902 1.4877211848
| 28> H 2.0571220558 -1.8985209085 0.2877606855
| 29> H -1.2267089189 -2.5056836677 0.0989306426
| 30> H -2.2106101994 -0.6909225043 -1.0770182977
| 31> H -3.9644581551 -0.7100713398 0.6126687491
| 32> H -3.070261478 0.4154532141 1.6329064918
| 33> H -2.4853120325 -1.2306662823 1.4289118584
| 34> H -3.852829413 1.1498246272 -1.0291035695
| 35> H -2.3393027118 1.6549983969 -1.7699996603
| 36> H -2.7291993092 2.1519249862 -0.1168703811
| 37> *
| 38> 
| 39>                          ****END OF INPUT****
================================================================================

                       ****************************
                       * Single Point Calculation *
                       ****************************

---------------------------------
CARTESIAN COORDINATES (ANGSTROEM)
---------------------------------
  C      3.718676    0.310404    0.213147
  C      2.294884    0.168722   -0.317192
  H      2.341175   -0.090665   -1.381347
  C      1.516645    1.474189   -0.168233
  C      0.079938    1.325910   -0.662419
  C     -0.664425    0.232514    0.110607
  H     -0.625179    0.483363    1.175993
  C      0.114233   -1.084666   -0.092464
  H      0.147165   -1.300435   -1.172845
  C      1.548637   -0.941124    0.417424
  O     -0.452210   -2.195957    0.584755
  C     -2.151518    0.069017   -0.287621
  C     -2.967891   -0.400962    0.920515
  C     -2.798976    1.340767   -0.837657
  H      4.247840    1.094619   -0.322777
  H      3.704766    0.564652    1.270541
  H      4.265677   -0.621257    0.091549
  H      1.508075    1.766211    0.884293
  H      2.014465    2.266317   -0.731098
  H     -0.429093    2.280573   -0.537851
  H      0.086413    1.077908   -1.726574
  H      1.513592   -0.728842    1.487721
  H      2.057122   -1.898521    0.287761
  H     -1.226709   -2.505684    0.098931
  H     -2.210610   -0.690923   -1.077018
  H     -3.964458   -0.710071    0.612669
  H     -3.070261    0.415453    1.632906
  H     -2.485312   -1.230666    1.428912
  H     -3.852829    1.149825   -1.029104
  H     -2.339303    1.654998   -1.770000
  H     -2.729199    2.151925   -0.116870

----------------------------
CARTESIAN COORDINATES (A.U.)
----------------------------
  NO LB      ZA    FRAG     MASS         X           Y           Z
   0 C     6.0000    0    12.011    7.027279    0.586579    0.402790
   1 C     6.0000    0    12.011    4.336702    0.318839   -0.599407
   2 H     1.0000    0     1.008    4.424180   -0.171333   -2.610367
   3 C     6.0000    0    12.011    2.866043    2.785814   -0.317914
   4 C     6.0000    0    12.011    0.151060    2.505606   -1.251791
   5 C     6.0000    0    12.011   -1.255581    0.439387    0.209017
   6 H     1.0000    0     1.008   -1.181418    0.913423    2.222306
   7 C     6.0000    0    12.011    0.215869   -2.049721   -0.174731
   8 H     1.0000    0     1.008    0.278102   -2.457466   -2.216357
   9 C     6.0000    0    12.011    2.926500   -1.778467    0.788817
  10 O     8.0000    0    15.999   -0.854553   -4.149757    1.105026
  11 C     6.0000    0    12.011   -4.065780    0.130423   -0.543526
  12 C     6.0000    0    12.011   -5.608502   -0.757709    1.739522
  13 C     6.0000    0    12.011   -5.289298    2.533683   -1.582942
  14 H     1.0000    0     1.008    8.027254    2.068530   -0.609960
  15 H     1.0000    0     1.008    7.000993    1.067037    2.400974
  16 H     1.0000    0     1.008    8.060961   -1.174005    0.173002
  17 H     1.0000    0     1.008    2.849848    3.337655    1.671072
  18 H     1.0000    0     1.008    3.806787    4.282719   -1.381575
  19 H     1.0000    0     1.008   -0.810869    4.309658   -1.016391
  20 H     1.0000    0     1.008    0.163296    2.036951   -3.262752
  21 H     1.0000    0     1.008    2.860275   -1.377313    2.811386
  22 H     1.0000    0     1.008    3.887397   -3.587685    0.543789
  23 H     1.0000    0     1.008   -2.318144   -4.735056    0.186952
  24 H     1.0000    0     1.008   -4.177448   -1.305654   -2.035270
  25 H     1.0000    0     1.008   -7.491740   -1.341840    1.157776
  26 H     1.0000    0     1.008   -5.801953    0.785093    3.085746
  27 H     1.0000    0     1.008   -4.696559   -2.325622    2.700252
  28 H     1.0000    0     1.008   -7.280792    2.172854   -1.944724
  29 H     1.0000    0     1.008   -4.420641    3.127494   -3.344815
  30 H     1.0000    0     1.008   -5.157439    4.066549   -0.220853

--------------------------------
INTERNAL COORDINATES (ANGSTROEM)
--------------------------------
 C      0   0   0     0.000000000000     0.00000000     0.00000000
 C      1   0   0     1.525947999986     0.00000000     0.00000000
 H      2   1   0     1.096288850990   108.65870948     0.00000000
 C      2   1   3     1.527118036521   111.23681051   240.53785990
 C      4   2   1     1.526543149063   111.40816421   181.55881800
 C      5   4   2     1.532044536919   111.29979292    59.06789810
 H      6   5   4     1.095222973086   108.05648652    56.92077437
 C      6   5   4     1.543537573148   107.30998167   300.94390244
 H      8   6   5     1.102209428685   108.12441928   300.60523243
 C      2   1   3     1.525878230406   110.88728236   119.05954047
 O      8   6   5     1.419313420815   113.83170465   179.27491577
 C      6   5   4     1.548148235522   114.34822832   177.19032397
 C     12   6   5     1.531972736841   109.96331225   210.86919368
 C     12   6   5     1.529408236470   114.28881483   332.83525768
 H      1   2   3     1.087299917379   110.47255707    60.26473628
 H      1   2   3     1.087619327368   110.34429822   180.20563525
 H      1   2   3     1.087192928285   110.54914954   300.09627102
 H      4   2   1     1.092319279704   109.05803302   302.29217748
 H      4   2   1     1.091837418126   109.72805245    60.21116386
 H      5   4   2     1.089041435089   108.52551632   180.16107111
 H      5   4   2     1.092689979450   109.37467108   298.05907106
 H     10   2   1     1.091708604260   110.25891998    58.93415863
 H     10   2   1     1.091777618757   110.66303685   300.04409927
 H     11   8   6     0.965300064262   109.34749038    76.69720734
 H     12   6   5     1.097336206144   108.05369584    91.96269203
 H     13  12   6     1.087870899813   110.62018188   191.34625187
 H     13  12   6     1.088354301041   109.64494420    72.10335686
 H     13  12   6     1.086166972724   111.51261314   312.58380623
 H     14  12   6     1.087988346587   109.11143197   183.59743866
 H     14  12   6     1.085957719174   111.72688610    64.19573187
 H     14  12   6     1.087372334020   110.77787774   302.41724891

---------------------------
INTERNAL COORDINATES (A.U.)
---------------------------
 C      0   0   0     0.000000000000     0.00000000     0.00000000
 C      1   0   0     2.883623814578     0.00000000     0.00000000
 H      2   1   0     2.071685692042   108.65870948     0.00000000
 C      2   1   3     2.885834863196   111.23681051   240.53785990
 C      4   2   1     2.884748483343   111.40816421   181.55881800
 C      5   4   2     2.895144599748   111.29979292    59.06789810
 H      6   5   4     2.069671474711   108.05648652    56.92077437
 C      6   5   4     2.916863290667   107.30998167   300.94390244
 H      8   6   5     2.082873962441   108.12441928   300.60523243
 C      2   1   3     2.883491969180   110.88728236   119.05954047
 O      8   6   5     2.682113663540   113.83170465   179.27491577
 C      6   5   4     2.925576179850   114.34822832   177.19032397
 C     12   6   5     2.895008917263   109.96331225   210.86919368
 C     12   6   5     2.890162713892   114.28881483   332.83525768
 H      1   2   3     2.054699069281   110.47255707    60.26473628
 H      1   2   3     2.055302666685   110.34429822   180.20563525
 H      1   2   3     2.054496889195   110.54914954   300.09627102
 H      4   2   1     2.064184289444   109.05803302   302.29217748
 H      4   2   1     2.063273703027   109.72805245    60.21116386
 H      5   4   2     2.057990060811   108.52551632   180.16107111
 H      5   4   2     2.064884810440   109.37467108   298.05907106
 H     10   2   1     2.063030280097   110.25891998    58.93415863
 H     10   2   1     2.063160698596   110.66303685   300.04409927
 H     11   8   6     1.824152758511   109.34749038    76.69720734
 H     12   6   5     2.073664906448   108.05369584    91.96269203
 H     13  12   6     2.055778069709   110.62018188   191.34625187
 H     13  12   6     2.056691565643   109.64494420    72.10335686
 H     13  12   6     2.052558114158   111.51261314   312.58380623
 H     14  12   6     2.056000011948   109.11143197   183.59743866
 H     14  12   6     2.052162682257   111.72688610    64.19573187
 H     14  12   6     2.054835916900   110.77787774   302.41724891

---------------------
BASIS SET INFORMATION
---------------------
There are 3 groups of distinct atoms

 Group   1 Type C   : 7s4p1d contracted to 3s2p1d pattern {511/31/1}
 Group   2 Type H   : 4s contracted to 2s pattern {31}
 Group   3 Type O   : 7s4p1d contracted to 3s2p1d pattern {511/31/1}

Atom   0C    basis set group =>   1
Atom   1C    basis set group =>   1
Atom   2H    basis set group =>   2
Atom   3C    basis set group =>   1
Atom   4C    basis set group =>   1
Atom   5C    basis set group =>   1
Atom   6H    basis set group =>   2
Atom   7C    basis set group =>   1
Atom   8H    basis set group =>   2
Atom   9C    basis set group =>   1
Atom  10O    basis set group =>   3
Atom  11C    basis set group =>   1
Atom  12C    basis set group =>   1
Atom  13C    basis set group =>   1
Atom  14H    basis set group =>   2
Atom  15H    basis set group =>   2
Atom  16H    basis set group =>   2
Atom  17H    basis set group =>   2
Atom  18H    basis set group =>   2
Atom  19H    basis set group =>   2
Atom  20H    basis set group =>   2
Atom  21H    basis set group =>   2
Atom  22H    basis set group =>   2
Atom  23H    basis set group =>   2
Atom  24H    basis set group =>   2
Atom  25H    basis set group =>   2
Atom  26H    basis set group =>   2
Atom  27H    basis set group =>   2
Atom  28H    basis set group =>   2
Atom  29H    basis set group =>   2
Atom  30H    basis set group =>   2
---------------------------------
AUXILIARY/J BASIS SET INFORMATION
---------------------------------
There are 3 groups of distinct atoms

 Group   1 Type C   : 12s5p4d2f1g contracted to 6s4p3d1f1g pattern {711111/2111/211/2/1}
 Group   2 Type H   : 5s2p1d contracted to 3s1p1d pattern {311/2/1}
 Group   3 Type O   : 12s5p4d2f1g contracted to 6s4p3d1f1g pattern {711111/2111/211/2/1}

Atom   0C    basis set group =>   1
Atom   1C    basis set group =>   1
Atom   2H    basis set group =>   2
Atom   3C    basis set group =>   1
Atom   4C    basis set group =>   1
Atom   5C    basis set group =>   1
Atom   6H    basis set group =>   2
Atom   7C    basis set group =>   1
Atom   8H    basis set group =>   2
Atom   9C    basis set group =>   1
Atom  10O    basis set group =>   3
Atom  11C    basis set group =>   1
Atom  12C    basis set group =>   1
Atom  13C    basis set group =>   1
Atom  14H    basis set group =>   2
Atom  15H    basis set group =>   2
Atom  16H    basis set group =>   2
Atom  17H    basis set group =>   2
Atom  18H    basis set group =>   2
Atom  19H    basis set group =>   2
Atom  20H    basis set group =>   2
Atom  21H    basis set group =>   2
Atom  22H    basis set group =>   2
Atom  23H    basis set group =>   2
Atom  24H    basis set group =>   2
Atom  25H    basis set group =>   2
Atom  26H    basis set group =>   2
Atom  27H    basis set group =>   2
Atom  28H    basis set group =>   2
Atom  29H    basis set group =>   2
Atom  30H    basis set group =>   2
------------------------------------------------------------------------------
                             ORCA STARTUP CALCULATIONS
                           -- RI-GTO INTEGRALS CHOSEN --
------------------------------------------------------------------------------
------------------------------------------------------------------------------
                   ___                                                        
                  /   \      - P O W E R E D   B Y -                         
                 /     \                                                     
                 |  |  |   _    _      __       _____    __    __             
                 |  |  |  | |  | |    /  \     |  _  \  |  |  /  |          
                  \  \/   | |  | |   /    \    | | | |  |  | /  /          
                 / \  \   | |__| |  /  /\  \   | |_| |  |  |/  /          
                |  |  |   |  __  | /  /__\  \  |    /   |      \           
                |  |  |   | |  | | |   __   |  |    \   |  |\   \          
                \     /   | |  | | |  |  |  |  | |\  \  |  | \   \       
                 \___/    |_|  |_| |__|  |__|  |_| \__\ |__|  \__/        
                                                                              
                      - O R C A' S   B I G   F R I E N D -                    
                                      &                                       
                       - I N T E G R A L  F E E D E R -                       
                                                                              
 v1 FN, 2020, v2 2021, v3 2022-2024                                           
------------------------------------------------------------------------------


----------------------
SHARK INTEGRAL PACKAGE
----------------------

Number of atoms                             ...     31
Number of basis functions                   ...    194
Number of shells                            ...    106
Maximum angular momentum                    ...      2
Integral batch strategy                     ... SHARK/LIBINT Hybrid
RI-J (if used) integral strategy            ... SPLIT-RIJ (Revised 2003 algorithm where possible)
Printlevel                                  ...      1
Contraction scheme used                     ... SEGMENTED contraction
Prescreening option                         ... SCHWARTZ
   Thresh                                   ... 1.000e-09
   Tcut                                     ... 1.000e-10
   Tpresel                                  ... 1.000e-10 
Coulomb Range Separation                    ... NOT USED
Exchange Range Separation                   ... NOT USED
Multipole approximations                    ... NOT USED
Finite Nucleus Model                        ... NOT USED
CABS basis                                  ... NOT available
Auxiliary Coulomb fitting basis             ... AVAILABLE
   # of basis functions in Aux-J            ...    759
   # of shells in Aux-J                     ...    265
   Maximum angular momentum in Aux-J        ...      4
Auxiliary J/K fitting basis                 ... NOT available
Auxiliary Correlation fitting basis         ... NOT available
Auxiliary 'external' fitting basis          ... NOT available

Checking pre-screening integrals            ... done (  0.0 sec) Dimension = 106
Check shell pair data                       ... done (  0.0 sec)
Shell pair information
Shell pair cut-off parameter TPreSel        ...   1.0e-10
Total number of shell pairs                 ...      5671
Shell pairs after pre-screening             ...      5167
Total number of primitive shell pairs       ...     22781
Primitive shell pairs kept                  ...     13962
          la=0 lb=0:   2436 shell pairs
          la=1 lb=0:   1508 shell pairs
          la=1 lb=1:    247 shell pairs
          la=2 lb=0:    697 shell pairs
          la=2 lb=1:    224 shell pairs
          la=2 lb=2:     55 shell pairs

Calculating one electron integrals          ... done (  0.0 sec)
Calculating RI/J V-Matrix + Cholesky decomp.... done (  0.2 sec)
Calculating Nuclear repulsion               ... done (  0.0 sec) ENN=    691.235660148516 Eh

Diagonalization of the overlap matrix:
Smallest eigenvalue                        ... 8.582e-04
Time for diagonalization                   ...    0.003 sec
Threshold for overlap eigenvalues          ... 1.000e-07
Number of eigenvalues below threshold      ... 0
Time for construction of square roots      ...    0.015 sec
Total time needed                          ...    0.029 sec

-------------------
DFT GRID GENERATION
-------------------

General Integration Accuracy     IntAcc      ... 4.159
Radial Grid Type                 RadialGrid  ... OptM3 with GC (2021)
Angular Grid (max. ang.)         AngularGrid ... 3 (Lebedev-194)
Angular grid pruning method      GridPruning ... 4 (adaptive)
Weight generation scheme         WeightScheme... mBecke (2022)
Basis function cutoff            BFCut       ... 1.0000e-10
Integration weight cutoff        WCut        ... 1.0000e-14
Partially contracted basis set               ... off
Rotationally invariant grid construction     ... off
Angular grids for H and He will be reduced by one unit

Total number of grid points                  ...    62796
Total number of batches                      ...      998
Average number of points per batch           ...       62
Average number of grid points per atom       ...     2026
Initializing property integral containers    ... done (  0.1 sec)

SHARK setup successfully completed in   1.2 seconds

Maximum memory used throughout the entire STARTUP-calculation: 31.2 MB
-------------------------------------------------------------------------------
                                 ORCA GUESS
                   Start orbitals & Density for SCF / CASSCF
-------------------------------------------------------------------------------

------------
SCF SETTINGS
------------
Hamiltonian:
 Density Functional     Method          .... DFT(GTOs)
 Exchange Functional    Exchange        .... PBE
   PBE kappa parameter   XKappa         ....  0.804000
   PBE mue parameter    XMuePBE         ....  0.219520
 Correlation Functional Correlation     .... PBE
   PBE beta parameter  CBetaPBE         ....  0.066725
 LDA part of GGA corr.  LDAOpt          .... PW91-LDA
 Gradients option       PostSCFGGA      .... off
   NL short-range parameter             ....  6.400000
 RI-approximation to the Coulomb term is turned on
   Number of AuxJ basis functions       .... 759


General Settings:
 Integral files         IntName         .... sp
 Hartree-Fock type      HFTyp           .... RHF
 Total Charge           Charge          ....    0
 Multiplicity           Mult            ....    1
 Number of Electrons    NEL             ....   88
 Basis Dimension        Dim             ....  194
 Nuclear Repulsion      ENuc            ....    691.2356601485 Eh

Convergence Acceleration:
 AO-DIIS                CNVDIIS         .... on
   Start iteration      DIISMaxIt       ....    12
   Startup error        DIISStart       ....  0.200000
   # of expansion vecs  DIISMaxEq       ....     5
   Bias factor          DIISBfac        ....   1.050
   Max. coefficient     DIISMaxC        ....  10.000
 MO-DIIS                CNVKDIIS        .... off
 Trust-Rad. Augm. Hess. CNVTRAH         .... auto
   Auto Start mean grad. ratio tolernc. ....  1.125000
   Auto Start start iteration           ....    50
   Auto Start num. interpolation iter.  ....    10
   Max. Number of Micro iterations      ....    24
   Max. Number of Macro iterations      .... Maxiter - #DIIS iter
   Number of Davidson start vectors     ....     2
   Converg. threshold    (grad. norm)   ....   1.000e-04
   Grad. Scal. Fac. for Micro threshold ....   0.100
   Minimum threshold for Micro iter.    ....   1.000e-02
   NR start threshold (gradient norm)   ....   1.000e-04
   Initial trust radius                 ....   0.400
   Minimum AH scaling param. (alpha)    ....   1.000
   Maximum AH scaling param. (alpha)    .... 1000.000
   Quad. conv. algorithm                .... NR
   White noise on init. David. guess    .... on
   Maximum white noise                  ....   0.010
   Pseudo random numbers                .... off
   Inactive MOs                         .... canonical
   Orbital update algorithm             .... Taylor
   Preconditioner                       .... Diag
   Full preconditioner red. dimension   ....   250
 SOSCF                  CNVSOSCF        .... on
   Start iteration      SOSCFMaxIt      ....   150
   Startup grad/error   SOSCFStart      ....  0.003300
   Hessian update       SOSCFHessUp     .... L-BFGS
 Level Shifting         CNVShift        .... on
   Level shift para.    LevelShift      ....    0.2500
   Turn off err/grad.   ShiftErr        ....    0.0010
 Zerner damping         CNVZerner       .... off
 Static damping         CNVDamp         .... on
   Fraction old density DampFac         ....    0.7000
   Max. Damping (<1)    DampMax         ....    0.9800
   Min. Damping (>=0)   DampMin         ....    0.0000
   Turn off err/grad.   DampErr         ....    0.1000

SCF Procedure:
 Maximum # iterations   MaxIter         ....   125
 SCF integral mode      SCFMode         .... Direct
   Integral package                     .... SHARK and LIBINT hybrid scheme
 Reset frequency        DirectResetFreq ....    20
 Integral Threshold     Thresh          ....  1.000e-09 Eh
 Primitive CutOff       TCut            ....  1.000e-10 Eh

Convergence Tolerance:
 Convergence Check Mode ConvCheckMode   .... Total+1el-Energy
 Convergence forced     ConvForced      .... 0
 Energy Change          TolE            ....  1.000e-05 Eh
 1-El. energy change                    ....  1.000e-02 Eh
 Orbital Gradient       TolG            ....  1.000e-04
 Orbital Rotation angle TolX            ....  1.000e-04
 DIIS Error             TolErr          ....  5.000e-04

------------------------------
INITIAL GUESS: MODEL POTENTIAL
------------------------------
Loading Hartree-Fock densities                     ... done
Calculating cut-offs                               ... done
Initializing the effective Hamiltonian             ... done
Setting up the integral package (SHARK)            ... done
Starting the Coulomb interaction                   ... done (   0.3 sec)
Making the grid                                    ... done (   0.4 sec)
Mapping shells                                     ... done
Starting the XC term evaluation                    ... done (   0.3 sec)
  promolecular density results
     # of electrons  =     87.991293969
     EX              =    -65.280811967
     EC              =     -2.922297100
     EX+EC           =    -68.203109068
Transforming the Hamiltonian                       ... done (   0.0 sec)
Diagonalizing the Hamiltonian                      ... done (   0.0 sec)
Back transforming the eigenvectors                 ... done (   0.0 sec)
Now organizing SCF variables                       ... done
                      ------------------
                      INITIAL GUESS DONE (   1.0 sec)
                      ------------------
             **** ENERGY FILE WAS UPDATED (sp.en.tmp) ****
Finished Guess after   1.2 sec
Maximum memory used throughout the entire GUESS-calculation: 24.0 MB

-------------------------------------------------------------------------------------------
                                      ORCA LEAN-SCF
                              memory conserving SCF solver
-------------------------------------------------------------------------------------------

----------------------------------------D-I-I-S--------------------------------------------
Iteration    Energy (Eh)           Delta-E    RMSDP     MaxDP     DIISErr   Damp  Time(sec)
-------------------------------------------------------------------------------------------
               ***  Starting incremental Fock matrix formation  ***
    1    -466.9843049482013839     0.00e+00  4.26e-03  8.34e-02  2.09e-01  0.700   1.4
    2    -467.1457987659074433    -1.61e-01  3.01e-03  5.28e-02  7.67e-02  0.700   1.3
                               ***Turning on AO-DIIS***
    3    -467.2011725316034472    -5.54e-02  1.17e-03  1.48e-02  2.15e-02  0.700   1.3
    4    -467.2336018111906242    -3.24e-02  1.73e-03  2.34e-02  8.90e-03  0.000   1.2
    5    -467.3080153732763620    -7.44e-02  5.64e-04  1.36e-02  1.16e-02  0.000   1.2
                              *** Initializing SOSCF ***
---------------------------------------S-O-S-C-F--------------------------------------
Iteration    Energy (Eh)           Delta-E    RMSDP     MaxDP     MaxGrad    Time(sec)
--------------------------------------------------------------------------------------
    6    -467.3089203699438485    -9.05e-04  1.91e-04  2.56e-03  2.34e-03     1.2
               *** Restarting incremental Fock matrix formation ***
    7    -467.3090102663405787    -8.99e-05  1.39e-04  3.66e-03  2.71e-04     1.3
    8    -467.3090078337385194     2.43e-06  5.85e-05  1.92e-03  5.74e-04     1.1
                 **** Energy Check signals convergence ****

               *****************************************************
               *                     SUCCESS                       *
               *           SCF CONVERGED AFTER   8 CYCLES          *
               *****************************************************

             **** ENERGY FILE WAS UPDATED (sp.en.tmp) ****

----------------
TOTAL SCF ENERGY
----------------

Total Energy       :       -467.30900783373852 Eh          -12716.12458 eV

Components:
Nuclear Repulsion  :        691.23566014851610 Eh           18809.47857 eV
Electronic Energy  :      -1158.54466798225462 Eh          -31525.60315 eV
One Electron Energy:      -2003.47864279269288 Eh          -54517.42548 eV
Two Electron Energy:        844.93397481043826 Eh           22991.82234 eV

Virial components:
Potential Energy   :       -930.37274767978056 Eh          -25316.72954 eV
Kinetic Energy     :        463.06373984604198 Eh           12600.60496 eV
Virial Ratio       :          2.00916778322809

DFT components:
N(Alpha)           :       43.999623617617 electrons
N(Beta)            :       43.999623617617 electrons
N(Total)           :       87.999247235233 electrons
E(X)               :      -66.833170042909 Eh       
E(C)               :       -2.922920581487 Eh       
E(XC)              :      -69.756090624396 Eh       

---------------
SCF CONVERGENCE
---------------

  Last Energy change         ...   -2.4326e-06  Tolerance :   1.0000e-05
  Last MAX-Density change    ...    1.9233e-03  Tolerance :   1.0000e-03
  Last RMS-Density change    ...    5.8530e-05  Tolerance :   1.0000e-04
  Last DIIS Error            ...    2.3386e-03  Tolerance :   5.0000e-04
  Last Orbital Gradient      ...    5.7374e-04  Tolerance :   1.0000e-04
  Last Orbital Rotation      ...    3.0989e-04  Tolerance :   1.0000e-04


----------------
ORBITAL ENERGIES
----------------

  NO   OCC          E(Eh)            E(eV) 
   0   2.0000     -18.740202      -509.9468 
   1   2.0000      -9.932582      -270.2793 
   2   2.0000      -9.895047      -269.2579 
   3   2.0000      -9.891022      -269.1484 
   4   2.0000      -9.886489      -269.0250 
   5   2.0000      -9.880940      -268.8741 
   6   2.0000      -9.879327      -268.8302 
   7   2.0000      -9.874242      -268.6918 
   8   2.0000      -9.872069      -268.6327 
   9   2.0000      -9.869992      -268.5761 
  10   2.0000      -9.867755      -268.5153 
  11   2.0000      -0.917379       -24.9632 
  12   2.0000      -0.758723       -20.6459 
  13   2.0000      -0.722526       -19.6609 
  14   2.0000      -0.670387       -18.2422 
  15   2.0000      -0.656300       -17.8588 
  16   2.0000      -0.608442       -16.5566 
  17   2.0000      -0.600344       -16.3362 
  18   2.0000      -0.539766       -14.6878 
  19   2.0000      -0.532628       -14.4935 
  20   2.0000      -0.501846       -13.6559 
  21   2.0000      -0.495077       -13.4717 
  22   2.0000      -0.458771       -12.4838 
  23   2.0000      -0.422016       -11.4836 
  24   2.0000      -0.405962       -11.0468 
  25   2.0000      -0.401538       -10.9264 
  26   2.0000      -0.392339       -10.6761 
  27   2.0000      -0.379068       -10.3150 
  28   2.0000      -0.364877        -9.9288 
  29   2.0000      -0.358119        -9.7449 
  30   2.0000      -0.346017        -9.4156 
  31   2.0000      -0.338778        -9.2186 
  32   2.0000      -0.334286        -9.0964 
  33   2.0000      -0.324467        -8.8292 
  34   2.0000      -0.313556        -8.5323 
  35   2.0000      -0.303756        -8.2656 
  36   2.0000      -0.297924        -8.1069 
  37   2.0000      -0.293117        -7.9761 
  38   2.0000      -0.282704        -7.6928 
  39   2.0000      -0.277631        -7.5547 
  40   2.0000      -0.272536        -7.4161 
  41   2.0000      -0.261790        -7.1237 
  42   2.0000      -0.252829        -6.8798 
  43   2.0000      -0.208105        -5.6628 
  44   0.0000       0.020954         0.5702 
  45   0.0000       0.039043         1.0624 
  46   0.0000       0.042799         1.1646 
  47   0.0000       0.052512         1.4289 
  48   0.0000       0.075354         2.0505 
  49   0.0000       0.083231         2.2648 
  50   0.0000       0.084614         2.3025 
  51   0.0000       0.095831         2.6077 
  52   0.0000       0.101363         2.7582 
  53   0.0000       0.110783         3.0146 
  54   0.0000       0.113567         3.0903 
*Only the first 10 virtual orbitals were printed.

                    ********************************
                    * MULLIKEN POPULATION ANALYSIS *
                    ********************************

-----------------------
MULLIKEN ATOMIC CHARGES
-----------------------
   0 C :   -0.195968
   1 C :   -0.213054
   2 H :    0.060309
   3 C :   -0.091745
   4 C :   -0.110434
   5 C :   -0.126930
   6 H :    0.052802
   7 C :    0.029904
   8 H :    0.043603
   9 C :   -0.068218
  10 O :   -0.404132
  11 C :   -0.152749
  12 C :   -0.258583
  13 C :   -0.231112
  14 H :    0.094585
  15 H :    0.090127
  16 H :    0.096104
  17 H :    0.065317
  18 H :    0.075474
  19 H :    0.085008
  20 H :    0.068459
  21 H :    0.070122
  22 H :    0.079936
  23 H :    0.305772
  24 H :    0.050751
  25 H :    0.093662
  26 H :    0.093355
  27 H :    0.100546
  28 H :    0.095782
  29 H :    0.104548
  30 H :    0.096759
Sum of atomic charges:   -0.0000000

--------------------------------
MULLIKEN REDUCED ORBITAL CHARGES
--------------------------------
  0 C s       :     3.051516  s :     3.051516
      pz      :     1.050928  p :     3.115369
      px      :     1.018804
      py      :     1.045637
      dz2     :     0.008582  d :     0.029084
      dxz     :     0.004134
      dyz     :     0.003480
      dx2y2   :     0.003816
      dxy     :     0.009072

  1 C s       :     3.096489  s :     3.096489
      pz      :     1.032457  p :     3.072599
      px      :     1.021040
      py      :     1.019103
      dz2     :     0.011868  d :     0.043965
      dxz     :     0.005764
      dyz     :     0.006714
      dx2y2   :     0.009614
      dxy     :     0.010005

  2 H s       :     0.939691  s :     0.939691

  3 C s       :     2.999577  s :     2.999577
      pz      :     1.011117  p :     3.055650
      px      :     1.008325
      py      :     1.036208
      dz2     :     0.008718  d :     0.036518
      dxz     :     0.005067
      dyz     :     0.006750
      dx2y2   :     0.007020
      dxy     :     0.008964

  4 C s       :     2.986846  s :     2.986846
      pz      :     1.046348  p :     3.087124
      px      :     1.015131
      py      :     1.025645
      dz2     :     0.011517  d :     0.036464
      dxz     :     0.004826
      dyz     :     0.003734
      dx2y2   :     0.007159
      dxy     :     0.009229

  5 C s       :     3.081917  s :     3.081917
      pz      :     1.016529  p :     3.004958
      px      :     0.986485
      py      :     1.001945
      dz2     :     0.011175  d :     0.040055
      dxz     :     0.005441
      dyz     :     0.005935
      dx2y2   :     0.008434
      dxy     :     0.009070

  6 H s       :     0.947198  s :     0.947198

  7 C s       :     3.040493  s :     3.040493
      pz      :     0.968132  p :     2.860312
      px      :     1.018510
      py      :     0.873669
      dz2     :     0.016709  d :     0.069291
      dxz     :     0.008082
      dyz     :     0.012611
      dx2y2   :     0.016888
      dxy     :     0.015001

  8 H s       :     0.956397  s :     0.956397

  9 C s       :     2.999076  s :     2.999076
      pz      :     1.046477  p :     3.034531
      px      :     0.988943
      py      :     0.999111
      dz2     :     0.011421  d :     0.034610
      dxz     :     0.004305
      dyz     :     0.003521
      dx2y2   :     0.007437
      dxy     :     0.007926

 10 O s       :     3.791203  s :     3.791203
      pz      :     1.627668  p :     4.597732
      px      :     1.452167
      py      :     1.517896
      dz2     :     0.001734  d :     0.015197
      dxz     :     0.005040
      dyz     :     0.003598
      dx2y2   :     0.003193
      dxy     :     0.001633

 11 C s       :     3.089288  s :     3.089288
      pz      :     1.008163  p :     3.020815
      px      :     0.989466
      py      :     1.023186
      dz2     :     0.006570  d :     0.042647
      dxz     :     0.007673
      dyz     :     0.012055
      dx2y2   :     0.009249
      dxy     :     0.007100

 12 C s       :     3.084089  s :     3.084089
      pz      :     1.034228  p :     3.145303
      px      :     1.036015
      py      :     1.075060
      dz2     :     0.004252  d :     0.029191
      dxz     :     0.004699
      dyz     :     0.009796
      dx2y2   :     0.006156
      dxy     :     0.004288

 13 C s       :     3.062763  s :     3.062763
      pz      :     1.056285  p :     3.139011
      px      :     1.041756
      py      :     1.040970
      dz2     :     0.005018  d :     0.029338
      dxz     :     0.003668
      dyz     :     0.008871
      dx2y2   :     0.008466
      dxy     :     0.003315

 14 H s       :     0.905415  s :     0.905415

 15 H s       :     0.909873  s :     0.909873

 16 H s       :     0.903896  s :     0.903896

 17 H s       :     0.934683  s :     0.934683

 18 H s       :     0.924526  s :     0.924526

 19 H s       :     0.914992  s :     0.914992

 20 H s       :     0.931541  s :     0.931541

 21 H s       :     0.929878  s :     0.929878

 22 H s       :     0.920064  s :     0.920064

 23 H s       :     0.694228  s :     0.694228

 24 H s       :     0.949249  s :     0.949249

 25 H s       :     0.906338  s :     0.906338

 26 H s       :     0.906645  s :     0.906645

 27 H s       :     0.899454  s :     0.899454

 28 H s       :     0.904218  s :     0.904218

 29 H s       :     0.895452  s :     0.895452

 30 H s       :     0.903241  s :     0.903241


------------------------
MULLIKEN OVERLAP CHARGES
------------------------
B(  0-C ,  1-C ) :   0.8202 B(  0-C ,  2-H ) :  -0.0644 B(  0-C ,  3-C ) :  -0.1073 
B(  0-C ,  9-C ) :  -0.0892 B(  0-C , 14-H ) :   0.7293 B(  0-C , 15-H ) :   0.7377 
B(  0-C , 16-H ) :   0.7296 B(  1-C ,  2-H ) :   0.6763 B(  1-C ,  3-C ) :   0.7838 
B(  1-C ,  4-C ) :  -0.1055 B(  1-C ,  9-C ) :   0.5981 B(  2-H ,  3-C ) :  -0.0669 
B(  2-H ,  9-C ) :  -0.0576 B(  3-C ,  4-C ) :   0.8150 B(  3-C ,  5-C ) :  -0.1081 
B(  3-C ,  9-C ) :  -0.1298 B(  3-C , 17-H ) :   0.6705 B(  3-C , 18-H ) :   0.6545 
B(  4-C ,  5-C ) :   0.5860 B(  4-C ,  6-H ) :  -0.0640 B(  4-C ,  7-C ) :  -0.0546 
B(  4-C , 19-H ) :   0.6314 B(  4-C , 20-H ) :   0.6575 B(  5-C ,  6-H ) :   0.6195 
B(  5-C ,  7-C ) :   0.5459 B(  5-C ,  8-H ) :  -0.1251 B(  5-C ,  9-C ) :  -0.1596 
B(  5-C , 10-O ) :  -0.1689 B(  5-C , 11-C ) :   0.4602 B(  5-C , 12-C ) :  -0.0750 
B(  5-C , 13-C ) :  -0.0952 B(  5-C , 24-H ) :  -0.0923 B(  6-H , 11-C ) :  -0.0880 
B(  7-C ,  8-H ) :   0.7197 B(  7-C ,  9-C ) :   0.6293 B(  7-C , 10-O ) :   0.6954 
B(  7-C , 11-C ) :  -0.0682 B(  7-C , 23-H ) :  -0.0573 B(  8-H ,  9-C ) :  -0.0862 
B(  8-H , 10-O ) :  -0.0620 B(  9-C , 10-O ) :  -0.1370 B(  9-C , 21-H ) :   0.6206 
B(  9-C , 22-H ) :   0.6033 B( 10-O , 23-H ) :   0.4985 B( 10-O , 27-H ) :   0.0833 
B( 11-C , 12-C ) :   0.8738 B( 11-C , 13-C ) :   0.8532 B( 11-C , 24-H ) :   0.6579 
B( 11-C , 27-H ) :  -0.0568 B( 11-C , 28-H ) :  -0.0535 B( 12-C , 13-C ) :  -0.1203 
B( 12-C , 24-H ) :  -0.0661 B( 12-C , 25-H ) :   0.7212 B( 12-C , 26-H ) :   0.7380 
B( 12-C , 27-H ) :   0.6758 B( 13-C , 24-H ) :  -0.0629 B( 13-C , 28-H ) :   0.7369 
B( 13-C , 29-H ) :   0.7068 B( 13-C , 30-H ) :   0.7343 B( 17-H , 18-H ) :  -0.0664 
B( 19-H , 20-H ) :  -0.0669 B( 21-H , 22-H ) :  -0.0677 B( 29-H , 30-H ) :  -0.0525 



                     *******************************
                     * LOEWDIN POPULATION ANALYSIS *
                     *******************************

----------------------
LOEWDIN ATOMIC CHARGES
----------------------
   0 C :   -0.326163
   1 C :   -0.152839
   2 H :    0.112724
   3 C :   -0.214649
   4 C :   -0.217395
   5 C :   -0.146993
   6 H :    0.117762
   7 C :   -0.044721
   8 H :    0.094539
   9 C :   -0.215691
  10 O :   -0.321495
  11 C :   -0.151614
  12 C :   -0.338911
  13 C :   -0.329411
  14 H :    0.116538
  15 H :    0.116959
  16 H :    0.117617
  17 H :    0.114549
  18 H :    0.114998
  19 H :    0.118438
  20 H :    0.113338
  21 H :    0.118837
  22 H :    0.118395
  23 H :    0.283123
  24 H :    0.104627
  25 H :    0.113960
  26 H :    0.116885
  27 H :    0.114344
  28 H :    0.117894
  29 H :    0.116996
  30 H :    0.117361

-------------------------------
LOEWDIN REDUCED ORBITAL CHARGES
-------------------------------
  0 C s       :     2.946399  s :     2.946399
      pz      :     1.118737  p :     3.308680
      px      :     1.072733
      py      :     1.117210
      dz2     :     0.020593  d :     0.071084
      dxz     :     0.009930
      dyz     :     0.008594
      dx2y2   :     0.010905
      dxy     :     0.021062

  1 C s       :     2.872407  s :     2.872407
      pz      :     1.076483  p :     3.173663
      px      :     1.043001
      py      :     1.054179
      dz2     :     0.028238  d :     0.106770
      dxz     :     0.013569
      dyz     :     0.015509
      dx2y2   :     0.023722
      dxy     :     0.025731

  2 H s       :     0.887276  s :     0.887276

  3 C s       :     2.906062  s :     2.906062
      pz      :     1.097405  p :     3.219388
      px      :     1.054148
      py      :     1.067835
      dz2     :     0.021387  d :     0.089199
      dxz     :     0.011708
      dyz     :     0.015087
      dx2y2   :     0.018457
      dxy     :     0.022560

  4 C s       :     2.904512  s :     2.904512
      pz      :     1.090973  p :     3.223819
      px      :     1.058004
      py      :     1.074842
      dz2     :     0.026865  d :     0.089064
      dxz     :     0.011802
      dyz     :     0.009592
      dx2y2   :     0.018650
      dxy     :     0.022155

  5 C s       :     2.890631  s :     2.890631
      pz      :     1.075919  p :     3.156365
      px      :     1.028787
      py      :     1.051659
      dz2     :     0.027539  d :     0.099997
      dxz     :     0.012220
      dyz     :     0.014011
      dx2y2   :     0.022450
      dxy     :     0.023778

  6 H s       :     0.882238  s :     0.882238

  7 C s       :     2.885179  s :     2.885179
      pz      :     1.036905  p :     3.000297
      px      :     1.029037
      py      :     0.934356
      dz2     :     0.039591  d :     0.159245
      dxz     :     0.017333
      dyz     :     0.026816
      dx2y2   :     0.040639
      dxy     :     0.034867

  8 H s       :     0.905461  s :     0.905461

  9 C s       :     2.914722  s :     2.914722
      pz      :     1.093656  p :     3.214908
      px      :     1.045481
      py      :     1.075771
      dz2     :     0.026762  d :     0.086061
      dxz     :     0.010915
      dyz     :     0.009132
      dx2y2   :     0.019190
      dxy     :     0.020063

 10 O s       :     3.543482  s :     3.543482
      pz      :     1.690884  p :     4.751495
      px      :     1.500901
      py      :     1.559710
      dz2     :     0.002389  d :     0.026517
      dxz     :     0.008263
      dyz     :     0.006182
      dx2y2   :     0.005945
      dxy     :     0.003738

 11 C s       :     2.878732  s :     2.878732
      pz      :     1.063506  p :     3.169304
      px      :     1.041702
      py      :     1.064096
      dz2     :     0.015070  d :     0.103578
      dxz     :     0.019045
      dyz     :     0.028770
      dx2y2   :     0.023971
      dxy     :     0.016722

 12 C s       :     2.951140  s :     2.951140
      pz      :     1.092316  p :     3.316776
      px      :     1.100181
      py      :     1.124279
      dz2     :     0.009657  d :     0.070995
      dxz     :     0.012906
      dyz     :     0.023520
      dx2y2   :     0.014478
      dxy     :     0.010434

 13 C s       :     2.947077  s :     2.947077
      pz      :     1.112321  p :     3.310908
      px      :     1.108029
      py      :     1.090558
      dz2     :     0.011962  d :     0.071426
      dxz     :     0.009003
      dyz     :     0.021543
      dx2y2   :     0.020102
      dxy     :     0.008816

 14 H s       :     0.883462  s :     0.883462

 15 H s       :     0.883041  s :     0.883041

 16 H s       :     0.882383  s :     0.882383

 17 H s       :     0.885451  s :     0.885451

 18 H s       :     0.885002  s :     0.885002

 19 H s       :     0.881562  s :     0.881562

 20 H s       :     0.886662  s :     0.886662

 21 H s       :     0.881163  s :     0.881163

 22 H s       :     0.881605  s :     0.881605

 23 H s       :     0.716877  s :     0.716877

 24 H s       :     0.895373  s :     0.895373

 25 H s       :     0.886040  s :     0.886040

 26 H s       :     0.883115  s :     0.883115

 27 H s       :     0.885656  s :     0.885656

 28 H s       :     0.882106  s :     0.882106

 29 H s       :     0.883004  s :     0.883004

 30 H s       :     0.882639  s :     0.882639


---------------------------------
LOEWDIN BOND ORDERS (THRESH 0.050000)
---------------------------------
B(  0-C ,  1-C ) :   1.0939 B(  0-C ,  3-C ) :   0.0559 B(  0-C ,  9-C ) :   0.0569 
B(  0-C , 14-H ) :   0.9358 B(  0-C , 15-H ) :   0.9365 B(  0-C , 16-H ) :   0.9357 
B(  1-C ,  2-H ) :   0.8705 B(  1-C ,  3-C ) :   1.0585 B(  1-C ,  4-C ) :   0.0541 
B(  1-C ,  7-C ) :   0.0560 B(  1-C ,  9-C ) :   1.0544 B(  3-C ,  4-C ) :   1.0869 
B(  3-C ,  5-C ) :   0.0537 B(  3-C ,  9-C ) :   0.0520 B(  3-C , 17-H ) :   0.8984 
B(  3-C , 18-H ) :   0.8996 B(  4-C ,  5-C ) :   1.0493 B(  4-C ,  7-C ) :   0.0591 
B(  4-C , 19-H ) :   0.8918 B(  4-C , 20-H ) :   0.8968 B(  5-C ,  6-H ) :   0.8608 
B(  5-C ,  7-C ) :   1.0209 B(  5-C ,  9-C ) :   0.0537 B(  5-C , 10-O ) :   0.0672 
B(  5-C , 11-C ) :   1.0121 B(  5-C , 12-C ) :   0.0566 B(  7-C ,  8-H ) :   0.8737 
B(  7-C ,  9-C ) :   1.0601 B(  7-C , 10-O ) :   1.1963 B(  7-C , 11-C ) :   0.0560 
B(  9-C , 10-O ) :   0.0655 B(  9-C , 21-H ) :   0.8941 B(  9-C , 22-H ) :   0.8946 
B( 10-O , 23-H ) :   0.8829 B( 11-C , 12-C ) :   1.0917 B( 11-C , 13-C ) :   1.0944 
B( 11-C , 24-H ) :   0.8699 B( 12-C , 13-C ) :   0.0593 B( 12-C , 25-H ) :   0.9356 
B( 12-C , 26-H ) :   0.9335 B( 12-C , 27-H ) :   0.9248 B( 13-C , 28-H ) :   0.9311 
B( 13-C , 29-H ) :   0.9336 B( 13-C , 30-H ) :   0.9339 

------------------------------------------
LOEWDIN REDUCED ORBITAL POPULATIONS PER MO
-------------------------------------------
THRESHOLD FOR PRINTING IS 0.1%%
                      0         1         2         3         4         5   
                 -18.74020  -9.93258  -9.89505  -9.89102  -9.88649  -9.88094
                   2.00000   2.00000   2.00000   2.00000   2.00000   2.00000
                  --------  --------  --------  --------  --------  --------
 1 C  s               0.0       0.0       0.0      99.6       0.0       0.0
 4 C  s               0.0       0.0       0.0       0.0       0.0      99.6
 5 C  s               0.0       0.0       0.0       0.0      99.6       0.0
 7 C  s               0.0      99.6       0.0       0.0       0.0       0.0
10 O  s              99.9       0.0       0.0       0.0       0.0       0.0
11 C  s               0.0       0.0      99.6       0.0       0.0       0.0

                      6         7         8         9        10        11   
                  -9.87933  -9.87424  -9.87207  -9.86999  -9.86775  -0.91738
                   2.00000   2.00000   2.00000   2.00000   2.00000   2.00000
                  --------  --------  --------  --------  --------  --------
 0 C  s               0.0       0.0       0.0      99.7       0.0       0.0
 3 C  s              99.6       0.0       0.0       0.0       0.0       0.0
 5 C  s               0.0       0.0       0.0       0.0       0.0       0.8
 5 C  py              0.0       0.0       0.0       0.0       0.0       1.1
 6 H  s               0.0       0.0       0.0       0.0       0.0       0.1
 7 C  s               0.0       0.0       0.0       0.0       0.0      10.5
 7 C  pz              0.0       0.0       0.0       0.0       0.0       1.7
 7 C  px              0.0       0.1       0.0       0.0       0.0       1.7
 7 C  py              0.0       0.0       0.0       0.0       0.0       5.0
 7 C  dyz             0.0       0.0       0.0       0.0       0.0       0.3
 7 C  dx2y2           0.0       0.0       0.0       0.0       0.0       0.1
 7 C  dxy             0.0       0.0       0.0       0.0       0.0       0.3
 8 H  s               0.0       0.0       0.0       0.0       0.0       1.3
 9 C  s               0.0      99.6       0.0       0.0       0.0       0.8
 9 C  px              0.0       0.0       0.0       0.0       0.0       1.1
 9 C  py              0.0       0.0       0.0       0.0       0.0       0.1
10 O  s               0.0       0.0       0.0       0.0       0.0      58.0
10 O  pz              0.0       0.0       0.0       0.0       0.0       2.3
10 O  px              0.0       0.0       0.0       0.0       0.0       0.3
10 O  py              0.0       0.0       0.0       0.0       0.0       0.7
11 C  s               0.0       0.0       0.0       0.0       0.0       0.1
11 C  px              0.0       0.0       0.0       0.0       0.0       0.1
12 C  s               0.0       0.0       0.0       0.0      99.7       0.0
13 C  s               0.0       0.0      99.7       0.0       0.0       0.0
21 H  s               0.0       0.1       0.0       0.0       0.0       0.2
22 H  s               0.0       0.1       0.0       0.0       0.0       0.2
23 H  s               0.0       0.0       0.0       0.0       0.0      12.1
27 H  s               0.0       0.0       0.0       0.0       0.1       0.1

                     12        13        14        15        16        17   
                  -0.75872  -0.72253  -0.67039  -0.65630  -0.60844  -0.60034
                   2.00000   2.00000   2.00000   2.00000   2.00000   2.00000
                  --------  --------  --------  --------  --------  --------
 0 C  s               2.6       4.2      11.7       1.0       0.5      19.4
 0 C  px              1.1       1.0       0.6       0.0       0.0       0.8
 0 C  py              0.0       0.0       0.0       0.2       0.0       0.0
 1 C  s              10.8       9.5       7.2       0.4       0.0       0.1
 1 C  pz              0.3       0.3       0.3       0.3       0.0       0.0
 1 C  px              0.7       0.0       3.0       0.3       0.2       9.2
 1 C  py              0.1       0.0       0.3       6.6       0.2       0.0
 1 C  dx2y2           0.0       0.0       0.0       0.0       0.0       0.2
 1 C  dxy             0.0       0.0       0.0       0.1       0.0       0.0
 2 H  s               1.9       1.7       1.3       0.1       0.0       0.0
 3 C  s               9.9       3.0       0.7      12.5       0.0       5.8
 3 C  pz              0.1       0.0       0.1       0.2       0.0       0.0
 3 C  px              0.3       0.7       4.6       0.2       0.0       0.0
 3 C  py              1.4       0.7       0.5       0.2       0.0       0.0
 4 C  s              10.3       0.1      11.0       7.0       0.0       0.1
 4 C  pz              0.6       0.0       0.2       0.0       0.1       0.0
 4 C  px              0.2       2.0       0.0       1.6       0.1       3.8
 4 C  py              0.8       0.2       0.2       1.0       0.1       1.0
 5 C  s              11.1       5.5       5.2       0.9       1.0       7.6
 5 C  pz              0.5       0.1       0.3       0.2       0.4       0.1
 5 C  px              0.3       3.4       3.4       0.2       0.1       0.1
 5 C  py              0.1       0.0       0.5       4.1       0.3       0.0
 5 C  dxy             0.0       0.0       0.0       0.1       0.0       0.0
 6 H  s               2.1       1.0       0.9       0.2       0.6       1.4
 7 C  s               4.3       0.0       1.5      12.3       0.0       0.1
 7 C  pz              0.0       0.0       0.0       0.0       0.0       0.1
 7 C  px              0.5       2.2       0.3       2.8       0.7       3.5
 7 C  py              3.7       0.4       1.2       0.6       0.3       1.1
 8 H  s               0.9       0.0       0.3       2.5       0.0       0.0
 9 C  s               7.1       4.1       1.1      13.7       0.9       4.1
 9 C  pz              0.6       0.2       0.0       0.0       0.0       0.0
 9 C  px              0.0       0.4       2.2       1.9       0.0       0.0
 9 C  py              1.2       0.5       0.2       0.5       0.1       0.0
10 O  s               2.2       0.1       0.2       2.7       0.1       0.0
10 O  px              0.4       0.0       0.1       3.0       0.1       0.1
10 O  py              0.3       0.0       0.2       2.4       0.0       0.0
11 C  s               5.0      18.7       3.9       0.0       0.0       0.1
11 C  pz              0.1       0.2       0.0       0.0       7.1       0.3
11 C  px              0.6       0.0       3.9       0.3       0.2       5.3
11 C  py              0.1       0.2       0.0       0.2       7.4       0.1
11 C  dxy             0.0       0.0       0.0       0.0       0.1       0.0
12 C  s               1.2       8.2       6.1       0.0      16.7       6.7
12 C  pz              0.3       1.3       0.4       0.0       0.3       0.0
12 C  px              0.2       0.6       0.0       0.0       0.0       0.4
12 C  py              0.1       0.3       0.1       0.0       0.3       0.0
13 C  s               1.5       8.6       4.7       0.5      25.5       0.4
13 C  pz              0.1       0.4       0.1       0.0       0.4       0.0
13 C  px              0.2       0.3       0.0       0.0       0.0       0.3
13 C  py              0.3       1.4       0.4       0.0       0.5       0.0
14 H  s               0.4       0.7       2.4       0.3       0.2       5.5
15 H  s               0.5       0.8       2.4       0.2       0.1       5.1
16 H  s               0.4       0.7       2.5       0.1       0.1       5.6
17 H  s               1.8       0.6       0.1       2.6       0.0       1.3
18 H  s               1.5       0.6       0.1       3.2       0.0       1.4
19 H  s               1.7       0.1       2.1       1.9       0.1       0.0
20 H  s               1.9       0.0       2.2       1.4       0.0       0.0
21 H  s               1.3       0.7       0.2       2.8       0.2       0.9
22 H  s               1.0       0.7       0.3       3.0       0.3       1.0
23 H  s               0.7       0.0       0.2       2.5       0.0       0.0
24 H  s               0.9       3.5       0.8       0.0       0.0       0.0
25 H  s               0.2       1.5       1.4       0.0       4.0       2.2
26 H  s               0.2       1.6       1.3       0.0       4.0       1.9
27 H  s               0.2       1.4       1.2       0.0       5.4       1.5
28 H  s               0.2       1.6       1.2       0.1       6.6       0.3
29 H  s               0.3       1.5       0.7       0.2       7.8       0.0
30 H  s               0.3       1.6       0.9       0.1       6.6       0.1

                     18        19        20        21        22        23   
                  -0.53977  -0.53263  -0.50185  -0.49508  -0.45877  -0.42202
                   2.00000   2.00000   2.00000   2.00000   2.00000   2.00000
                  --------  --------  --------  --------  --------  --------
 0 C  s               2.0       3.8       0.2       0.2       0.5       0.0
 0 C  pz              0.3       0.2       1.5       0.3       2.8       0.3
 0 C  px              1.0       2.3       0.2       0.5       1.5       0.1
 0 C  py              0.5       0.6       0.1       0.0       0.1       0.1
 1 C  s               1.6       4.0       3.1       1.6       3.1       0.3
 1 C  pz              0.7       0.0       7.2       0.5       5.1       0.6
 1 C  px              0.6       0.8       0.0       0.0       1.3       0.6
 1 C  py              4.9       3.6       0.6       0.0       0.0       0.7
 2 H  s               0.6       1.5       5.7       0.9       4.7       0.1
 3 C  s               5.0       2.2       2.3       0.5       0.3       0.6
 3 C  pz              0.4       0.0       4.7       0.2       2.3       0.1
 3 C  px              6.2       0.0       0.0       0.3       0.4       0.5
 3 C  py              0.1       2.6       2.0       2.5       0.1       7.1
 3 C  dx2y2           0.1       0.0       0.0       0.0       0.0       0.0
 4 C  s              11.7       0.0       1.2       1.0       0.3       0.5
 4 C  pz              0.9       0.0       5.4       1.9       0.3       0.9
 4 C  px              2.0       1.6       0.0       0.2       0.9       0.5
 4 C  py              0.8       0.6       0.5       2.5       1.3       2.8
 5 C  s               0.7       1.6       1.6       3.4       0.0       0.1
 5 C  pz              0.2       0.0       7.0       3.9       1.6       0.2
 5 C  px              1.3       2.0       0.4       3.6       3.2       4.8
 5 C  py              5.8       1.7       0.6       0.0       1.3       0.7
 5 C  dyz             0.1       0.0       0.0       0.0       0.0       0.0
 6 H  s               0.1       0.5       4.4       4.1       0.7       0.3
 7 C  s               1.1       8.6       1.8       0.0       0.5       0.3
 7 C  pz              0.4       0.1      10.9       0.1       8.7      10.1
 7 C  px              2.9       0.0       0.0       0.6       0.3       0.7
 7 C  py              0.3       1.3       0.0       3.5       5.5       2.0
 7 C  dyz             0.0       0.0       0.0       0.0       0.3       0.1
 8 H  s               0.6       2.7       6.3       0.1       3.4       5.9
 9 C  s               3.7       2.5       2.2       1.6       0.6       0.3
 9 C  pz              0.6       0.0       8.2       0.5       0.0       3.1
 9 C  px              0.5       6.1       0.0       0.1       0.1       1.1
 9 C  py              1.1       1.3       0.1       2.8       0.7       5.7
 9 C  dx2y2           0.0       0.1       0.0       0.0       0.0       0.0
10 O  s               0.4       0.6       0.3       0.0       1.0       0.8
10 O  pz              0.2       0.2       1.4       0.1       1.4       3.4
10 O  px              0.0       8.8       0.2       1.5      15.4       0.8
10 O  py              0.8       7.6       0.0       0.2       8.8       2.2
10 O  dxz             0.0       0.1       0.0       0.0       0.1       0.0
11 C  s               2.6       1.8       0.1       9.4       0.1       0.0
11 C  pz              0.6       0.1       0.8       3.8       1.3       4.4
11 C  px              1.1       2.1       0.4       0.1       0.4       2.8
11 C  py              0.5       0.0       0.5       2.9       1.2       3.0
12 C  s               3.4       1.7       0.4       1.3       0.0       0.0
12 C  pz              1.1       0.4       0.0       4.8       0.0       1.4
12 C  px              0.9       0.9       0.5       0.6       0.5       1.5
12 C  py              0.0       0.0       0.2       0.0       0.7       1.9
13 C  s               0.1       1.4       0.0       3.1       0.2       0.0
13 C  pz              0.0       0.0       0.1       0.0       0.5       2.6
13 C  px              0.0       0.8       0.0       1.4       0.8       1.5
13 C  py              0.6       0.5       0.0       6.2       0.0       1.9
14 H  s               0.4       2.4       0.0       0.1       0.2       0.0
15 H  s               0.8       1.7       0.8       0.3       1.8       0.2
16 H  s               1.5       1.2       0.0       0.2       0.3       0.1
17 H  s               1.9       1.0       4.5       0.2       1.4       1.1
18 H  s               2.2       1.7       0.8       0.9       0.0       3.0
19 H  s               6.0       0.0       0.1       0.9       1.2       0.7
20 H  s               4.3       0.0       3.6       1.1       0.2       1.2
21 H  s               1.6       0.8       4.9       0.7       0.4       0.9
22 H  s               2.3       0.8       0.8       2.0       0.0       3.9
23 H  s               0.2       4.8       0.1       0.3       7.4       0.9
24 H  s               1.8       0.7       0.3       8.9       0.8       2.5
25 H  s               1.6       1.0       0.4       0.6       0.3       1.4
26 H  s               1.7       0.8       0.0       2.2       0.1       1.0
27 H  s               1.2       0.3       0.1       1.2       0.1       0.0
28 H  s               0.0       1.0       0.0       1.8       0.6       1.2
29 H  s               0.1       0.4       0.0       1.2       0.1       0.1
30 H  s               0.2       0.6       0.1       3.4       0.0       1.8

                     24        25        26        27        28        29   
                  -0.40596  -0.40154  -0.39234  -0.37907  -0.36488  -0.35812
                   2.00000   2.00000   2.00000   2.00000   2.00000   2.00000
                  --------  --------  --------  --------  --------  --------
 0 C  s               0.3       0.0       0.0       0.0       0.1       0.0
 0 C  pz              0.7       4.1       0.8       3.4       2.3       0.4
 0 C  px              5.0       5.1       0.2       0.3       6.5       0.6
 0 C  py              0.0       0.0       7.9       7.4       0.9      13.6
 0 C  dxy             0.0       0.0       0.0       0.0       0.0       0.1
 1 C  s               0.2       0.9       0.2       0.0       0.0       0.3
 1 C  pz              3.7       9.0       0.2       1.6       0.1       0.0
 1 C  px              0.9       0.1       1.5       0.1       8.6       0.0
 1 C  py              0.3       0.1       6.3       2.2       0.6       0.7
 1 C  dxy             0.0       0.0       0.0       0.0       0.0       0.2
 2 H  s               0.8       1.7       0.8       0.2       0.0       0.0
 3 C  s               0.0       0.2       0.0       0.0       0.2       1.2
 3 C  pz              0.1      11.4       4.4       1.4       0.3       0.0
 3 C  px              3.2       0.0       4.3       2.5       3.9       0.0
 3 C  py              0.6       4.0       1.6       0.0       3.3       0.2
 3 C  dxy             0.0       0.1       0.0       0.0       0.0       0.2
 4 C  s               0.0       0.2       0.0       0.2       0.1       0.2
 4 C  pz              4.0       1.6      10.2       3.1       0.3       0.1
 4 C  px              2.3       3.3       0.0       5.0       2.5       1.7
 4 C  py              0.6       0.0       4.2       1.3       0.0      13.4
 4 C  dxy             0.0       0.0       0.0       0.0       0.0       0.3
 5 C  s               0.0       0.3       0.0       0.3       1.3       0.9
 5 C  pz              2.2       1.9       2.0       0.7       0.1       3.6
 5 C  px              1.9       0.0       0.7       0.2       1.2       0.0
 5 C  py              2.3       3.6       0.1       6.1       0.0       0.0
 5 C  dx2y2           0.0       0.0       0.1       0.0       0.1       0.0
 6 H  s               1.0       0.8       1.0       0.0       0.2       0.4
 7 C  s               0.0       0.1       0.0       0.1       0.1       0.5
 7 C  pz              0.0       2.5       0.1       0.0       0.2       0.0
 7 C  px              5.0       0.1       1.4       6.0       2.7       1.3
 7 C  py              0.0       3.6       0.5       0.2       0.2       0.0
 7 C  dyz             0.0       0.0       0.0       0.0       0.0       0.1
 7 C  dx2y2           0.0       0.1       0.0       0.0       0.0       0.1
 7 C  dxy             0.0       0.1       0.0       0.0       0.1       0.0
 8 H  s               0.0       1.5       0.1       0.0       0.1       0.3
 9 C  s               0.1       0.8       0.3       0.0       0.1       0.1
 9 C  pz              2.9       0.3       2.4       0.3       4.7       0.0
 9 C  px              2.7       0.3       2.6       2.7       1.6       3.9
 9 C  py              0.1       3.6       0.1       2.6       1.8       2.0
 9 C  dxy             0.0       0.2       0.0       0.0       0.0       0.0
10 O  s               0.4       0.1       0.1       0.4       0.3       0.7
10 O  pz              0.1       1.4       0.5       0.7       1.1       0.5
10 O  px              0.1       3.2       0.1       1.0       0.5       1.4
10 O  py              2.5       0.5       1.5       3.6       0.0       0.0
11 C  s               0.9       0.1       0.2       0.0       0.5       0.0
11 C  pz              0.5       0.0       1.7       6.0       0.1       1.7
11 C  px              7.8       0.3       0.4       0.4       1.2       1.2
11 C  py              1.3       2.5       4.3       0.4       0.0       3.0
11 C  dx2y2           0.0       0.0       0.0       0.0       0.1       0.0
12 C  s               0.3       0.0       0.0       0.2       0.0       0.0
12 C  pz              5.1       0.0       0.7       1.0       2.2       3.7
12 C  px              0.2       1.3       0.5       4.2      10.6       3.7
12 C  py              6.1       2.5       4.8       2.5       1.6       2.4
13 C  s               0.2       0.2       0.0       0.0       0.1       0.0
13 C  pz              6.3       2.3       4.3       6.0       1.3       0.8
13 C  px              2.0       1.2       1.8       4.9       7.5       0.4
13 C  py              5.8       0.7       0.0       0.9       1.6       1.5
14 H  s               1.3       2.1       1.7       4.3       0.0       3.4
15 H  s               0.1       1.4       1.1       0.6       1.1       0.0
16 H  s               1.3       1.3       1.9       1.5       2.3       6.4
17 H  s               0.1       2.0       2.3       0.5       0.1       0.4
18 H  s               0.5       6.0       0.6       0.0       2.5       0.8
19 H  s               0.7       0.6       2.2       0.0       0.1      10.5
20 H  s               1.3       0.3       4.5       1.4       0.2       0.3
21 H  s               1.4       0.5       1.7       0.2       1.9       0.2
22 H  s               0.1       2.0       0.2       0.4       1.3       2.4
23 H  s               0.1       0.7       0.1       0.0       0.2       0.7
24 H  s               0.1       0.2       1.8       0.5       0.1       0.2
25 H  s               0.0       0.2       1.2       2.7       4.5       0.5
26 H  s               0.0       0.7       1.8       0.0       0.0       3.6
27 H  s               5.1       1.4       0.4       0.5       4.7       0.5
28 H  s               0.3       1.0       1.6       1.1       3.6       0.0
29 H  s               6.3       0.9       0.6       2.9       3.2       0.2
30 H  s               0.2       0.0       0.8       2.4       0.2       1.2

                     30        31        32        33        34        35   
                  -0.34602  -0.33878  -0.33429  -0.32447  -0.31356  -0.30376
                   2.00000   2.00000   2.00000   2.00000   2.00000   2.00000
                  --------  --------  --------  --------  --------  --------
 0 C  pz              8.6       2.2      16.4       0.3       2.2       1.9
 0 C  px              0.9       0.7       0.7       2.6       0.4       0.7
 0 C  py              4.1       0.0       1.1       0.9      12.6       0.7
 0 C  dz2             0.1       0.0       0.1       0.0       0.2       0.0
 0 C  dyz             0.0       0.0       0.1       0.0       0.0       0.0
 0 C  dxy             0.0       0.0       0.0       0.0       0.2       0.0
 1 C  pz              0.1       0.0       0.0       0.6       0.9       1.1
 1 C  px              0.3       0.0       0.3       2.7       1.1       0.4
 1 C  py              0.7       0.2       0.4       0.7       3.3       0.7
 1 C  dxy             0.0       0.0       0.0       0.1       0.1       0.0
 2 H  s               0.1       0.0       0.1       0.1       1.1       0.6
 3 C  s               0.0       0.2       0.0       0.1       0.0       0.0
 3 C  pz              0.6       1.7       4.1       5.6       0.3       6.7
 3 C  px              0.0       0.1       2.4       1.9       2.1       0.1
 3 C  py              1.6       1.1       2.4       4.4       0.4       0.0
 3 C  dz2             0.0       0.0       0.0       0.1       0.0       0.2
 4 C  s               0.2       0.0       0.4       0.0       0.0       0.1
 4 C  pz              0.1       0.5       0.1       1.6       1.2      10.4
 4 C  px              0.4       0.0       0.5       3.6       0.3       0.0
 4 C  py              3.2       5.7       0.6       0.0       1.2       0.1
 4 C  dz2             0.1       0.0       0.0       0.0       0.1       0.3
 4 C  dx2y2           0.0       0.0       0.0       0.2       0.0       0.0
 5 C  s               0.6       0.1       0.4       0.0       0.0       0.0
 5 C  pz              1.3       5.4       0.7       2.9       2.0       2.5
 5 C  px              0.4       0.0       0.0       0.3       0.0       0.5
 5 C  py              2.5       0.2       0.0       0.6       3.9       1.5
 5 C  dz2             0.1       0.0       0.0       0.0       0.1       0.0
 5 C  dxy             0.2       0.1       0.1       0.0       0.0       0.0
 6 H  s               2.3       2.5       0.5       1.8       2.2       0.9
 7 C  s               0.7       0.4       0.1       0.2       0.0       0.0
 7 C  pz              1.1       0.0       0.5       0.5       1.8       0.2
 7 C  px              0.2       0.3       1.3       3.6       2.7       0.1
 7 C  py              3.6       0.1       1.0       4.0       2.2       0.1
 7 C  dz2             0.0       0.0       0.0       0.0       0.1       0.0
 8 H  s               0.3       0.2       0.2       0.3       2.7       0.3
 9 C  s               0.0       0.0       0.0       0.1       0.2       0.0
 9 C  pz              2.1       0.1       3.9       4.2       4.4       4.2
 9 C  px              2.4       0.9       0.5       2.0       2.8       0.7
 9 C  py              6.7       2.3       0.0       0.0       0.7       0.0
 9 C  dx2y2           0.1       0.0       0.0       0.1       0.0       0.0
10 O  s               0.0       0.1       0.4       2.5       0.1       0.0
10 O  pz              0.2       0.4       2.1      17.4       1.9       0.0
10 O  px              2.0       0.7       0.0       0.3       1.4       0.2
10 O  py              0.3       0.1       0.7       2.7       2.6       0.1
11 C  pz              1.0       0.5       0.0       0.2       1.8       6.2
11 C  px              0.0       0.6       0.0       0.1       1.0       0.3
11 C  py              1.2       1.3       0.1       0.1       0.4       0.2
11 C  dz2             0.0       0.1       0.1       0.0       0.0       0.0
11 C  dyz             0.0       0.0       0.0       0.0       0.1       0.1
12 C  pz              0.0       3.7       5.0       0.5       2.5      10.4
12 C  px              3.3       0.1       7.1       5.1       2.0       0.9
12 C  py              1.3       9.4       3.2       0.0       4.0       1.6
12 C  dyz             0.0       0.1       0.0       0.0       0.2       0.0
12 C  dx2y2           0.0       0.1       0.1       0.0       0.0       0.1
[...]
 7 C  dyz             0.3       0.0       2.0       0.0       1.2       0.2
 7 C  dx2y2           0.9       0.6       2.1       0.1       0.2      11.6
 7 C  dxy             2.3       0.1       0.2       0.1       7.6       3.0
 8 H  s               0.1       0.0       0.1       0.0       0.0       0.0
 9 C  s               0.1       0.1       0.5       0.1       0.0       0.0
 9 C  pz              0.0       0.2       0.0       0.0       0.1       0.0
 9 C  px              0.7       1.0       0.3       0.0       0.5       0.4
 9 C  py              0.3       1.3       0.0       0.3       0.1       0.0
 9 C  dz2             0.0       0.5       1.3       0.3       0.2       0.2
 9 C  dxz             4.1       1.3       0.1       0.3       2.5       0.5
 9 C  dyz             1.2       5.0       0.0       0.4       0.0       0.0
 9 C  dx2y2           0.8       8.3       1.4       0.0       0.9       1.0
 9 C  dxy             0.0       1.2       1.0       0.0       2.9       0.0
10 O  s               0.0       0.0       0.1       0.0       0.1       1.0
10 O  pz              0.0       0.0       0.3       0.1       0.9       0.0
10 O  px              0.0       0.0       0.2       0.0       0.5       1.0
10 O  py              0.0       0.1       0.0       0.1       0.1       0.3
10 O  dz2             0.3       1.3       7.3       3.9      19.6       9.1
10 O  dxz             0.5       0.9       8.8       0.1       6.4      40.3
10 O  dyz             0.2       1.5       4.9       2.1      14.6       0.0
10 O  dx2y2           0.1       1.8       0.0       1.5       4.8      13.9
10 O  dxy             1.7       1.6       0.0       0.0       0.5       0.2
11 C  s               0.0       0.0       0.2       0.0       0.3       0.0
11 C  pz              0.4       0.1       0.1       0.1       0.0       0.0
11 C  px              0.8       0.0       1.4       0.3       0.9       0.0
11 C  py              0.4       0.1       0.1       0.1       0.0       0.0
11 C  dz2             0.0       0.0       3.3       0.4       0.7       0.0
11 C  dxz             0.0       1.5       9.0       1.2       0.9       0.0
11 C  dyz             1.0       0.7       0.3       0.8       0.3       0.2
11 C  dx2y2           8.5       1.1       4.5       2.5       3.0       0.1
11 C  dxy             3.7       2.0       3.9       4.0       0.1       0.3
12 C  s               0.1       0.0       0.4       0.0       0.0       0.0
12 C  pz              0.1       0.1       0.5       0.1       0.0       0.0
12 C  px              0.0       0.0       0.3       0.0       0.1       0.0
12 C  py              0.0       0.0       0.2       0.0       0.0       0.0
12 C  dz2             0.1       0.6       1.0       0.8       0.0       0.0
12 C  dxz             0.0       0.1       2.9       0.0       0.3       0.0
12 C  dyz             0.2       0.1       0.2       0.1       0.0       0.0
12 C  dx2y2           0.0       0.1       0.0       0.2       0.0       0.0
12 C  dxy             0.1       0.0       0.4       0.0       0.0       0.0
13 C  s               0.5       0.1       0.0       0.2       0.1       0.0
13 C  pz              0.2       0.1       0.0       0.1       0.0       0.0
13 C  px              0.4       0.1       0.0       0.1       0.1       0.0
13 C  py              0.5       0.2       0.1       0.2       0.0       0.0
13 C  dz2             0.2       0.1       0.0       0.3       0.0       0.0
13 C  dxz             0.5       0.1       0.0       0.1       0.0       0.0
13 C  dyz             1.2       0.2       0.4       0.2       0.0       0.0
13 C  dx2y2           0.6       1.0       1.7       0.7       0.0       0.1
13 C  dxy             2.6       0.6       0.1       0.8       0.3       0.0
16 H  s               0.1       0.0       0.0       0.0       0.0       0.0
18 H  s               0.0       0.2       0.1       0.0       0.0       0.0
21 H  s               0.0       0.0       0.1       0.0       0.0       0.0
23 H  s               0.0       0.0       0.3       0.0       0.9       1.6

                    192       193   
                   2.96009   3.32261
                   0.00000   0.00000
                  --------  --------
 1 C  py              0.1       0.0
 1 C  dxz             0.2       0.0
 1 C  dyz             0.5       0.0
 1 C  dx2y2           0.5       0.0
 4 C  dx2y2           0.2       0.1
 5 C  px              0.1       0.1
 5 C  dz2             0.2       0.0
 5 C  dxz             0.2       0.2
 5 C  dyz             0.7       0.0
 5 C  dx2y2           0.1       0.2
 5 C  dxy             0.4       0.0
 7 C  s               0.1       2.0
 7 C  pz              0.0       0.8
 7 C  px              0.2       0.8
 7 C  py              0.1       2.3
 7 C  dz2             0.6       0.2
 7 C  dxz             1.2       2.0
 7 C  dyz             2.4       5.3
 7 C  dx2y2           2.4       2.9
 7 C  dxy             1.6       3.6
 8 H  s               0.0       0.1
 9 C  s               0.1       0.1
 9 C  px              0.3       0.1
 9 C  dz2             0.4       0.2
 9 C  dxz             1.3       0.1
 9 C  dyz             0.1       0.1
 9 C  dx2y2           0.1       0.3
 9 C  dxy             1.5       0.1
10 O  s               2.1       4.9
10 O  pz              0.4       0.4
10 O  px              0.1       1.8
10 O  py              0.0       3.0
10 O  dz2             2.6       1.6
10 O  dxz             7.8       9.4
10 O  dyz             1.8      27.2
10 O  dx2y2          20.9      13.0
10 O  dxy            42.2      15.7
23 H  s               5.2       0.8


                      *****************************
                      * MAYER POPULATION ANALYSIS *
                      *****************************

  NA   - Mulliken gross atomic population
  ZA   - Total nuclear charge
  QA   - Mulliken gross atomic charge
  VA   - Mayer's total valence
  BVA  - Mayer's bonded valence
  FA   - Mayer's free valence

  ATOM       NA         ZA         QA         VA         BVA        FA
  0 C      6.1960     6.0000    -0.1960     3.9476     3.9476    -0.0000
  1 C      6.2131     6.0000    -0.2131     4.2870     4.2870     0.0000
  2 H      0.9397     1.0000     0.0603     0.9466     0.9466     0.0000
  3 C      6.0917     6.0000    -0.0917     4.0851     4.0851    -0.0000
  4 C      6.1104     6.0000    -0.1104     4.1116     4.1116    -0.0000
  5 C      6.1269     6.0000    -0.1269     4.0263     4.0263     0.0000
  6 H      0.9472     1.0000     0.0528     0.9748     0.9748     0.0000
  7 C      5.9701     6.0000     0.0299     4.2209     4.2209     0.0000
  8 H      0.9564     1.0000     0.0436     0.9605     0.9605     0.0000
  9 C      6.0682     6.0000    -0.0682     3.9822     3.9822    -0.0000
 10 O      8.4041     8.0000    -0.4041     2.0366     2.0366    -0.0000
 11 C      6.1527     6.0000    -0.1527     4.2148     4.2148    -0.0000
 12 C      6.2586     6.0000    -0.2586     3.9498     3.9498    -0.0000
 13 C      6.2311     6.0000    -0.2311     4.0100     4.0100     0.0000
 14 H      0.9054     1.0000     0.0946     0.9570     0.9570     0.0000
 15 H      0.9099     1.0000     0.0901     0.9670     0.9670     0.0000
 16 H      0.9039     1.0000     0.0961     0.9574     0.9574     0.0000
 17 H      0.9347     1.0000     0.0653     0.9630     0.9630    -0.0000
 18 H      0.9245     1.0000     0.0755     0.9502     0.9502     0.0000
 19 H      0.9150     1.0000     0.0850     0.9547     0.9547    -0.0000
 20 H      0.9315     1.0000     0.0685     0.9590     0.9590    -0.0000
 21 H      0.9299     1.0000     0.0701     0.9744     0.9744    -0.0000
 22 H      0.9201     1.0000     0.0799     0.9657     0.9657    -0.0000
 23 H      0.6942     1.0000     0.3058     0.8807     0.8807    -0.0000
 24 H      0.9492     1.0000     0.0508     0.9515     0.9515     0.0000
 25 H      0.9063     1.0000     0.0937     0.9531     0.9531     0.0000
 26 H      0.9066     1.0000     0.0934     0.9655     0.9655    -0.0000
 27 H      0.8995     1.0000     0.1005     1.0061     1.0061    -0.0000
 28 H      0.9042     1.0000     0.0958     0.9558     0.9558    -0.0000
 29 H      0.8955     1.0000     0.1045     0.9549     0.9549    -0.0000
 30 H      0.9032     1.0000     0.0968     0.9622     0.9622    -0.0000

  Mayer bond orders larger than 0.100000
B(  0-C ,  1-C ) :   1.1148 B(  0-C , 14-H ) :   0.9489 B(  0-C , 15-H ) :   0.9462 
B(  0-C , 16-H ) :   0.9486 B(  1-C ,  2-H ) :   0.8900 B(  1-C ,  3-C ) :   1.0974 
B(  1-C ,  9-C ) :   1.0847 B(  3-C ,  4-C ) :   1.1423 B(  3-C , 17-H ) :   0.9021 
B(  3-C , 18-H ) :   0.9112 B(  4-C ,  5-C ) :   1.1047 B(  4-C , 19-H ) :   0.8924 
B(  4-C , 20-H ) :   0.8971 B(  5-C ,  6-H ) :   0.8714 B(  5-C ,  7-C ) :   1.0237 
B(  5-C , 11-C ) :   1.0014 B(  7-C ,  8-H ) :   0.8914 B(  7-C ,  9-C ) :   1.1037 
B(  7-C , 10-O ) :   1.0921 B(  9-C , 21-H ) :   0.8938 B(  9-C , 22-H ) :   0.9054 
B( 10-O , 23-H ) :   0.8365 B( 11-C , 12-C ) :   1.1147 B( 11-C , 13-C ) :   1.1515 
B( 11-C , 24-H ) :   0.8880 B( 12-C , 25-H ) :   0.9484 B( 12-C , 26-H ) :   0.9457 
B( 12-C , 27-H ) :   0.9277 B( 13-C , 28-H ) :   0.9466 B( 13-C , 29-H ) :   0.9339 
B( 13-C , 30-H ) :   0.9414 

-------
TIMINGS
-------

Total SCF time: 0 days 0 hours 0 min 10 sec 

Total time                  ....      10.603 sec
Sum of individual times     ....      10.143 sec  ( 95.7%)

SCF preparation             ....       0.224 sec  (  2.1%)
Fock matrix formation       ....       9.076 sec  ( 85.6%)
  Startup                   ....       0.071 sec  (  0.8% of F)
  Split-RI-J                ....       4.075 sec  ( 44.9% of F)
  XC integration            ....       4.459 sec  ( 49.1% of F)
    Basis function eval.    ....       1.511 sec  ( 33.9% of XC)
    Density eval.           ....       0.877 sec  ( 19.7% of XC)
    XC-Functional eval.     ....       0.286 sec  (  6.4% of XC)
    XC-Potential eval.      ....       1.121 sec  ( 25.1% of XC)
Diagonalization             ....       0.000 sec  (  0.0%)
Density matrix formation    ....       0.209 sec  (  2.0%)
Total Energy calculation    ....       0.040 sec  (  0.4%)
Population analysis         ....       0.099 sec  (  0.9%)
Orbital Transformation      ....       0.065 sec  (  0.6%)
Orbital Orthonormalization  ....       0.000 sec  (  0.0%)
DIIS solution               ....       0.346 sec  (  3.3%)
  MO trafo                  ....       0.000 sec  (  0.0 % of DIIS)
  Orb grad                  ....       0.000 sec  (  0.0 % of DIIS)
  Energy W gradient         ....       0.000 sec  (  0.0 % of DIIS)
  DIIS error                ....       0.005 sec  (  1.5 % of DIIS)
  DIIS work                 ....       0.284 sec  ( 82.1 % of DIIS)
  Form Q                    ....       0.000 sec  (  0.0 % of DIIS)
  Form QpQm                 ....       0.000 sec  (  0.0 % of DIIS)
  Exp/Cayley                ....       0.000 sec  (  0.0 % of DIIS)
  Orb update                ....       0.000 sec  (  0.0 % of DIIS)
  Wake-sleep                ....       0.025 sec  (  7.1 % of DIIS)
SOSCF solution              ....       0.084 sec  (  0.8%)
  MO trafo                  ....       0.045 sec  ( 54.1 % of SOSCF)
  Orb grad                  ....       0.003 sec  (  3.5 % of SOSCF)
  Rot update                ....       0.015 sec  ( 17.7 % of SOSCF)
  Step                      ....       0.021 sec  ( 24.6 % of SOSCF)
Finished LeanSCF after  10.7 sec

Maximum memory used throughout the entire LEANSCF-calculation: 20.2 MB


-------------------------------------------------------------------------------
                          DFT DISPERSION CORRECTION                            
                                                                               
                                DFTD4 V3.4.0                                   
-------------------------------------------------------------------------------
The PBE functional is recognized
Active option DFTDOPT                   ...         5   

-------------------------   ----------------
Dispersion correction           -0.031320927
-------------------------   ----------------

------------------   -----------------
gCP correction             0.144178614
------------------   -----------------

-------------------------   --------------------
FINAL SINGLE POINT ENERGY      -467.196150147557
-------------------------   --------------------


------------------------------------------------------------------------------
                              ORCA PROPERTY CALCULATIONS
------------------------------------------------------------------------------

GBWName                                 ... sp.gbw
Number of atoms                         ...     31
Number of basis functions               ...    194
Max core memory                         ...   1024 MB

Electric properties:
Dipole moment                           ... YES
Quadrupole moment                       ...  NO
Static polarizability (Dipole/Dipole)   ...  NO
Static polarizability (Dipole/Quad.)    ...  NO
Static polarizability (Quad./Quad.)     ...  NO
Static polarizability (Velocity)        ...  NO

Atomic electric properties:
Dipole moment                           ...  NO
Quadrupole moment                       ...  NO
Static polarizability                   ...  NO

Choice of electric origin               ... Center of mass
Position of electric origin             ...     0.000001     0.000017    -0.000004

General magnetic properties:
Magnetizability                         ...  NO

EPR properties:
g-Tensor (aka g-matrix)                 ...  NO
Zero-Field splitting spin-orbit         ...  NO
Zero-field splitting spin-spin          ...  NO
Hyperfine couplings                     ...  NO (   0 nuclei)
Quadrupole couplings                    ...  NO (   0 nuclei)
Contact density                         ...  NO (   0 nuclei)

NMR properties:
Chemical shifts                         ...  NO (   0 nuclei)
Spin-rotation constants                 ...  NO (   0 nuclei)
Spin-spin couplings                     ...  NO (   0 nuclei,    0 pairs)

Choice of magnetic origin               ... GIAO
Position of magnetic origin             ...     0.000000     0.000000     0.000000

Properties with geometric perturbations:
SCF Hessian                             ...  NO
IR spectrum                             ...  NO
VCD spectrum                            ...  NO
X-ray spectroscopy properties:
SCF XES/XAS/RIXS spectra                ...  NO


-------------
DIPOLE MOMENT
-------------

Method             : SCF
Type of density    : Electron Density
Multiplicity       :   1
Irrep              :   0
Energy             :  -467.3090078337385194 Eh
Relativity type    : 
Basis              : AO
                                X                 Y                 Z
Electronic contribution:      0.789653957      -4.590803412       0.343196703
Nuclear contribution   :     -0.988653771       4.779056042      -0.830237592
                        -----------------------------------------
Total Dipole Moment    :     -0.198999814       0.188252631      -0.487040890
                        -----------------------------------------
Magnitude (a.u.)       :      0.558792275
Magnitude (Debye)      :      1.420337088



--------------------
Rotational spectrum 
--------------------
 
Rotational constants in cm-1:             0.061539             0.023344             0.018259 
Rotational constants in MHz :          1844.884583           699.822616           547.399424 

Dipole components along the rotational axes: 
x,y,z [a.u.] :    -0.198127     0.342594    -0.394492 
x,y,z [Debye]:    -0.503599     0.870804    -1.002719 

 

Dipole moment calculation done in   0.0 sec 

Maximum memory used throughout the entire PROP-calculation: 12.8 MB

--------------------------------
SUGGESTED CITATIONS FOR THIS RUN
--------------------------------

Below you find a list of papers that are relevant to this ORCA run
We neither can nor want to force you to cite these papers, but we appreciate if you do
You receive ORCA, which is the product of decades of hard work by many enthusiastic individuals, for free
The only thing we kindly ask in return is that you cite our papers,
We deeply appreciate it, if you show your appreciation for ORCA by not just citing the generic ORCA reference.

Please note that relegating all ORCA citations to the supporting information does *not* help us.
SI sections are not indexed - citations you put there will not count into any citation statistics
But we need these citations in order to attract the funding resources that allow us to do what we are doing

Therefore, if you are a happy ORCA user, please consider citing a few of the papers listed below in the main body of your paper

In addition to the list printed below, the program has created the file sp.bibtex that contains the list in bibtex format
You can import this file easily into all common literature databanks and citation aid programs


List of essential papers. We consider these as the minimum necessary citations

  1. Neese,F.
     Software update: the ORCA program system, version 5.0
     WIRES Comput. Molec. Sci., 2022 12(1)e1606
     doi.org/10.1002/wcms.1606

List of papers to cite with high priority. The work reported in these papers was absolutely
necessary for this run to complete.
Our perspective: the developers of density functionals and basis sets usually get cited in chemistry papers
Good! But without the algorithms to do something with them, the functionals or basis sets would not do anything.
Hence, in our opinion, the algorithm design and method developments papers are equally worthy of getting cited

  1. Neese,F.
     An improvement of the resolution of the identity approximation for the formation of the Coulomb matrix
     J. Comp. Chem., 2003 24(14)1740-1747
     doi.org/10.1002/jcc.10318
  2. Neese,F.
     The SHARK Integral Generation and Digestion System
     J. Comp. Chem., 2022  1-16
     doi.org/10.1002/jcc.26942
  3. Caldeweyher,E.; Bannwarth,C.; Grimme,S.
     Extension of the D3 dispersion coefficient model
     J. Chem. Phys., 2017 147 034112-XXXX
     doi.org/10.1063/1.4993215
  4. Caldeweyher,E.; Ehlert,S.; Hansen,A.; Neugebauer,H.; Spicher,S.; Bannwarth,C.; Grimme,S.
     A generally applicable atomic-charge dependent London dispersion correction
     J. Chem. Phys., 2019 150 154122-XXXX
     doi.org/10.1063/1.5090222
  5. Caldeweyher,E.; Mewes,J.; Ehlert,S.; Grimme,S.
     Extension and evaluation of the D4 London-dispersion model for periodic systems
     Phys. Chem. Chem. Phys., 2020 22(16)8499-8512
     doi.org/10.1039/D0CP00502A

List of suggested additional citations. These are papers that are important in the 'surrounding' of 
of this run, or papers that preceded the highly important papers. If you like your results we are grateful for a citation.

  1. Neese,F.
     The ORCA program system
     WIRES Comput. Molec. Sci., 2012 2(1)73-78
     doi.org/10.1002/wcms.81
  2. Neese,F.
     Software update: the ORCA program system, version 4.0
     WIRES Comput. Molec. Sci., 2018 8(1)1-6
     doi.org/10.1002/wcms.1327
  3. Neese,F.; Wennmohs,F.; Becker,U.; Riplinger,C.
     The ORCA quantum chemistry program package
     J. Chem. Phys., 2020 152 Art. No. L224108
     doi.org/10.1063/5.0004608

List of optional additional citations

  1. Neese,F.
     Approximate second-order SCF convergence for spin unrestricted wavefunctions
     Chem. Phys. Lett., 2000 325(1-3)93-98
     doi.org/10.1016/s0009-2614(00)00662-x

Timings for individual modules:

Sum of individual times          ...       13.288 sec (=   0.221 min)
Startup calculation              ...        1.261 sec (=   0.021 min)   9.5 %
SCF iterations                   ...       11.931 sec (=   0.199 min)  89.8 %
Property calculations            ...        0.096 sec (=   0.002 min)   0.7 %
                             ****ORCA TERMINATED NORMALLY****
TOTAL RUN TIME: 0 days 0 hours 0 minutes 14 seconds 189 msec
