      -----------------------------------------------------------      
     |                   =====================                   |     
     |                           x T B                           |     
     |                   =====================                   |     
     |                         S. Grimme                         |     
     |          Mulliken Center for Theoretical Chemistry        |     
     |                    University of Bonn                     |     
      -----------------------------------------------------------      

   * xtb version 6.7.1 (edcfbbe) compiled by 'albert@albert-system' on 2024-07-22

   xtb is free software: you can redistribute it and/or modify it under
   the terms of the GNU Lesser General Public License as published by
   the Free Software Foundation, either version 3 of the License, or
   (at your option) any later version.
   
   xtb is distributed in the hope that it will be useful,
   but WITHOUT ANY WARRANTY; without even the implied warranty of
   MERCHANTABILITY or FITNESS FOR A PARTICULAR PURPOSE.  See the
   GNU Lesser General Public License for more details.
   
   Cite this work as:
   * C. Bannwarth, E. Caldeweyher, S. Ehlert, A. Hansen, P. Pracht,
     J. Seibert, S. Spicher, S. Grimme, WIREs Comput. Mol. Sci., 2020, 11,
     e01493. DOI: 10.1002/wcms.1493
   
   for GFN2-xTB:
   * C. Bannwarth, S. Ehlert and S. Grimme., J. Chem. Theory Comput., 2019,
     15, 1652-1671. DOI: 10.1021/acs.jctc.8b01176
   for GFN1-xTB:
   * S. Grimme, C. Bannwarth, P. Shushkov, J. Chem. Theory Comput., 2017,
     13, 1989-2009. DOI: 10.1021/acs.jctc.7b00118
   for GFN0-xTB:
   * P. Pracht, E. Caldeweyher, S. Ehlert, S. Grimme, ChemRxiv, 2019, preprint.
     DOI: 10.26434/chemrxiv.8326202.v1
   for GFN-FF:
   * S. Spicher and S. Grimme, Angew. Chem. Int. Ed., 2020, 59, 15665-15673.
     DOI: 10.1002/anie.202004239
   
   for ALPB and GBSA implicit solvation:
   * S. Ehlert, M. Stahn, S. Spicher, S. Grimme, J. Chem. Theory Comput.,
     2021, 17, 4250-4261. DOI: 10.1021/acs.jctc.1c00471
   
   for ddCOSMO and CPCM-X implicit solvation:
   * M. Stahn, S. Ehlert, S. Grimme, J. Phys. Chem. A,
     2023, XX, XXXX-XXXX. DOI: 10.1021/acs.jpca.3c04382
   
   for DFT-D4:
   * E. Caldeweyher, C. Bannwarth and S. Grimme, J. Chem. Phys., 2017,
     147, 034112. DOI: 10.1063/1.4993215
   * E. Caldeweyher, S. Ehlert, A. Hansen, H. Neugebauer, S. Spicher,
     C. Bannwarth and S. Grimme, J. Chem. Phys., 2019, 150, 154122.
     DOI: 10.1063/1.5090222
   * E. Caldeweyher, J.-M. Mewes, S. Ehlert and S. Grimme, Phys. Chem. Chem. Phys.
     2020, 22, 8499-8512. DOI: 10.1039/D0CP00502A
   
   for sTDA-xTB:
   * S. Grimme and C. Bannwarth, J. Chem. Phys., 2016, 145, 054103.
     DOI: 10.1063/1.4959605
   
   in the mass-spec context:
   * V. Asgeirsson, C. Bauer and S. Grimme, Chem. Sci., 2017, 8, 4879.
     DOI: 10.1039/c7sc00601b
   * J. Koopman and S. Grimme, ACS Omega 2019, 4, 12, 15120-15133.
     DOI: 10.1021/acsomega.9b02011
   
   for metadynamics refer to:
   * S. Grimme, J. Chem. Theory Comput., 2019, 155, 2847-2862
     DOI: 10.1021/acs.jctc.9b00143
   
   for SPH calculations refer to:
   * S. Spicher and S. Grimme, J. Chem. Theory Comput., 2021, 17, 1701-1714
     DOI: 10.1021/acs.jctc.0c01306
   
   for ONIOM refer to:
   * C. Plett, A. Katbashev, S. Ehlert, S. Grimme, M. Bursch,
     Phys. Chem. Chem. Phys., 2023, 25, 17860-17868. DOI: 10.1039/D3CP02178E
   
   for DIPRO refer to:
   * J. Kohn, N. Gildemeister, S. Grimme, D. Fazzi, A. Hansen,
     J. Chem. Phys., 2023, just accepted.
   
   for PTB refer to:
   * S. Grimme, M. Mueller, A. Hansen, J. Chem. Phys., 2023, 158, 124111.
     DOI: 10.1063/5.0137838
   
   with help from (in alphabetical order)
   P. Atkinson, C. Bannwarth, F. Bohle, G. Brandenburg, E. Caldeweyher
   M. Checinski, S. Dohm, S. Ehlert, S. Ehrlich, I. Gerasimov, C. Hölzer
   A. Katbashev, J. Kohn, J. Koopman, C. Lavigne, S. Lehtola, F. März, M. Müller,
   F. Musil, H. Neugebauer, J. Pisarek, C. Plett, P. Pracht, F. Pultar,
   J. Seibert, P. Shushkov, S. Spicher, M. Stahn, M. Steiner, T. Strunk,
   J. Stückrath, T. Rose, and J. Unsleber
   
 * started run on 2025/04/04 at 13:19:53.647     
   ID    Z sym.   atoms
    1    6 C      1, 3, 5, 6
    2    8 O      2, 4
    3    7 N      7
    4    1 H      8-12

           -------------------------------------------------
          |                Calculation Setup                |
           -------------------------------------------------

          program call               : /srv/scratch/z5358697/.xtb/bin/xtb gas.coord --gfn2 --sp --chrg 0 --norestart --parallel 1
          hostname                   : k142
          coordinate file            : gas.coord
          omp threads                :                     1


           -------------------------------------------------
          |                 G F N 2 - x T B                 |
           -------------------------------------------------

        Reference                      10.1021/acs.jctc.8b01176
      * Hamiltonian:
        H0-scaling (s, p, d)           1.850000    2.230000    2.230000
        zeta-weighting                 0.500000
      * Dispersion:
        s8                             2.700000
        a1                             0.520000
        a2                             5.000000
        s9                             5.000000
      * Repulsion:
        kExp                           1.500000    1.000000
        rExp                           1.000000
      * Coulomb:
        alpha                          2.000000
        third order                    shell-resolved
        anisotropic                    true
        a3                             3.000000
        a5                             4.000000
        cn-shift                       1.200000
        cn-exp                         4.000000
        max-rad                        5.000000


          ...................................................
          :                      SETUP                      :
          :.................................................:
          :  # basis functions                  33          :
          :  # atomic orbitals                  33          :
          :  # shells                           19          :
          :  # electrons                        38          :
          :  max. iterations                   250          :
          :  Hamiltonian                  GFN2-xTB          :
          :  restarted?                      false          :
          :  GBSA solvation                  false          :
          :  PC potential                    false          :
          :  electronic temp.          300.0000000     K    :
          :  accuracy                    1.0000000          :
          :  -> integral cutoff          0.2500000E+02      :
          :  -> integral neglect         0.1000000E-07      :
          :  -> SCF convergence          0.1000000E-05 Eh   :
          :  -> wf. convergence          0.1000000E-03 e    :
          :  Broyden damping             0.4000000          :
          :  net charge                          0          :
          :  unpaired electrons                  0          :
          ...................................................

 iter      E             dE          RMSdq      gap      omega  full diag
   1    -22.3591269 -0.223591E+02  0.548E+00    5.27       0.0  T
   2    -22.3983708 -0.392439E-01  0.318E+00    4.77       1.0  T
   3    -22.3938767  0.449413E-02  0.198E+00    4.95       1.0  T
   4    -22.4096313 -0.157547E-01  0.763E-01    5.02       1.0  T
   5    -22.4143972 -0.476588E-02  0.150E-01    4.89       1.0  T
   6    -22.4144550 -0.577882E-04  0.638E-02    4.90       1.0  T
   7    -22.4144653 -0.102669E-04  0.190E-02    4.89       1.5  T
   8    -22.4144659 -0.592597E-06  0.544E-03    4.89       5.3  T
   9    -22.4144659 -0.550074E-07  0.260E-03    4.89      11.1  T
  10    -22.4144659 -0.706026E-08  0.614E-04    4.89      47.0  T
  11    -22.4144659 -0.547814E-09  0.259E-04    4.89     111.7  T

   *** convergence criteria satisfied after 11 iterations ***

         #    Occupation            Energy/Eh            Energy/eV
      -------------------------------------------------------------
         1        2.0000           -0.7723630             -21.0171
       ...           ...                  ...                  ...
        13        2.0000           -0.5277385             -14.3605
        14        2.0000           -0.4971395             -13.5279
        15        2.0000           -0.4900554             -13.3351
        16        2.0000           -0.4791840             -13.0393
        17        2.0000           -0.4687959             -12.7566
        18        2.0000           -0.4449182             -12.1068
        19        2.0000           -0.4381071             -11.9215 (HOMO)
        20                         -0.2583069              -7.0289 (LUMO)
        21                         -0.2173565              -5.9146
        22                         -0.2121551              -5.7730
        23                         -0.0221895              -0.6038
        24                          0.1053818               2.8676
       ...                                ...                  ...
        33                          1.1273230              30.6760
      -------------------------------------------------------------
                  HL-Gap            0.1798002 Eh            4.8926 eV
             Fermi-level           -0.3482070 Eh           -9.4752 eV

 SCC (total)                   0 d,  0 h,  0 min,  0.007 sec
 SCC setup                      ...        0 min,  0.000 sec (  2.107%)
 Dispersion                     ...        0 min,  0.000 sec (  0.709%)
 classical contributions        ...        0 min,  0.000 sec (  0.213%)
 integral evaluation            ...        0 min,  0.001 sec ( 11.583%)
 iterations                     ...        0 min,  0.004 sec ( 52.902%)
 molecular gradient             ...        0 min,  0.002 sec ( 30.897%)
 printout                       ...        0 min,  0.000 sec (  1.428%)

         :::::::::::::::::::::::::::::::::::::::::::::::::::::
         ::                     SUMMARY                     ::
         :::::::::::::::::::::::::::::::::::::::::::::::::::::
         :: total energy             -22.130572153478 Eh    ::
         :: gradient norm              0.029275088338 Eh/a0 ::
         :: HOMO-LUMO gap              4.892613216645 eV    ::
         ::.................................................::
         :: SCC energy               -22.414455521984 Eh    ::
         :: -> isotropic ES            0.051529859040 Eh    ::
         :: -> anisotropic ES          0.000048128846 Eh    ::
         :: -> anisotropic XC          0.017123850538 Eh    ::
         :: -> dispersion             -0.006643749602 Eh    ::
         :: repulsion energy           0.283883368506 Eh    ::
         :: add. restraining           0.000000000000 Eh    ::
         :: total charge              -0.000000000000 e     ::
         :::::::::::::::::::::::::::::::::::::::::::::::::::::

           -------------------------------------------------
          |                Property Printout                |
           -------------------------------------------------

    * Orbital Energies and Occupations

         #    Occupation            Energy/Eh            Energy/eV
      -------------------------------------------------------------
         1        2.0000           -0.7723630             -21.0171
       ...           ...                  ...                  ...
         7        2.0000           -0.6163315             -16.7712
         8        2.0000           -0.6004143             -16.3381
         9        2.0000           -0.5839775             -15.8908
        10        2.0000           -0.5591876             -15.2163
        11        2.0000           -0.5388753             -14.6635
        12        2.0000           -0.5318419             -14.4722
        13        2.0000           -0.5277385             -14.3605
        14        2.0000           -0.4971395             -13.5279
        15        2.0000           -0.4900554             -13.3351
        16        2.0000           -0.4791840             -13.0393
        17        2.0000           -0.4687959             -12.7566
        18        2.0000           -0.4449182             -12.1068
        19        2.0000           -0.4381071             -11.9215 (HOMO)
        20                         -0.2583069              -7.0289 (LUMO)
        21                         -0.2173565              -5.9146
        22                         -0.2121551              -5.7730
        23                         -0.0221895              -0.6038
        24                          0.1053818               2.8676
        25                          0.1162989               3.1647
        26                          0.1274972               3.4694
        27                          0.1546278               4.2076
        28                          0.1610743               4.3831
        29                          0.1834580               4.9921
        30                          0.1984123               5.3991
       ...                                ...                  ...
        33                          1.1273230              30.6760
      -------------------------------------------------------------
                  HL-Gap            0.1798002 Eh            4.8926 eV
             Fermi-level           -0.3482070 Eh           -9.4752 eV

     #   Z          covCN         q      C6AA      α(0)
     1   6 C        3.645     0.021    20.557     6.517
     2   8 O        1.704    -0.247    18.087     5.742
     3   6 C        2.726     0.371    20.705     7.449
     4   8 O        0.856    -0.402    21.723     6.249
     5   6 C        3.806    -0.085    22.122     6.696
     6   6 C        1.908     0.125    28.031     8.551
     7   7 N        0.911    -0.215    25.693     7.331
     8   1 H        0.925     0.073     2.048     2.238
     9   1 H        0.925     0.075     2.034     2.230
    10   1 H        0.925     0.082     1.963     2.191
    11   1 H        0.924     0.104     1.750     2.069
    12   1 H        0.924     0.098     1.804     2.100

 Mol. C6AA /au·bohr⁶  :       1590.360801
 Mol. C8AA /au·bohr⁸  :      36120.026727
 Mol. α(0) /au        :         59.362890


Wiberg/Mayer (AO) data.
largest (>0.10) Wiberg bond orders for each atom

 ---------------------------------------------------------------------------
     #   Z sym  total        # sym  WBO       # sym  WBO       # sym  WBO
 ---------------------------------------------------------------------------
     1   6 C    3.912 --     9 H    0.979    10 H    0.976     8 H    0.976
                             2 O    0.940
     2   8 O    2.335 --     3 C    1.170     1 C    0.940     4 O    0.183
     3   6 C    3.925 --     4 O    1.749     2 O    1.170     5 C    0.926
     4   8 O    2.053 --     3 C    1.749     2 O    0.183
     5   6 C    3.994 --     6 C    1.042    12 H    0.937    11 H    0.937
                             3 C    0.926
     6   6 C    3.950 --     7 N    2.849     5 C    1.042
     7   7 N    3.018 --     6 C    2.849
     8   1 H    0.995 --     1 C    0.976
     9   1 H    0.994 --     1 C    0.979
    10   1 H    0.993 --     1 C    0.976
    11   1 H    0.989 --     5 C    0.937
    12   1 H    0.990 --     5 C    0.937
 ---------------------------------------------------------------------------

Topologies differ in total number of bonds
Writing topology from bond orders to xtbtopo.mol

molecular dipole:
                 x           y           z       tot (Debye)
 q only:       -0.821       0.380       0.845
   full:       -1.124       0.230       1.192       4.206
molecular quadrupole (traceless):
                xx          xy          yy          xz          yz          zz
 q only:        1.506      -6.733      -2.351       3.647      -2.703       0.845
  q+dip:       -1.682      -7.930      -1.422       4.093      -3.358       3.104
   full:       -1.500      -8.727      -1.585       5.083      -3.161       3.085


           -------------------------------------------------
          | TOTAL ENERGY              -22.130572153478 Eh   |
          | GRADIENT NORM               0.029275088338 Eh/α |
          | HOMO-LUMO GAP               4.892613216645 eV   |
           -------------------------------------------------

------------------------------------------------------------------------
 * finished run on 2025/04/04 at 13:19:53.719     
------------------------------------------------------------------------
 total:
 * wall-time:     0 d,  0 h,  0 min,  0.072 sec
 *  cpu-time:     0 d,  0 h,  0 min,  0.014 sec
 * ratio c/w:     0.199 speedup
 SCF:
 * wall-time:     0 d,  0 h,  0 min,  0.007 sec
 *  cpu-time:     0 d,  0 h,  0 min,  0.007 sec
 * ratio c/w:     0.989 speedup

