
                                 *****************
                                 * O   R   C   A *
                                 *****************

                                            #,                                       
                                            ###                                      
                                            ####                                     
                                            #####                                    
                                            ######                                   
                                           ########,                                 
                                     ,,################,,,,,                         
                               ,,#################################,,                 
                          ,,##########################################,,             
                       ,#########################################, ''#####,          
                    ,#############################################,,   '####,        
                  ,##################################################,,,,####,       
                ,###########''''           ''''###############################       
              ,#####''   ,,,,##########,,,,          '''####'''          '####       
            ,##' ,,,,###########################,,,                        '##       
           ' ,,###''''                  '''############,,,                           
         ,,##''                                '''############,,,,        ,,,,,,###''
      ,#''                                            '''#######################'''  
     '                                                          ''''####''''         
             ,#######,   #######,   ,#######,      ##                                
            ,#'     '#,  ##    ##  ,#'     '#,    #''#        ,####,   ,####,        
            ##       ##  ##   ,#'  ##            #'  '#       #'       #'  '#        
            ##       ##  #######   ##           ,######,      #####,   #    #        
            '#,     ,#'  ##    ##  '#,     ,#' ,#      #,     #,   #   #,  ,#        
             '#######'   ##     ##  '#######'  #'      '#     '####' # '####'        



                #########################################################
                #                        -***-                          #
                #          Department of theory and spectroscopy        #
                #                                                       #
                #                      Frank Neese                      #
                #                                                       #
                #     Directorship, Architecture, Infrastructure        #
                #                    SHARK, DRIVERS                     #
                #        Core code/Algorithms in most modules           #
                #                                                       #
                #        Max Planck Institute fuer Kohlenforschung      #
                #                Kaiser Wilhelm Platz 1                 #
                #                 D-45470 Muelheim/Ruhr                 #
                #                      Germany                          #
                #                                                       #
                #                  All rights reserved                  #
                #                        -***-                          #
                #########################################################


                         Program Version 6.0.0  -   RELEASE  -


 With contributions from (in alphabetic order):
   Daniel Aravena         : Magnetic Suceptibility
   Michael Atanasov       : Ab Initio Ligand Field Theory (pilot matlab implementation)
   Alexander A. Auer      : GIAO ZORA, VPT2 properties, NMR spectrum
   Ute Becker             : All parallelization in ORCA, NUMFREQ, NUMCALC
   Giovanni Bistoni       : ED, misc. LED, open-shell LED, HFLD
   Martin Brehm           : Molecular dynamics
   Dmytro Bykov           : pre 5.0 version of the SCF Hessian
   Marcos Casanova-Páez   : Triplet and SCS-CIS(D). UHF-(DLPNO)-IP/EA/STEOM-CCSD. UHF-CVS-IP/STEOM-CCSD
   Vijay G. Chilkuri      : MRCI spin determinant printing, contributions to CSF-ICE
   Pauline Colinet        : FMM embedding
   Dipayan Datta          : RHF DLPNO-CCSD density
   Achintya Kumar Dutta   : EOM-CC, STEOM-CC
   Nicolas Foglia         : Exact transition moments, OPA infrastructure, MCD improvements
   Dmitry Ganyushin       : Spin-Orbit,Spin-Spin,Magnetic field MRCI
   Miquel Garcia          : C-PCM and meta-GGA Hessian, CCSD/C-PCM, Gaussian charge scheme
   Tiago L. C. Gouveia    : GS-ROHF, GS-ROCIS
   Yang Guo               : DLPNO-NEVPT2, F12-NEVPT2, CIM, IAO-localization
   Andreas Hansen         : Spin unrestricted coupled pair/coupled cluster methods
   Ingolf Harden          : AUTO-CI MPn and infrastructure 
   Benjamin Helmich-Paris : MC-RPA, TRAH-(SCF,CASSCF), AVAS, COSX integrals, SCF dyn. polar.
   Lee Huntington         : MR-EOM, pCC
   Robert Izsak           : Overlap fitted RIJCOSX, COSX-SCS-MP3, EOM
   Riya Kayal             : Wick's Theorem for AUTO-CI, AUTO-CI UHF-CCSDT
   Emily Kempfer          : AUTO-CI, RHF CISDT and CCSDT
   Christian Kollmar      : KDIIS, OOCD, Brueckner-CCSD(T), CCSD density, CASPT2, CASPT2-K, improved NEVPT2
   Axel Koslowski         : Symmetry handling
   Simone Kossmann        : Meta GGA functionals, TD-DFT gradient, OOMP2, (MP2 Hessian; deprecated post 5.0)
   Lucas Lang             : DCDCAS
   Marvin Lechner         : AUTO-CI (C++ implementation), FIC-MRCC
   Spencer Leger          : CASSCF response
   Dagmar Lenk            : GEPOL surface, SMD, ORCA-2-JSON
   Dimitrios Liakos       : Extrapolation schemes; Compound Job, initial MDCI parallelization
   Dimitrios Manganas     : Further ROCIS development; embedding schemes. LFT, Crystal Embedding
   Dimitrios Pantazis     : SARC Basis sets
   Anastasios Papadopoulos: AUTO-CI, single reference methods and gradients
   Taras Petrenko         : pre 6.0 DFT Hessian and TD-DFT gradient, (ASA, deprecated), ECA, 1-Electron XAS/XES, NRVS
   Peter Pinski           : DLPNO-MP2, DLPNO-MP2 Gradient
   Christoph Reimann      : Effective Core Potentials
   Marius Retegan         : Local ZFS, SOC
   Christoph Riplinger    : Optimizer, TS searches, QM/MM, DLPNO-CCSD(T), (RO)-DLPNO pert. Triples
   Michael Roemelt        : Original ROCIS implementation
   Masaaki Saitow         : Open-shell DLPNO-CCSD energy and density
   Barbara Sandhoefer     : DKH picture change effects
   Kantharuban Sivalingam : CASSCF convergence/infrastructure, NEVPT2 and variants, FIC-MRCI
   Bernardo de Souza      : ESD, SOC TD-DFT
   Georgi Stoychev        : AutoAux, RI-MP2 NMR, DLPNO-MP2 response, X2C
   Van Anh Tran           : RI-MP2 g-tensors
   Willem Van den Heuvel  : Paramagnetic NMR
   Zikuan Wang            : NOTCH, Electric field optimization 
   Frank Wennmohs         : Technical directorship and infrastructure
   Hang Xu                : AUTO-CI-Response properties 


 We gratefully acknowledge several colleagues who have allowed us to
 interface, adapt or use parts of their codes:
   Stefan Grimme, W. Hujo, H. Kruse, P. Pracht,  : VdW corrections, initial TS optimization,
                  C. Bannwarth, S. Ehlert,         DFT functionals, gCP, sTDA/sTD-DF
                  L. Wittmann, M. Mueller
   Ed Valeev, F. Pavosevic, A. Kumar             : LibInt (2-el integral package), F12 methods
   Garnet Chan, S. Sharma, J. Yang, R. Olivares  : DMRG
   Ulf Ekstrom                                   : XCFun DFT Library
   Mihaly Kallay                                 : mrcc  (arbitrary order and MRCC methods)
   Frank Weinhold                                : gennbo (NPA and NBO analysis)
   Simon Mueller                                 : openCOSMO-RS
   Christopher J. Cramer and Donald G. Truhlar   : smd solvation model
   Lars Goerigk                                  : TD-DFT with DH, B97 family of functionals
   V. Asgeirsson, H. Jonsson                     : NEB implementation
   FAccTs GmbH                                   : IRC, NEB, NEB-TS, DLPNO-Multilevel, CI-OPT
                                                   MM, QMMM, 2- and 3-layer-ONIOM, Crystal-QMMM,
                                                   LR-CPCM, SF, NACMEs, symmetry and pop. for TD-DFT,
                                                   nearIR, NL-DFT gradient (VV10), updates on ESD,
                                                   ML-optimized integration grids, MBIS, APM,
                                                   GOAT, DOCKER, SOLVATOR, interface openCOSMO-RS
   S Lehtola, MJT Oliveira, MAL Marques          : LibXC Library
   Liviu Ungur et al                             : ANISO software


 Your calculation uses the libint2 library for the computation of 2-el integrals
 For citations please refer to: http://libint.valeyev.net

 Your ORCA version has been built with support for libXC version: 6.2.2
 For citations please refer to: https://libxc.gitlab.io

 This ORCA versions uses:
   CBLAS   interface :  Fast vector & matrix operations
   LAPACKE interface :  Fast linear algebra routines
   SCALAPACK package :  Parallel linear algebra routines
   Shared memory     :  Shared parallel matrices
   BLAS/LAPACK       :  OpenBLAS 0.3.27  USE64BITINT DYNAMIC_ARCH NO_AFFINITY SkylakeX SINGLE_THREADED
        Core in use  :  SkylakeX
   Copyright (c) 2011-2014, The OpenBLAS Project


Your calculation utilizes the geometrical counterpoise correction gCP
Please cite in your paper:
H.Kruse, S. Grimme J.Chem.Phys., 136, (2012), 154101 
   

Your calculation utilizes the atom-pairwise dispersion correction
based on EEQ partial charges (D4)


================================================================================

----- Orbital basis set information -----
Your calculation utilizes the basis: def2-SV(P)
   F. Weigend and R. Ahlrichs, Phys. Chem. Chem. Phys. 7, 3297 (2005).

----- AuxJ basis set information -----
Your calculation utilizes the auxiliary basis: def2/J
   F. Weigend, Phys. Chem. Chem. Phys. 8, 1057 (2006).

================================================================================
                                        WARNINGS
                       Please study these warnings very carefully!
================================================================================


================================================================================
                                       INPUT FILE
================================================================================
NAME = sp.inp
|  1> ! pbe def2-sv(p) def2/J RI DEFGRID1 loosescf d4 GCP(DFT/SV(P)) printgap
|  2> %output
|  3>     printlevel normal
|  4> end
|  5> * xyz 0 1
|  6> C -2.1540579969 -1.0181524736 -0.4878699144
|  7> C -1.2166451919 -0.182288003 0.404055342
|  8> H -1.7732439299 0.1953955936 1.2711245449
|  9> C -0.6448467339 1.0268102546 -0.362330477
| 10> H -0.544719139 0.7861242655 -1.4300573259
| 11> C 0.7544387972 1.3360894021 0.1841009971
| 12> H 0.689241914 1.4629100407 1.2760866981
| 13> C 1.673493514 0.1516138055 -0.1251261351
| 14> H 1.8648266118 0.1377925985 -1.2086488286
| 15> C 0.9778831776 -1.1724168436 0.2486823164
| 16> H 1.6423024537 -1.7115516699 0.9393266633
| 17> O -0.1949493414 -0.9841671162 0.9944751987
| 18> O 0.7584650816 -1.8926563131 -0.9227378508
| 19> O 2.8796994304 0.2255673945 0.5868202179
| 20> O 1.3052997961 2.4827938049 -0.409768271
| 21> O -1.4253927219 2.1845891043 -0.1835295022
| 22> O -2.6370381436 -2.1727575281 0.148063338
| 23> H -1.6086863083 -1.3685479368 -1.3665867465
| 24> H -2.986445946 -0.3801496875 -0.8147981204
| 25> H 0.4590098256 -2.7896833038 -0.7060794866
| 26> H 3.3008072138 1.076163136 0.3874543973
| 27> H 0.6459448417 3.1925866558 -0.360827648
| 28> H -2.2403723553 2.1275490284 -0.6998961383
| 29> H -3.0734431191 -1.930330402 0.9769517198
| 30> *
| 31> 
| 32>                          ****END OF INPUT****
================================================================================

                       ****************************
                       * Single Point Calculation *
                       ****************************

---------------------------------
CARTESIAN COORDINATES (ANGSTROEM)
---------------------------------
  C     -2.154058   -1.018152   -0.487870
  C     -1.216645   -0.182288    0.404055
  H     -1.773244    0.195396    1.271125
  C     -0.644847    1.026810   -0.362330
  H     -0.544719    0.786124   -1.430057
  C      0.754439    1.336089    0.184101
  H      0.689242    1.462910    1.276087
  C      1.673494    0.151614   -0.125126
  H      1.864827    0.137793   -1.208649
  C      0.977883   -1.172417    0.248682
  H      1.642302   -1.711552    0.939327
  O     -0.194949   -0.984167    0.994475
  O      0.758465   -1.892656   -0.922738
  O      2.879699    0.225567    0.586820
  O      1.305300    2.482794   -0.409768
  O     -1.425393    2.184589   -0.183530
  O     -2.637038   -2.172758    0.148063
  H     -1.608686   -1.368548   -1.366587
  H     -2.986446   -0.380150   -0.814798
  H      0.459010   -2.789683   -0.706079
  H      3.300807    1.076163    0.387454
  H      0.645945    3.192587   -0.360828
  H     -2.240372    2.127549   -0.699896
  H     -3.073443   -1.930330    0.976952

----------------------------
CARTESIAN COORDINATES (A.U.)
----------------------------
  NO LB      ZA    FRAG     MASS         X           Y           Z
   0 C     6.0000    0    12.011   -4.070580   -1.924029   -0.921941
   1 C     6.0000    0    12.011   -2.299126   -0.344474    0.763554
   2 H     1.0000    0     1.008   -3.350945    0.369244    2.402077
   3 C     6.0000    0    12.011   -1.218584    1.940390   -0.684705
   4 H     1.0000    0     1.008   -1.029370    1.485560   -2.702417
   5 C     6.0000    0    12.011    1.425683    2.524843    0.347900
   6 H     1.0000    0     1.008    1.302478    2.764499    2.411454
   7 C     6.0000    0    12.011    3.162444    0.286509   -0.236454
   8 H     1.0000    0     1.008    3.524012    0.260390   -2.284015
   9 C     6.0000    0    12.011    1.847931   -2.215547    0.469941
  10 H     1.0000    0     1.008    3.103502   -3.234364    1.775070
  11 O     8.0000    0    15.999   -0.368401   -1.859806    1.879286
  12 O     8.0000    0    15.999    1.433291   -3.576602   -1.743722
  13 O     8.0000    0    15.999    5.441843    0.426261    1.108930
  14 O     8.0000    0    15.999    2.466659    4.691800   -0.774350
  15 O     8.0000    0    15.999   -2.693602    4.128275   -0.346820
  16 O     8.0000    0    15.999   -4.983280   -4.105917    0.279799
  17 H     1.0000    0     1.008   -3.039977   -2.586181   -2.582475
  18 H     1.0000    0     1.008   -5.643565   -0.718379   -1.539745
  19 H     1.0000    0     1.008    0.867403   -5.271737   -1.334297
  20 H     1.0000    0     1.008    6.237622    2.033654    0.732183
  21 H     1.0000    0     1.008    1.220659    6.033114   -0.681865
  22 H     1.0000    0     1.008   -4.233690    4.020485   -1.322612
  23 H     1.0000    0     1.008   -5.807966   -3.647796    1.846171

--------------------------------
INTERNAL COORDINATES (ANGSTROEM)
--------------------------------
 C      0   0   0     0.000000000000     0.00000000     0.00000000
 C      1   0   0     1.540435926351     0.00000000     0.00000000
 H      2   1   0     1.097386010892   109.60810898     0.00000000
 C      2   1   3     1.541499042058   111.31360511   240.43644342
 H      4   2   1     1.099088669977   110.18238249   329.22536456
 C      4   2   1     1.533701713017   108.63061924   211.23821200
 H      6   4   2     1.101256954186   108.81371181   306.03286554
 C      6   4   2     1.530772821389   108.64837886    64.54206104
 H      8   6   4     1.100373031025   108.24181074    70.87606574
 C      8   6   4     1.541643168271   110.16159319   313.18384301
 H     10   8   6     1.099594902356   107.50253258   235.14657151
 O     10   8   6     1.402562334009   113.01471260   348.97888771
 O     10   8   6     1.392520880418   108.13962181   114.38011188
 O      8   6   4     1.402593831312   111.89987142   192.93237571
 O      6   4   2     1.403944277777   111.83765429   183.80523959
 O      4   2   1     1.407719323155   112.10333343    93.03042518
 O      1   2   3     1.403849619971   113.16324938   296.12502928
 H      1   2   3     1.091948043807   109.64120384   178.26356594
 H      1   2   3     1.098544175150   108.55885342    59.30433739
 H     13  10   8     0.970191588898   109.81546836   170.57125699
 H     14   8   6     0.969841023633   108.37933132   304.12990541
 H     15   6   4     0.970025789173   108.03569277    49.79222522
 H     16   4   2     0.966478078382   110.55822672   285.07280393
 H     17   1   2     0.967613643761   109.70359391    55.51201113

---------------------------
INTERNAL COORDINATES (A.U.)
---------------------------
 C      0   0   0     0.000000000000     0.00000000     0.00000000
 C      1   0   0     2.911002027657     0.00000000     0.00000000
 H      2   1   0     2.073759023782   109.60810898     0.00000000
 C      2   1   3     2.913011025192   111.31360511   240.43644342
 H      4   2   1     2.076976583152   110.18238249   329.22536456
 C      4   2   1     2.898276208728   108.63061924   211.23821200
 H      6   4   2     2.081074046487   108.81371181   306.03286554
 C      6   4   2     2.892741405674   108.64837886    64.54206104
 H      8   6   4     2.079403673789   108.24181074    70.87606574
 C      8   6   4     2.913283384262   110.16159319   313.18384301
 H     10   8   6     2.077933223709   107.50253258   235.14657151
 O     10   8   6     2.650458697029   113.01471260   348.97888771
 O     10   8   6     2.631483099757   108.13962181   114.38011188
 O      8   6   4     2.650518218307   111.89987142   192.93237571
 O      6   4   2     2.653070192285   111.83765429   183.80523959
 O      4   2   1     2.660203994193   112.10333343    93.03042518
 O      1   2   3     2.652891314954   113.16324938   296.12502928
 H      1   2   3     2.063482755266   109.64120384   178.26356594
 H      1   2   3     2.075947637048   108.55885342    59.30433739
 H     13  10   8     1.833396400451   109.81546836   170.57125699
 H     14   8   6     1.832733928108   108.37933132   304.12990541
 H     15   6   4     1.833083084377   108.03569277    49.79222522
 H     16   4   2     1.826378882580   110.55822672   285.07280393
 H     17   1   2     1.828524790155   109.70359391    55.51201113

---------------------
BASIS SET INFORMATION
---------------------
There are 3 groups of distinct atoms

 Group   1 Type C   : 7s4p1d contracted to 3s2p1d pattern {511/31/1}
 Group   2 Type H   : 4s contracted to 2s pattern {31}
 Group   3 Type O   : 7s4p1d contracted to 3s2p1d pattern {511/31/1}

Atom   0C    basis set group =>   1
Atom   1C    basis set group =>   1
Atom   2H    basis set group =>   2
Atom   3C    basis set group =>   1
Atom   4H    basis set group =>   2
Atom   5C    basis set group =>   1
Atom   6H    basis set group =>   2
Atom   7C    basis set group =>   1
Atom   8H    basis set group =>   2
Atom   9C    basis set group =>   1
Atom  10H    basis set group =>   2
Atom  11O    basis set group =>   3
Atom  12O    basis set group =>   3
Atom  13O    basis set group =>   3
Atom  14O    basis set group =>   3
Atom  15O    basis set group =>   3
Atom  16O    basis set group =>   3
Atom  17H    basis set group =>   2
Atom  18H    basis set group =>   2
Atom  19H    basis set group =>   2
Atom  20H    basis set group =>   2
Atom  21H    basis set group =>   2
Atom  22H    basis set group =>   2
Atom  23H    basis set group =>   2
---------------------------------
AUXILIARY/J BASIS SET INFORMATION
---------------------------------
There are 3 groups of distinct atoms

 Group   1 Type C   : 12s5p4d2f1g contracted to 6s4p3d1f1g pattern {711111/2111/211/2/1}
 Group   2 Type H   : 5s2p1d contracted to 3s1p1d pattern {311/2/1}
 Group   3 Type O   : 12s5p4d2f1g contracted to 6s4p3d1f1g pattern {711111/2111/211/2/1}

Atom   0C    basis set group =>   1
Atom   1C    basis set group =>   1
Atom   2H    basis set group =>   2
Atom   3C    basis set group =>   1
Atom   4H    basis set group =>   2
Atom   5C    basis set group =>   1
Atom   6H    basis set group =>   2
Atom   7C    basis set group =>   1
Atom   8H    basis set group =>   2
Atom   9C    basis set group =>   1
Atom  10H    basis set group =>   2
Atom  11O    basis set group =>   3
Atom  12O    basis set group =>   3
Atom  13O    basis set group =>   3
Atom  14O    basis set group =>   3
Atom  15O    basis set group =>   3
Atom  16O    basis set group =>   3
Atom  17H    basis set group =>   2
Atom  18H    basis set group =>   2
Atom  19H    basis set group =>   2
Atom  20H    basis set group =>   2
Atom  21H    basis set group =>   2
Atom  22H    basis set group =>   2
Atom  23H    basis set group =>   2
------------------------------------------------------------------------------
                             ORCA STARTUP CALCULATIONS
                           -- RI-GTO INTEGRALS CHOSEN --
------------------------------------------------------------------------------
------------------------------------------------------------------------------
                   ___                                                        
                  /   \      - P O W E R E D   B Y -                         
                 /     \                                                     
                 |  |  |   _    _      __       _____    __    __             
                 |  |  |  | |  | |    /  \     |  _  \  |  |  /  |          
                  \  \/   | |  | |   /    \    | | | |  |  | /  /          
                 / \  \   | |__| |  /  /\  \   | |_| |  |  |/  /          
                |  |  |   |  __  | /  /__\  \  |    /   |      \           
                |  |  |   | |  | | |   __   |  |    \   |  |\   \          
                \     /   | |  | | |  |  |  |  | |\  \  |  | \   \       
                 \___/    |_|  |_| |__|  |__|  |_| \__\ |__|  \__/        
                                                                              
                      - O R C A' S   B I G   F R I E N D -                    
                                      &                                       
                       - I N T E G R A L  F E E D E R -                       
                                                                              
 v1 FN, 2020, v2 2021, v3 2022-2024                                           
------------------------------------------------------------------------------


----------------------
SHARK INTEGRAL PACKAGE
----------------------

Number of atoms                             ...     24
Number of basis functions                   ...    192
Number of shells                            ...     96
Maximum angular momentum                    ...      2
Integral batch strategy                     ... SHARK/LIBINT Hybrid
RI-J (if used) integral strategy            ... SPLIT-RIJ (Revised 2003 algorithm where possible)
Printlevel                                  ...      1
Contraction scheme used                     ... SEGMENTED contraction
Prescreening option                         ... SCHWARTZ
   Thresh                                   ... 1.000e-09
   Tcut                                     ... 1.000e-10
   Tpresel                                  ... 1.000e-10 
Coulomb Range Separation                    ... NOT USED
Exchange Range Separation                   ... NOT USED
Multipole approximations                    ... NOT USED
Finite Nucleus Model                        ... NOT USED
CABS basis                                  ... NOT available
Auxiliary Coulomb fitting basis             ... AVAILABLE
   # of basis functions in Aux-J            ...    720
   # of shells in Aux-J                     ...    240
   Maximum angular momentum in Aux-J        ...      4
Auxiliary J/K fitting basis                 ... NOT available
Auxiliary Correlation fitting basis         ... NOT available
Auxiliary 'external' fitting basis          ... NOT available

Checking pre-screening integrals            ... done (  0.0 sec) Dimension = 96
Check shell pair data                       ... done (  0.0 sec)
Shell pair information
Shell pair cut-off parameter TPreSel        ...   1.0e-10
Total number of shell pairs                 ...      4656
Shell pairs after pre-screening             ...      4167
Total number of primitive shell pairs       ...     18720
Primitive shell pairs kept                  ...     11252
          la=0 lb=0:   1624 shell pairs
          la=1 lb=0:   1322 shell pairs
          la=1 lb=1:    285 shell pairs
          la=2 lb=0:    608 shell pairs
          la=2 lb=1:    261 shell pairs
          la=2 lb=2:     67 shell pairs

Calculating one electron integrals          ... done (  0.0 sec)
Calculating RI/J V-Matrix + Cholesky decomp.... done (  0.1 sec)
Calculating Nuclear repulsion               ... done (  0.0 sec) ENN=    836.982916250252 Eh

Diagonalization of the overlap matrix:
Smallest eigenvalue                        ... 7.460e-04
Time for diagonalization                   ...    0.004 sec
Threshold for overlap eigenvalues          ... 1.000e-07
Number of eigenvalues below threshold      ... 0
Time for construction of square roots      ...    0.012 sec
Total time needed                          ...    0.025 sec

-------------------
DFT GRID GENERATION
-------------------

General Integration Accuracy     IntAcc      ... 4.159
Radial Grid Type                 RadialGrid  ... OptM3 with GC (2021)
Angular Grid (max. ang.)         AngularGrid ... 3 (Lebedev-194)
Angular grid pruning method      GridPruning ... 4 (adaptive)
Weight generation scheme         WeightScheme... mBecke (2022)
Basis function cutoff            BFCut       ... 1.0000e-10
Integration weight cutoff        WCut        ... 1.0000e-14
Partially contracted basis set               ... off
Rotationally invariant grid construction     ... off
Angular grids for H and He will be reduced by one unit

Total number of grid points                  ...    55743
Total number of batches                      ...      884
Average number of points per batch           ...       63
Average number of grid points per atom       ...     2323
Initializing property integral containers    ... done (  0.0 sec)

SHARK setup successfully completed in   0.9 seconds

Maximum memory used throughout the entire STARTUP-calculation: 28.0 MB
-------------------------------------------------------------------------------
                                 ORCA GUESS
                   Start orbitals & Density for SCF / CASSCF
-------------------------------------------------------------------------------

------------
SCF SETTINGS
------------
Hamiltonian:
 Density Functional     Method          .... DFT(GTOs)
 Exchange Functional    Exchange        .... PBE
   PBE kappa parameter   XKappa         ....  0.804000
   PBE mue parameter    XMuePBE         ....  0.219520
 Correlation Functional Correlation     .... PBE
   PBE beta parameter  CBetaPBE         ....  0.066725
 LDA part of GGA corr.  LDAOpt          .... PW91-LDA
 Gradients option       PostSCFGGA      .... off
   NL short-range parameter             ....  6.400000
 RI-approximation to the Coulomb term is turned on
   Number of AuxJ basis functions       .... 720


General Settings:
 Integral files         IntName         .... sp
 Hartree-Fock type      HFTyp           .... RHF
 Total Charge           Charge          ....    0
 Multiplicity           Mult            ....    1
 Number of Electrons    NEL             ....   96
 Basis Dimension        Dim             ....  192
 Nuclear Repulsion      ENuc            ....    836.9829162503 Eh

Convergence Acceleration:
 AO-DIIS                CNVDIIS         .... on
   Start iteration      DIISMaxIt       ....    12
   Startup error        DIISStart       ....  0.200000
   # of expansion vecs  DIISMaxEq       ....     5
   Bias factor          DIISBfac        ....   1.050
   Max. coefficient     DIISMaxC        ....  10.000
 MO-DIIS                CNVKDIIS        .... off
 Trust-Rad. Augm. Hess. CNVTRAH         .... auto
   Auto Start mean grad. ratio tolernc. ....  1.125000
   Auto Start start iteration           ....    50
   Auto Start num. interpolation iter.  ....    10
   Max. Number of Micro iterations      ....    24
   Max. Number of Macro iterations      .... Maxiter - #DIIS iter
   Number of Davidson start vectors     ....     2
   Converg. threshold    (grad. norm)   ....   1.000e-04
   Grad. Scal. Fac. for Micro threshold ....   0.100
   Minimum threshold for Micro iter.    ....   1.000e-02
   NR start threshold (gradient norm)   ....   1.000e-04
   Initial trust radius                 ....   0.400
   Minimum AH scaling param. (alpha)    ....   1.000
   Maximum AH scaling param. (alpha)    .... 1000.000
   Quad. conv. algorithm                .... NR
   White noise on init. David. guess    .... on
   Maximum white noise                  ....   0.010
   Pseudo random numbers                .... off
   Inactive MOs                         .... canonical
   Orbital update algorithm             .... Taylor
   Preconditioner                       .... Diag
   Full preconditioner red. dimension   ....   250
 SOSCF                  CNVSOSCF        .... on
   Start iteration      SOSCFMaxIt      ....   150
   Startup grad/error   SOSCFStart      ....  0.003300
   Hessian update       SOSCFHessUp     .... L-BFGS
 Level Shifting         CNVShift        .... on
   Level shift para.    LevelShift      ....    0.2500
   Turn off err/grad.   ShiftErr        ....    0.0010
 Zerner damping         CNVZerner       .... off
 Static damping         CNVDamp         .... on
   Fraction old density DampFac         ....    0.7000
   Max. Damping (<1)    DampMax         ....    0.9800
   Min. Damping (>=0)   DampMin         ....    0.0000
   Turn off err/grad.   DampErr         ....    0.1000

SCF Procedure:
 Maximum # iterations   MaxIter         ....   125
 SCF integral mode      SCFMode         .... Direct
   Integral package                     .... SHARK and LIBINT hybrid scheme
 Reset frequency        DirectResetFreq ....    20
 Integral Threshold     Thresh          ....  1.000e-09 Eh
 Primitive CutOff       TCut            ....  1.000e-10 Eh

Convergence Tolerance:
 Convergence Check Mode ConvCheckMode   .... Total+1el-Energy
 Convergence forced     ConvForced      .... 0
 Energy Change          TolE            ....  1.000e-05 Eh
 1-El. energy change                    ....  1.000e-02 Eh
 Orbital Gradient       TolG            ....  1.000e-04
 Orbital Rotation angle TolX            ....  1.000e-04
 DIIS Error             TolErr          ....  5.000e-04

------------------------------
INITIAL GUESS: MODEL POTENTIAL
------------------------------
Loading Hartree-Fock densities                     ... done
Calculating cut-offs                               ... done
Initializing the effective Hamiltonian             ... done
Setting up the integral package (SHARK)            ... done
Starting the Coulomb interaction                   ... done (   0.2 sec)
Making the grid                                    ... done (   0.3 sec)
Mapping shells                                     ... done
Starting the XC term evaluation                    ... done (   0.3 sec)
  promolecular density results
     # of electrons  =     96.001689890
     EX              =    -83.235771062
     EC              =     -3.268291702
     EX+EC           =    -86.504062764
Transforming the Hamiltonian                       ... done (   0.0 sec)
Diagonalizing the Hamiltonian                      ... done (   0.0 sec)
Back transforming the eigenvectors                 ... done (   0.0 sec)
Now organizing SCF variables                       ... done
                      ------------------
                      INITIAL GUESS DONE (   0.8 sec)
                      ------------------
             **** ENERGY FILE WAS UPDATED (sp.en.tmp) ****
Finished Guess after   1.0 sec
Maximum memory used throughout the entire GUESS-calculation: 21.8 MB

-------------------------------------------------------------------------------------------
                                      ORCA LEAN-SCF
                              memory conserving SCF solver
-------------------------------------------------------------------------------------------

----------------------------------------D-I-I-S--------------------------------------------
Iteration    Energy (Eh)           Delta-E    RMSDP     MaxDP     DIISErr   Damp  Time(sec)
-------------------------------------------------------------------------------------------
               ***  Starting incremental Fock matrix formation  ***
    1    -685.5158487893329493     0.00e+00  5.10e-03  1.70e-01  2.21e-01  0.700   1.2
    2    -685.6682145996110194    -1.52e-01  3.30e-03  1.14e-01  8.55e-02  0.700   1.1
                               ***Turning on AO-DIIS***
    3    -685.7161748853584413    -4.80e-02  1.11e-03  2.81e-02  1.88e-02  0.700   1.1
    4    -685.7481589396732033    -3.20e-02  1.39e-03  2.32e-02  1.15e-02  0.000   1.0
    5    -685.8221809362773911    -7.40e-02  4.59e-04  1.53e-02  5.23e-03  0.000   1.1
                              *** Initializing SOSCF ***
---------------------------------------S-O-S-C-F--------------------------------------
Iteration    Energy (Eh)           Delta-E    RMSDP     MaxDP     MaxGrad    Time(sec)
--------------------------------------------------------------------------------------
    6    -685.8225237828510217    -3.43e-04  1.34e-04  3.02e-03  1.52e-03     1.0
               *** Restarting incremental Fock matrix formation ***
    7    -685.8225515456092580    -2.78e-05  9.89e-05  2.12e-03  1.45e-04     1.2
    8    -685.8225508914679267     6.54e-07  4.10e-05  8.78e-04  2.25e-04     1.0
                 **** Energy Check signals convergence ****

               *****************************************************
               *                     SUCCESS                       *
               *           SCF CONVERGED AFTER   8 CYCLES          *
               *****************************************************

             **** ENERGY FILE WAS UPDATED (sp.en.tmp) ****

----------------
TOTAL SCF ENERGY
----------------

Total Energy       :       -685.82255089146793 Eh          -18662.18038 eV

Components:
Nuclear Repulsion  :        836.98291625025172 Eh           22775.46303 eV
Electronic Energy  :      -1522.80546714171965 Eh          -41437.64341 eV
One Electron Energy:      -2603.31407130988373 Eh          -70839.77731 eV
Two Electron Energy:       1080.50860416816408 Eh           29402.13390 eV

Virial components:
Potential Energy   :      -1366.92468652847015 Eh          -37195.91172 eV
Kinetic Energy     :        681.10213563700222 Eh           18533.73135 eV
Virial Ratio       :          2.00693055418194

DFT components:
N(Alpha)           :       48.000358016655 electrons
N(Beta)            :       48.000358016655 electrons
N(Total)           :       96.000716033310 electrons
E(X)               :      -84.604308162069 Eh       
E(C)               :       -3.281348103803 Eh       
E(XC)              :      -87.885656265871 Eh       

---------------
SCF CONVERGENCE
---------------

  Last Energy change         ...   -6.5414e-07  Tolerance :   1.0000e-05
  Last MAX-Density change    ...    8.7758e-04  Tolerance :   1.0000e-03
  Last RMS-Density change    ...    4.1019e-05  Tolerance :   1.0000e-04
  Last DIIS Error            ...    1.5167e-03  Tolerance :   5.0000e-04
  Last Orbital Gradient      ...    2.2485e-04  Tolerance :   1.0000e-04
  Last Orbital Rotation      ...    1.3724e-04  Tolerance :   1.0000e-04


----------------
ORBITAL ENERGIES
----------------

  NO   OCC          E(Eh)            E(eV) 
   0   2.0000     -18.771433      -510.7967 
   1   2.0000     -18.762739      -510.5601 
   2   2.0000     -18.762357      -510.5497 
   3   2.0000     -18.750474      -510.2263 
   4   2.0000     -18.749794      -510.2078 
   5   2.0000     -18.745179      -510.0822 
   6   2.0000      -9.981412      -271.6080 
   7   2.0000      -9.949027      -270.7268 
   8   2.0000      -9.944997      -270.6171 
   9   2.0000      -9.938116      -270.4299 
  10   2.0000      -9.935614      -270.3618 
  11   2.0000      -9.934687      -270.3366 
  12   2.0000      -0.978467       -26.6254 
  13   2.0000      -0.952413       -25.9165 
  14   2.0000      -0.931903       -25.3584 
  15   2.0000      -0.926673       -25.2161 
  16   2.0000      -0.913421       -24.8554 
  17   2.0000      -0.908082       -24.7102 
  18   2.0000      -0.707528       -19.2528 
  19   2.0000      -0.690336       -18.7850 
  20   2.0000      -0.622876       -16.9493 
  21   2.0000      -0.581729       -15.8296 
  22   2.0000      -0.568993       -15.4831 
  23   2.0000      -0.513043       -13.9606 
  24   2.0000      -0.505950       -13.7676 
  25   2.0000      -0.501725       -13.6526 
  26   2.0000      -0.478821       -13.0294 
  27   2.0000      -0.448158       -12.1950 
  28   2.0000      -0.439514       -11.9598 
  29   2.0000      -0.429090       -11.6761 
  30   2.0000      -0.411208       -11.1895 
  31   2.0000      -0.396089       -10.7781 
  32   2.0000      -0.387813       -10.5529 
  33   2.0000      -0.384444       -10.4613 
  34   2.0000      -0.365880        -9.9561 
  35   2.0000      -0.351669        -9.5694 
  36   2.0000      -0.328150        -8.9294 
  37   2.0000      -0.316412        -8.6100 
  38   2.0000      -0.303405        -8.2561 
  39   2.0000      -0.294538        -8.0148 
  40   2.0000      -0.280531        -7.6336 
  41   2.0000      -0.263217        -7.1625 
  42   2.0000      -0.258848        -7.0436 
  43   2.0000      -0.237007        -6.4493 
  44   2.0000      -0.228581        -6.2200 
  45   2.0000      -0.224666        -6.1135 
  46   2.0000      -0.216288        -5.8855 
  47   2.0000      -0.203579        -5.5397 
  48   0.0000       0.002312         0.0629 
  49   0.0000       0.019674         0.5354 
  50   0.0000       0.035104         0.9552 
  51   0.0000       0.045942         1.2502 
  52   0.0000       0.058349         1.5878 
  53   0.0000       0.066550         1.8109 
  54   0.0000       0.079090         2.1521 
  55   0.0000       0.096262         2.6194 
  56   0.0000       0.102545         2.7904 
  57   0.0000       0.110230         2.9995 
  58   0.0000       0.117411         3.1949 
*Only the first 10 virtual orbitals were printed.

                    ********************************
                    * MULLIKEN POPULATION ANALYSIS *
                    ********************************

-----------------------
MULLIKEN ATOMIC CHARGES
-----------------------
   0 C :    0.045379
   1 C :    0.049132
   2 H :    0.060399
   3 C :   -0.026244
   4 H :    0.067124
   5 C :    0.057325
   6 H :    0.060228
   7 C :    0.074286
   8 H :    0.068379
   9 C :    0.186258
  10 H :    0.075522
  11 O :   -0.308037
  12 O :   -0.400635
  13 O :   -0.417330
  14 O :   -0.427388
  15 O :   -0.415616
  16 O :   -0.426601
  17 H :    0.094615
  18 H :    0.051057
  19 H :    0.311791
  20 H :    0.308928
  21 H :    0.306628
  22 H :    0.309132
  23 H :    0.295667
Sum of atomic charges:   -0.0000000

--------------------------------
MULLIKEN REDUCED ORBITAL CHARGES
--------------------------------
  0 C s       :     3.036809  s :     3.036809
      pz      :     1.027871  p :     2.854202
      px      :     0.969144
      py      :     0.857186
      dz2     :     0.009739  d :     0.063610
      dxz     :     0.010089
      dyz     :     0.014943
      dx2y2   :     0.009822
      dxy     :     0.019016

  1 C s       :     3.038909  s :     3.038909
      pz      :     1.012568  p :     2.847007
      px      :     0.908831
      py      :     0.925607
      dz2     :     0.008330  d :     0.064952
      dxz     :     0.016573
      dyz     :     0.012974
      dx2y2   :     0.011687
      dxy     :     0.015388

  2 H s       :     0.939601  s :     0.939601

  3 C s       :     3.092651  s :     3.092651
      pz      :     1.059454  p :     2.866811
      px      :     0.961090
      py      :     0.846267
      dz2     :     0.014558  d :     0.066783
      dxz     :     0.007836
      dyz     :     0.012574
      dx2y2   :     0.015419
      dxy     :     0.016398

  4 H s       :     0.932876  s :     0.932876

  5 C s       :     3.038724  s :     3.038724
      pz      :     0.993234  p :     2.835669
      px      :     0.956131
      py      :     0.886304
      dz2     :     0.018444  d :     0.068282
      dxz     :     0.007848
      dyz     :     0.012922
      dx2y2   :     0.013115
      dxy     :     0.015953

  6 H s       :     0.939772  s :     0.939772

  7 C s       :     3.040901  s :     3.040901
      pz      :     0.988211  p :     2.818024
      px      :     0.835029
      py      :     0.994784
      dz2     :     0.018138  d :     0.066789
      dxz     :     0.014407
      dyz     :     0.005436
      dx2y2   :     0.013443
      dxy     :     0.015365

  8 H s       :     0.931621  s :     0.931621

  9 C s       :     2.989943  s :     2.989943
      pz      :     0.835912  p :     2.723527
      px      :     0.858583
      py      :     1.029032
      dz2     :     0.018674  d :     0.100272
      dxz     :     0.028710
      dyz     :     0.021785
      dx2y2   :     0.014814
      dxy     :     0.016289

 10 H s       :     0.924478  s :     0.924478

 11 O s       :     3.748940  s :     3.748940
      pz      :     1.614791  p :     4.543924
      px      :     1.271222
      py      :     1.657911
      dz2     :     0.002215  d :     0.015173
      dxz     :     0.005142
      dyz     :     0.002582
      dx2y2   :     0.002276
      dxy     :     0.002958

 12 O s       :     3.775106  s :     3.775106
      pz      :     1.505828  p :     4.610353
      px      :     1.806335
      py      :     1.298190
      dz2     :     0.004841  d :     0.015176
      dxz     :     0.002131
      dyz     :     0.003776
      dx2y2   :     0.002709
      dxy     :     0.001720

 13 O s       :     3.777976  s :     3.777976
      pz      :     1.732006  p :     4.623871
      px      :     1.410760
      py      :     1.481105
      dz2     :     0.002615  d :     0.015482
      dxz     :     0.003308
      dyz     :     0.002134
      dx2y2   :     0.004047
      dxy     :     0.003378

 14 O s       :     3.780210  s :     3.780210
      pz      :     1.795638  p :     4.631938
      px      :     1.580011
      py      :     1.256289
      dz2     :     0.002802  d :     0.015240
      dxz     :     0.001940
      dyz     :     0.001778
      dx2y2   :     0.001404
      dxy     :     0.007317

 15 O s       :     3.778140  s :     3.778140
      pz      :     1.738364  p :     4.622317
      px      :     1.344257
      py      :     1.539696
      dz2     :     0.001362  d :     0.015160
      dxz     :     0.004758
      dyz     :     0.002271
      dx2y2   :     0.004516
      dxy     :     0.002254

 16 O s       :     3.784584  s :     3.784584
      pz      :     1.374441  p :     4.626411
      px      :     1.738558
      py      :     1.513411
      dz2     :     0.003240  d :     0.015606
      dxz     :     0.002958
      dyz     :     0.003675
      dx2y2   :     0.003030
      dxy     :     0.002703

 17 H s       :     0.905385  s :     0.905385

 18 H s       :     0.948943  s :     0.948943

 19 H s       :     0.688209  s :     0.688209

 20 H s       :     0.691072  s :     0.691072

 21 H s       :     0.693372  s :     0.693372

 22 H s       :     0.690868  s :     0.690868

 23 H s       :     0.704333  s :     0.704333


------------------------
MULLIKEN OVERLAP CHARGES
------------------------
B(  0-C ,  1-C ) :   0.6484 B(  0-C ,  2-H ) :  -0.0919 B(  0-C ,  3-C ) :  -0.0825 
B(  0-C , 11-O ) :  -0.1094 B(  0-C , 16-O ) :   0.7034 B(  0-C , 17-H ) :   0.6588 
B(  0-C , 18-H ) :   0.6576 B(  0-C , 23-H ) :  -0.1081 B(  1-C ,  2-H ) :   0.5858 
B(  1-C ,  3-C ) :   0.1950 B(  1-C ,  4-H ) :  -0.0964 B(  1-C ,  5-C ) :  -0.0867 
B(  1-C ,  9-C ) :  -0.1963 B(  1-C , 11-O ) :   0.6038 B(  1-C , 15-O ) :  -0.0802 
B(  1-C , 16-O ) :  -0.0927 B(  1-C , 18-H ) :  -0.1261 B(  2-H , 11-O ) :  -0.0572 
B(  3-C ,  4-H ) :   0.6894 B(  3-C ,  5-C ) :   0.2056 B(  3-C ,  6-H ) :  -0.0714 
B(  3-C , 11-O ) :  -0.1274 B(  3-C , 14-O ) :  -0.0792 B(  3-C , 15-O ) :   0.5664 
B(  3-C , 22-H ) :  -0.0642 B(  4-H ,  5-C ) :  -0.1028 B(  4-H , 15-O ) :  -0.0693 
B(  5-C ,  6-H ) :   0.5630 B(  5-C ,  7-C ) :   0.2483 B(  5-C ,  8-H ) :  -0.0534 
B(  5-C ,  9-C ) :   0.0977 B(  5-C , 13-O ) :  -0.0645 B(  5-C , 14-O ) :   0.6784 
B(  5-C , 15-O ) :  -0.1023 B(  5-C , 21-H ) :  -0.1141 B(  6-H , 14-O ) :  -0.0802 
B(  7-C ,  8-H ) :   0.6063 B(  7-C ,  9-C ) :  -0.0504 B(  7-C , 11-O ) :  -0.1077 
B(  7-C , 12-O ) :  -0.1021 B(  7-C , 13-O ) :   0.6000 B(  7-C , 14-O ) :  -0.1266 
B(  7-C , 20-H ) :  -0.1077 B(  8-H ,  9-C ) :  -0.0734 B(  8-H , 13-O ) :  -0.0574 
B(  9-C , 10-H ) :   0.6255 B(  9-C , 11-O ) :   0.6708 B(  9-C , 12-O ) :   0.6106 
B(  9-C , 13-O ) :  -0.0762 B( 10-H , 11-O ) :  -0.0622 B( 11-O , 12-O ) :  -0.1395 
B( 12-O , 17-H ) :   0.0510 B( 12-O , 19-H ) :   0.4928 B( 13-O , 20-H ) :   0.5356 
B( 14-O , 21-H ) :   0.5365 B( 15-O , 21-H ) :   0.0582 B( 15-O , 22-H ) :   0.5245 
B( 16-O , 17-H ) :  -0.0674 B( 16-O , 18-H ) :  -0.0655 B( 16-O , 23-H ) :   0.5328 
B( 17-H , 18-H ) :  -0.0764 


                     *******************************
                     * LOEWDIN POPULATION ANALYSIS *
                     *******************************

----------------------
LOEWDIN ATOMIC CHARGES
----------------------
   0 C :   -0.144334
   1 C :   -0.077842
   2 H :    0.111664
   3 C :   -0.080151
   4 H :    0.107750
   5 C :   -0.075720
   6 H :    0.108198
   7 C :   -0.071239
   8 H :    0.110070
   9 C :    0.003731
  10 H :    0.107008
  11 O :   -0.143284
  12 O :   -0.306446
  13 O :   -0.315973
  14 O :   -0.324691
  15 O :   -0.318153
  16 O :   -0.332919
  17 H :    0.115299
  18 H :    0.086917
  19 H :    0.291451
  20 H :    0.289912
  21 H :    0.285284
  22 H :    0.290057
  23 H :    0.283410

-------------------------------
LOEWDIN REDUCED ORBITAL CHARGES
-------------------------------
  0 C s       :     2.924322  s :     2.924322
      pz      :     1.061459  p :     3.075351
      px      :     1.064525
      py      :     0.949367
      dz2     :     0.019935  d :     0.144661
      dxz     :     0.024321
      dyz     :     0.035700
      dx2y2   :     0.020050
      dxy     :     0.044655

  1 C s       :     2.906898  s :     2.906898
      pz      :     1.067006  p :     3.019211
      px      :     0.957134
      py      :     0.995070
      dz2     :     0.015929  d :     0.151733
      dxz     :     0.040906
      dyz     :     0.032906
      dx2y2   :     0.024324
      dxy     :     0.037669

  2 H s       :     0.888336  s :     0.888336

  3 C s       :     2.893506  s :     2.893506
      pz      :     1.098771  p :     3.028730
      px      :     1.002366
      py      :     0.927592
      dz2     :     0.034254  d :     0.157915
      dxz     :     0.017332
      dyz     :     0.030163
      dx2y2   :     0.037850
      dxy     :     0.038317

  4 H s       :     0.892250  s :     0.892250

  5 C s       :     2.893490  s :     2.893490
      pz      :     1.061416  p :     3.022188
      px      :     1.027535
      py      :     0.933237
      dz2     :     0.043490  d :     0.160041
      dxz     :     0.017067
      dyz     :     0.028899
      dx2y2   :     0.030860
      dxy     :     0.039725

  6 H s       :     0.891802  s :     0.891802

  7 C s       :     2.896688  s :     2.896688
      pz      :     1.049114  p :     3.018510
      px      :     0.911661
      py      :     1.057736
      dz2     :     0.044089  d :     0.156040
      dxz     :     0.032659
      dyz     :     0.010234
      dx2y2   :     0.029883
      dxy     :     0.039174

  8 H s       :     0.889930  s :     0.889930

  9 C s       :     2.884436  s :     2.884436
      pz      :     0.929047  p :     2.888187
      px      :     0.934085
      py      :     1.025055
      dz2     :     0.040009  d :     0.223645
      dxz     :     0.065602
      dyz     :     0.049926
      dx2y2   :     0.031176
      dxy     :     0.036932

 10 H s       :     0.892992  s :     0.892992

 11 O s       :     3.470569  s :     3.470569
      pz      :     1.641924  p :     4.643106
      px      :     1.327413
      py      :     1.673769
      dz2     :     0.003299  d :     0.029608
      dxz     :     0.010623
      dyz     :     0.003846
      dx2y2   :     0.005303
      dxy     :     0.006536

 12 O s       :     3.537885  s :     3.537885
      pz      :     1.577702  p :     4.741440
      px      :     1.805939
      py      :     1.357799
      dz2     :     0.008352  d :     0.027121
      dxz     :     0.002922
      dyz     :     0.007635
      dx2y2   :     0.005009
      dxy     :     0.003203

 13 O s       :     3.534780  s :     3.534780
      pz      :     1.770469  p :     4.754058
      px      :     1.453816
      py      :     1.529774
      dz2     :     0.003991  d :     0.027134
      dxz     :     0.006244
      dyz     :     0.002951
      dx2y2   :     0.007666
      dxy     :     0.006282

 14 O s       :     3.529927  s :     3.529927
      pz      :     1.822979  p :     4.768043
      px      :     1.626710
      py      :     1.318354
      dz2     :     0.004267  d :     0.026720
      dxz     :     0.002544
      dyz     :     0.003715
      dx2y2   :     0.002929
      dxy     :     0.013265

 15 O s       :     3.531831  s :     3.531831
      pz      :     1.770905  p :     4.759493
      px      :     1.403117
      py      :     1.585471
      dz2     :     0.002227  d :     0.026829
      dxz     :     0.008055
      dyz     :     0.003114
      dx2y2   :     0.008351
      dxy     :     0.005082

 16 O s       :     3.538668  s :     3.538668
      pz      :     1.443604  p :     4.767089
      px      :     1.747801
      py      :     1.575684
      dz2     :     0.006176  d :     0.027161
      dxz     :     0.005242
      dyz     :     0.006711
      dx2y2   :     0.004658
      dxy     :     0.004375

 17 H s       :     0.884701  s :     0.884701

 18 H s       :     0.913083  s :     0.913083

 19 H s       :     0.708549  s :     0.708549

 20 H s       :     0.710088  s :     0.710088

 21 H s       :     0.714716  s :     0.714716

 22 H s       :     0.709943  s :     0.709943

 23 H s       :     0.716590  s :     0.716590


---------------------------------
LOEWDIN BOND ORDERS (THRESH 0.050000)
---------------------------------
B(  0-C ,  1-C ) :   1.0617 B(  0-C ,  3-C ) :   0.0630 B(  0-C , 11-O ) :   0.0634 
B(  0-C , 16-O ) :   1.2546 B(  0-C , 17-H ) :   0.9016 B(  0-C , 18-H ) :   0.9005 
B(  1-C ,  2-H ) :   0.8758 B(  1-C ,  3-C ) :   1.0093 B(  1-C ,  5-C ) :   0.0575 
B(  1-C ,  9-C ) :   0.0621 B(  1-C , 11-O ) :   1.1316 B(  1-C , 15-O ) :   0.0800 
B(  1-C , 16-O ) :   0.0802 B(  3-C ,  4-H ) :   0.8668 B(  3-C ,  5-C ) :   1.0159 
B(  3-C ,  7-C ) :   0.0608 B(  3-C , 11-O ) :   0.0557 B(  3-C , 14-O ) :   0.0787 
B(  3-C , 15-O ) :   1.2046 B(  5-C ,  6-H ) :   0.8631 B(  5-C ,  7-C ) :   1.0248 
B(  5-C ,  9-C ) :   0.0540 B(  5-C , 13-O ) :   0.0812 B(  5-C , 14-O ) :   1.2277 
B(  5-C , 15-O ) :   0.0624 B(  7-C ,  8-H ) :   0.8647 B(  7-C ,  9-C ) :   1.0081 
B(  7-C , 11-O ) :   0.0588 B(  7-C , 12-O ) :   0.0636 B(  7-C , 13-O ) :   1.2309 
B(  7-C , 14-O ) :   0.0624 B(  9-C , 10-H ) :   0.8802 B(  9-C , 11-O ) :   1.2003 
B(  9-C , 12-O ) :   1.2646 B(  9-C , 13-O ) :   0.0632 B( 11-O , 12-O ) :   0.0973 
B( 12-O , 19-H ) :   0.8726 B( 13-O , 20-H ) :   0.8768 B( 14-O , 21-H ) :   0.8686 
B( 15-O , 22-H ) :   0.8808 B( 16-O , 23-H ) :   0.8885 

------------------------------------------
LOEWDIN REDUCED ORBITAL POPULATIONS PER MO
-------------------------------------------
THRESHOLD FOR PRINTING IS 0.1%%
                      0         1         2         3         4         5   
                 -18.77143 -18.76274 -18.76236 -18.75047 -18.74979 -18.74518
                   2.00000   2.00000   2.00000   2.00000   2.00000   2.00000
                  --------  --------  --------  --------  --------  --------
11 O  s               0.0       0.5      99.4       0.0       0.0       0.0
12 O  s               0.0      99.4       0.5       0.0       0.0       0.0
13 O  s               0.0       0.0       0.0       0.0       0.0      99.9
14 O  s               0.0       0.0       0.0      99.9       0.0       0.0
15 O  s              99.9       0.0       0.0       0.0       0.0       0.0
16 O  s               0.0       0.0       0.0       0.0      99.9       0.0

                      6         7         8         9        10        11   
                  -9.98141  -9.94903  -9.94500  -9.93812  -9.93561  -9.93469
                   2.00000   2.00000   2.00000   2.00000   2.00000   2.00000
                  --------  --------  --------  --------  --------  --------
 0 C  s               0.0       0.0       0.0       0.0       0.0      99.6
 1 C  s               0.0       0.0      99.6       0.0       0.0       0.0
 3 C  s               0.0      99.6       0.0       0.0       0.0       0.0
 5 C  s               0.0       0.0       0.0      99.6       0.0       0.0
 7 C  s               0.0       0.0       0.0       0.0      99.6       0.0
 9 C  s              99.6       0.0       0.0       0.0       0.0       0.0

                     12        13        14        15        16        17   
                  -0.97847  -0.95241  -0.93190  -0.92667  -0.91342  -0.90808
                   2.00000   2.00000   2.00000   2.00000   2.00000   2.00000
                  --------  --------  --------  --------  --------  --------
 0 C  s               0.7       0.0       1.7       8.1       0.0       0.4
 0 C  pz              0.3       0.0       0.4       2.0       0.0       0.0
 0 C  px              0.2       0.0       0.1       0.8       0.0       0.6
 0 C  py              0.0       0.0       0.5       4.0       0.0       1.1
 0 C  dyz             0.0       0.0       0.0       0.3       0.0       0.1
 0 C  dx2y2           0.0       0.0       0.0       0.1       0.0       0.0
 0 C  dxy             0.0       0.0       0.0       0.2       0.0       0.0
 1 C  s               4.8       0.2       0.9       0.7       0.0       3.3
 1 C  pz              0.2       0.3       0.0       0.0       0.0       0.9
 1 C  px              2.3       0.0       0.0       0.3       0.0       2.7
 1 C  py              1.0       1.3       0.1       0.9       0.1       0.7
 1 C  dxy             0.1       0.0       0.0       0.0       0.0       0.2
 2 H  s               0.6       0.1       0.2       0.1       0.0       0.4
 3 C  s               1.5       8.7       0.7       0.1       0.1       0.0
 3 C  pz              0.2       0.1       0.0       0.0       0.0       0.2
 3 C  px              0.0       1.1       2.2       0.3       1.1       0.0
 3 C  py              0.1       5.2       0.2       0.5       0.1       0.7
 3 C  dz2             0.0       0.2       0.0       0.0       0.0       0.0
 3 C  dxy             0.0       0.3       0.1       0.0       0.1       0.0
 4 H  s               0.2       1.0       0.1       0.0       0.0       0.0
 5 C  s               1.0       4.1       3.8       0.5       2.3       0.0
 5 C  pz              0.0       0.7       0.4       0.0       0.7       0.0
 5 C  px              0.0       0.2       2.5       0.3       0.1       0.0
 5 C  py              0.2       1.3       0.9       0.1       4.9       0.1
 5 C  dyz             0.0       0.1       0.1       0.0       0.2       0.0
 5 C  dx2y2           0.0       0.0       0.1       0.0       0.1       0.0
 5 C  dxy             0.0       0.0       0.0       0.0       0.2       0.0
 6 H  s               0.2       0.5       0.5       0.1       0.2       0.0
 7 C  s               2.3       0.3       5.9       0.4       3.2       0.0
 7 C  pz              0.2       0.0       0.9       0.1       1.1       0.1
 7 C  px              0.3       0.0       2.3       0.3       4.8       0.0
 7 C  py              0.6       0.8       0.6       0.3       0.1       0.1
 7 C  dxz             0.0       0.0       0.2       0.0       0.3       0.0
 7 C  dx2y2           0.0       0.0       0.1       0.0       0.2       0.0
 8 H  s               0.4       0.0       0.8       0.0       0.3       0.0
 9 C  s              15.0       0.9       0.1       0.4       0.0       0.1
 9 C  pz              0.3       0.1       0.2       0.9       0.0       8.5
 9 C  px              3.5       0.2       0.8       0.0       0.5       2.0
 9 C  py              0.2       0.3       0.3       0.7       0.4       2.9
 9 C  dz2             0.0       0.0       0.0       0.0       0.0       0.2
 9 C  dxz             0.1       0.0       0.0       0.0       0.0       0.4
 9 C  dyz             0.2       0.0       0.0       0.1       0.0       0.2
 9 C  dx2y2           0.0       0.0       0.0       0.0       0.0       0.3
10 H  s               1.8       0.1       0.1       0.0       0.0       0.0
11 O  s              26.3       0.8       1.2       0.3       0.1      25.3
11 O  pz              1.8       0.1       0.0       0.0       0.0       0.6
11 O  px              0.3       0.1       0.1       0.1       0.0       0.1
11 O  py              0.1       0.0       0.0       0.0       0.0       0.5
12 O  s              20.4       3.4       0.1       6.3       0.5      29.6
12 O  pz              1.9       0.2       0.0       0.3       0.0       0.8
12 O  py              0.0       0.0       0.0       0.0       0.0       0.4
13 O  s               1.3       0.5      23.2       2.7      30.5       0.0
13 O  pz              0.1       0.0       0.6       0.1       0.6       0.0
13 O  px              0.1       0.0       0.4       0.0       0.3       0.0
13 O  py              0.0       0.0       0.6       0.1       0.7       0.0
14 O  s               0.7      10.4      16.9       2.6      27.8       0.0
14 O  pz              0.0       0.1       0.2       0.0       0.2       0.0
14 O  px              0.0       0.6       0.6       0.1       1.2       0.0
15 O  s               1.6      41.1       8.5       3.2       4.1       0.7
15 O  pz              0.0       0.7       0.2       0.1       0.1       0.0
15 O  py              0.1       1.5       0.3       0.1       0.1       0.0
16 O  s               0.7       0.0       7.0      44.3       0.0       7.1
16 O  pz              0.0       0.0       0.0       0.2       0.0       0.0
16 O  py              0.1       0.0       0.4       2.4       0.0       0.3
17 H  s               0.2       0.0       0.2       0.8       0.0       0.1
18 H  s               0.1       0.0       0.2       0.9       0.0       0.1
19 H  s               4.0       0.7       0.0       1.2       0.1       5.9
20 H  s               0.3       0.1       4.9       0.6       5.7       0.0
21 H  s               0.2       2.7       2.9       0.4       5.4       0.0
22 H  s               0.3       8.2       1.8       0.7       0.9       0.2
23 H  s               0.2       0.0       1.4       9.1       0.0       1.4

                     18        19        20        21        22        23   
                  -0.70753  -0.69034  -0.62288  -0.58173  -0.56899  -0.51304
                   2.00000   2.00000   2.00000   2.00000   2.00000   2.00000
                  --------  --------  --------  --------  --------  --------
 0 C  s               3.6       4.4      15.8       0.0       7.0       0.1
 0 C  pz              0.0       0.1       0.7       0.3       3.6       0.0
 0 C  px              0.8       1.0       0.1       0.0       0.3       0.3
 0 C  py              1.8       1.3       1.0       0.1       1.0       0.2
 1 C  s              10.6       9.5       0.7       0.4       6.1       0.0
 1 C  pz              2.0       0.0       2.3       3.4       2.2       1.4
 1 C  px              0.1       0.8       4.6       0.1       0.0       0.4
 1 C  py              2.2       0.6       1.3       3.0       1.0       0.1
 1 C  dyz             0.0       0.0       0.1       0.0       0.0       0.0
 1 C  dxy             0.2       0.0       0.0       0.1       0.0       0.0
 2 H  s               2.0       2.3       0.1       0.4       3.7       0.4
 3 C  s              14.7       0.0       3.3       8.6       0.0       0.0
 3 C  pz              0.6       0.0       0.3       0.6       0.3       2.1
 3 C  px              1.2       2.8       1.9       0.3       2.0       0.4
 3 C  py              3.4       0.9       0.6       0.1       1.8       2.6
 3 C  dxy             0.1       0.0       0.0       0.0       0.0       0.0
 4 H  s               3.2       0.0       0.3       2.9       0.0       1.1
 5 C  s               8.4       5.3       2.5       3.2       4.9       0.1
 5 C  pz              0.1       0.0       0.1       0.3       0.2       1.7
 5 C  px              1.9       0.2       2.3       7.4       0.0       0.4
 5 C  py              3.0       3.1       0.0       0.7       0.1       0.0
 5 C  dxz             0.0       0.0       0.0       0.1       0.0       0.0
 6 H  s               1.5       0.9       0.8       1.0       1.5       0.3
 7 C  s               2.5      11.4       3.2       4.4       1.6       1.3
 7 C  pz              0.1       0.0       0.0       0.3       0.4       3.8
 7 C  px              1.7       4.2       0.0       0.1       0.4       2.4
 7 C  py              0.8       0.4       3.4       4.3       4.7       0.8
 7 C  dxy             0.1       0.0       0.0       0.1       0.0       0.0
 8 H  s               0.6       2.1       0.8       1.5       0.9       0.1
 9 C  s               0.5       8.8       5.2       4.7       0.3       0.3
 9 C  pz              1.6       0.2       0.1       1.0       3.3       6.7
 9 C  px              0.8       1.0       1.7       0.1       3.5       2.7
 9 C  py              0.8       3.0       0.6       1.0       0.8       0.3
 9 C  dz2             0.0       0.0       0.0       0.0       0.0       0.2
 9 C  dx2y2           0.1       0.0       0.0       0.0       0.1       0.0
10 H  s               0.2       1.8       1.5       2.3       0.0       1.1
11 O  s               4.3       0.2       1.2       0.3       0.7       0.3
11 O  pz              0.1       0.0       0.2       0.2       0.0       1.9
11 O  px              2.1       7.7       0.7       8.0       5.0       0.1
11 O  py              1.2       0.5       0.3       1.5       2.5       0.0
12 O  s               0.1       1.8       1.0       0.8       0.0       0.0
12 O  pz              0.1       0.6       0.7       1.5       0.1       1.8
12 O  px              0.0       0.4       0.5       0.2       1.2       0.5
12 O  py              0.0       2.4       3.5       1.9       3.0      16.6
12 O  dyz             0.0       0.0       0.0       0.0       0.0       0.1
13 O  s               0.6       3.3       0.5       1.3       0.0       0.0
13 O  pz              0.0       0.1       0.1       0.3       0.2       0.2
13 O  px              0.3       2.4       1.5       2.0       1.2      11.6
13 O  py              0.0       1.0       1.2       0.0       1.7       7.8
13 O  dx2y2           0.0       0.0       0.0       0.0       0.0       0.1
14 O  s               2.4       1.3       0.8       0.1       1.0       0.0
14 O  pz              0.1       0.1       0.1       0.4       0.6       0.0
14 O  px              0.1       0.1       0.1       0.8       0.0       0.5
14 O  py              1.7       1.5       0.9       5.3       5.5       2.8
15 O  s               3.6       0.0       0.2       1.2       0.0       0.1
15 O  pz              0.3       0.0       0.2       0.3       0.0       1.3
15 O  px              2.6       0.0       2.9       8.8       0.3       5.5
15 O  py              1.4       0.0       0.6       3.5       0.0       0.8
16 O  s               0.8       1.5       2.3       0.0       0.4       0.0
16 O  pz              0.3       0.5       4.4       0.0       7.4       0.7
16 O  px              0.2       0.4       1.6       0.0       1.8       0.2
16 O  py              0.2       0.3       1.7       0.0       1.2       0.1
17 H  s               0.9       1.1       4.5       0.0       4.1       0.0
18 H  s               0.8       1.0       5.0       0.0       2.4       0.1
19 H  s               0.0       1.5       1.6       1.1       1.1       5.5
20 H  s               0.3       1.9       1.0       0.7       0.8       5.8
21 H  s               1.1       0.8       0.4       1.8       1.9       1.0
22 H  s               2.1       0.0       1.2       4.0       0.0       2.2
23 H  s               0.3       0.6       2.8       0.0       3.1       0.3

                     24        25        26        27        28        29   
                  -0.50595  -0.50172  -0.47882  -0.44816  -0.43951  -0.42909
                   2.00000   2.00000   2.00000   2.00000   2.00000   2.00000
                  --------  --------  --------  --------  --------  --------
 0 C  s               0.0       0.2       0.0       0.9       0.7       0.5
 0 C  pz              1.5       0.0       0.6       0.5       1.3       0.3
 0 C  px              0.3       0.1       0.0       2.7       1.3       4.3
 0 C  py              3.7       5.1       1.5       6.7       4.9       2.6
 0 C  dx2y2           0.0       0.0       0.0       0.1       0.2       0.0
 0 C  dxy             0.0       0.0       0.0       0.1       0.1       0.1
 1 C  s               2.3       0.2       0.0       0.3       0.6       0.2
 1 C  pz              1.0       5.1       0.2       0.1       4.0       4.0
 1 C  px              5.2       0.4       3.4       1.6       0.3       1.2
 1 C  py              1.7       2.2       1.2       0.1       7.2       2.7
 1 C  dxz             0.0       0.0       0.0       0.0       0.2       0.0
 2 H  s               4.6       0.0       0.2       0.0       4.4       0.5
 3 C  s               1.4       0.8       0.1       1.3       0.1       0.0
 3 C  pz              8.0       3.9       3.0       3.6       1.6       3.2
 3 C  px              0.7       0.9       2.3       0.5       0.8      11.5
 3 C  py              0.0       8.8       4.1       1.6       0.6       1.4
 3 C  dz2             0.0       0.1       0.0       0.1       0.0       0.0
 3 C  dx2y2           0.0       0.0       0.0       0.0       0.0       0.1
 4 H  s               4.7       3.3       0.5       3.6       0.4       1.5
 5 C  s               2.9       0.2       0.6       0.1       0.7       0.6
 5 C  pz              6.7       0.9       7.7       0.3       2.8       2.3
 5 C  px              0.3       1.6       3.9       0.2       0.6       5.4
 5 C  py              1.9       0.9       3.5       2.2       1.5       0.3
 5 C  dxz             0.0       0.0       0.1       0.0       0.1       0.1
 5 C  dxy             0.0       0.0       0.0       0.2       0.0       0.0
 6 H  s               4.9       0.7       3.7       0.0       2.2       0.1
 7 C  s               2.6       0.1       0.4       1.9       0.4       0.1
 7 C  pz              4.2       0.4       3.9       3.4       4.5       1.0
 7 C  px              0.2       0.0       3.3       1.4       1.8       0.9
 7 C  py              0.0       0.8       0.4       0.9       0.2       0.8
 7 C  dxz             0.0       0.0       0.0       0.1       0.2       0.0
 8 H  s               3.7       0.0       2.3       3.0       2.3       0.3
 9 C  s               3.0       0.0       0.0       0.4       0.5       0.2
 9 C  pz              1.6       6.9       0.1       0.6       2.0       0.8
 9 C  px              0.7       0.4       0.1       4.9       0.6       5.9
 9 C  py              3.1       0.1       2.6       3.8       0.0       0.5
 9 C  dxz             0.0       0.0       0.0       0.2       0.0       0.0
10 H  s               3.9       0.4       0.3       4.4       1.4       3.1
11 O  s               0.9       0.1       1.1       0.1       0.1       0.6
11 O  pz              0.2       0.0       0.6       0.1       1.5       5.3
11 O  px              1.5       6.6       0.4       3.1       2.0       2.1
11 O  py              0.3       0.6       3.2       0.0       0.3       0.0
12 O  s               0.2       0.1       0.1       0.2       0.1       0.0
12 O  pz              2.5       0.7       0.3       1.4       0.1       0.0
12 O  px              0.6       1.7       0.1       1.0       0.1       1.9
12 O  py              0.4      11.1       0.0       0.0       3.1       1.6
13 O  s               0.0       0.0       0.3       0.6       0.6       0.1
13 O  pz              1.1       0.0       1.4       0.4       0.1       0.2
13 O  px              0.7       0.5       0.6       1.3       5.9       3.8
13 O  py              0.4       0.0       0.1       4.2       4.8       0.1
14 O  s               0.1       0.5       0.1       0.0       0.7       1.1
14 O  pz              2.5       0.2       0.0       0.4       1.3       0.7
14 O  px              0.2       0.6       1.4       0.0       1.7       4.8
14 O  py              3.8       0.0      16.6       5.0       0.0       0.5
14 O  dxy             0.0       0.0       0.1       0.1       0.0       0.0
15 O  s               0.0       1.0       0.0       0.7       0.0       0.0
15 O  pz              1.1       2.4       0.0       3.1       0.4       1.9
15 O  px              0.6       9.6       7.8       4.0       0.5       0.2
15 O  py              0.0       0.1       3.6       0.2       1.0       5.4
16 O  s               0.2       0.0       0.2       0.8       0.5       1.2
16 O  pz              2.2       5.8       1.8       4.1      10.4       1.0
16 O  px              0.7       2.5       0.2       4.2       2.8       1.0
16 O  py              0.0       0.7       0.0       0.2       0.5       2.0
17 H  s               0.8       0.1       0.2       0.0       1.2       0.5
18 H  s               0.4       0.3       0.1       5.6       1.2       3.7
19 H  s               0.4       3.7       0.0       0.1       0.8       0.2
20 H  s               0.4       0.1       0.2       1.3       3.2       0.6
21 H  s               1.4       0.1       5.0       1.6       0.0       0.7
22 H  s               0.0       3.0       2.8       1.7       0.0       0.8
23 H  s               0.8       2.6       0.5       2.1       3.9       0.4

                     30        31        32        33        34        35   
                  -0.41121  -0.39609  -0.38781  -0.38444  -0.36588  -0.35167
                   2.00000   2.00000   2.00000   2.00000   2.00000   2.00000
                  --------  --------  --------  --------  --------  --------
 0 C  s               0.0       0.3       0.0       0.1       0.0       0.1
 0 C  pz              9.3       9.7       2.3       6.4       1.0       5.2
 0 C  px             20.1       5.1       0.0       1.2       1.5       4.7
 0 C  py              0.3       0.3       0.0       0.1       0.0       0.6
 0 C  dz2             0.1       0.0       0.0       0.0       0.0       0.1
 0 C  dyz             0.0       0.1       0.0       0.0       0.0       0.2
 1 C  s               0.9       0.1       0.1       0.2       0.0       0.2
 1 C  pz              2.7       1.0       0.3       0.0       0.2       6.0
 1 C  px              3.5       3.8       0.7       0.5       2.3       6.9
 1 C  py              7.5       0.2       2.9       0.1       0.1       1.5
 1 C  dz2             0.0       0.0       0.0       0.1       0.0       0.3
 1 C  dxz             0.0       0.1       0.0       0.1       0.0       0.2
 1 C  dyz             0.2       0.0       0.0       0.1       0.0       0.2
 2 H  s               0.0       1.3       0.0       0.3       0.2      10.5
 3 C  s               0.3       0.4       0.1       0.0       0.0       0.1
 3 C  pz              0.0       2.2       8.2       1.1       0.6       0.3
 3 C  px              0.9       0.0       2.9       2.7       0.9       1.0
 3 C  py              0.4       0.0       1.9       0.1       0.0       0.6
 3 C  dxy             0.0       0.0       0.3       0.1       0.1       0.0
 4 H  s               0.3       1.7       1.8       0.9       0.5       0.3
 5 C  s               0.2       0.3       0.1       0.3       0.1       0.0
 5 C  pz              0.0       1.1       0.9       8.3       5.7       2.5
 5 C  px              0.1       0.1       5.7       2.0       0.9       0.0
 5 C  py              1.1       1.1       0.9       1.2       8.3       1.0
 5 C  dz2             0.0       0.0       0.0       0.1       0.1       0.0
 5 C  dyz             0.0       0.0       0.0       0.2       0.0       0.0
 5 C  dxy             0.2       0.1       0.0       0.1       0.0       0.1
 6 H  s               0.0       0.9       0.1       4.8       4.9       1.0
 7 C  s               0.5       0.1       0.0       0.5       0.1       0.0
 7 C  pz              0.3       0.4       9.6       0.9       6.3       1.8
 7 C  px              0.8       1.4       9.7       0.2       1.0       0.5
 7 C  py              0.6       5.3       0.4       3.2       6.3       1.1
 7 C  dz2             0.0       0.0       0.1       0.0       0.1       0.0
 7 C  dyz             0.0       0.1       0.0       0.1       0.0       0.0
 7 C  dx2y2           0.0       0.1       0.2       0.1       0.0       0.0
 8 H  s               0.3       0.0       4.8       1.4       4.9       1.1
 9 C  s               0.3       0.7       0.3       0.1       0.1       0.1
 9 C  pz              0.8       0.7       0.0       0.3       0.5       0.1
 9 C  px              0.1       6.8       1.2       3.1       0.0       1.2
 9 C  py              0.4       2.4       8.1       7.0       3.5       0.1
 9 C  dz2             0.1       0.1       0.0       0.0       0.1       0.2
 9 C  dxz             0.0       0.0       0.0       0.0       0.3       0.0
 9 C  dyz             0.1       0.1       0.0       0.0       0.1       0.0
10 H  s               0.7       2.5       0.1       2.6       0.5       0.5
11 O  s               1.6       0.3       0.0       1.0       0.6       0.3
11 O  pz              3.4       0.1       0.2       5.6       1.9       7.6
11 O  px              0.0       0.6       0.3       3.5       2.8       2.0
11 O  py              4.6       4.9       2.1       0.7       0.7       1.8
12 O  s               1.3       0.1       0.8       0.2       1.3       1.3
12 O  pz              1.2       2.4       4.0       2.0      13.5       2.4
12 O  px              1.2       0.2       0.1       2.7       0.0       0.7
12 O  py              1.9       2.6       0.0       0.1       0.4       5.0
13 O  s               0.2       0.1       0.0       2.4       0.0       0.2
13 O  pz              0.0       0.7       7.7       1.3       1.3       1.4
13 O  px              0.4       6.1       0.4       0.1       3.5       1.0
13 O  py              1.2       0.1       1.8       6.2       0.7       0.0
14 O  s               0.4       0.3       0.5       0.0       1.1       0.1
14 O  pz              0.2       0.0       0.0       0.5       8.3       2.1
14 O  px              0.8       0.3       2.7       1.1       3.7       1.0
14 O  py              1.9       4.4       0.1       7.3       0.1       0.0
15 O  s               0.9       1.0       0.1       0.4       1.2       0.0
15 O  pz              0.4       2.3       3.4       1.0       1.6       0.0
15 O  px              1.3       0.5       3.0       0.0       1.0       0.0
15 O  py              2.2       0.6       4.1       2.9       1.2       1.1
16 O  s               0.1       0.2       0.2       0.3       0.0       0.6
16 O  pz              2.8       1.7       0.1       0.1       0.0       0.1
16 O  px              5.9       0.7       0.3       0.1       1.3       0.3
16 O  py              0.0       5.9       1.3       4.1       0.0       9.8
17 H  s               0.0       7.5       0.5       3.1       0.0       7.4
18 H  s               9.9       0.1       0.1       0.0       1.2       1.0
19 H  s               0.7       0.9       0.0       0.1       0.1       1.0
20 H  s               0.4       1.0       0.8       0.9       0.1       0.3
21 H  s               1.1       1.2       0.1       1.1       0.1       0.1
22 H  s               0.3       0.4       0.5       0.0       0.5       0.0
23 H  s               0.0       1.0       0.0       0.2       0.0       0.2

                     36        37        38        39        40        41   
                  -0.32815  -0.31641  -0.30340  -0.29454  -0.28053  -0.26322
                   2.00000   2.00000   2.00000   2.00000   2.00000   2.00000
                  --------  --------  --------  --------  --------  --------
 0 C  s               0.2       0.1       0.0       0.3       0.0       0.0
 0 C  pz              2.1       0.0       0.1       0.9       0.9       0.2
 0 C  px              0.2       0.4       0.1       1.0       0.1       0.0
 0 C  py              0.1       0.0       0.0       3.9       3.7       0.6
 0 C  dz2             0.0       0.0       0.0       0.4       0.1       0.0
 0 C  dxz             0.0       0.0       0.0       0.4       0.3       0.0
 1 C  s               0.1       0.8       0.1       0.2       0.4       1.0
 1 C  pz              5.0       0.2       0.9       4.0       0.1       0.2
 1 C  px              0.4       0.0       0.4       0.3       0.8       0.8
 1 C  py              0.0       0.3       0.0       0.1       1.4       0.1
 1 C  dyz             0.1       0.0       0.0       0.2       0.1       0.0
 1 C  dx2y2           0.0       0.1       0.0       0.0       0.1       0.0
 1 C  dxy             0.3       0.0       0.0       0.0       0.0       0.0
 2 H  s               3.7       1.2       1.3       1.5       0.1       0.4
 3 C  s               0.5       0.2       0.1       0.1       0.0       0.4
 3 C  pz              1.1       5.5       2.0       0.1       0.5       0.0
 3 C  px              0.4       0.0       0.3       1.4       2.0       0.9
 3 C  py              2.2       1.4       0.3       1.0       2.5       0.0
 3 C  dz2             0.0       0.2       0.3       0.0       0.1       0.0
 3 C  dxz             0.0       0.1       0.0       0.1       0.2       0.0
 3 C  dyz             0.0       0.0       0.1       0.0       0.1       0.2
 3 C  dx2y2           0.0       0.6       0.0       0.0       0.0       0.1
 4 H  s               0.0       4.7       3.7       0.0       1.3       0.4
 5 C  s               0.0       1.0       0.2       0.1       0.2       0.1
 5 C  pz              0.0       0.6       4.0       0.3       0.4       0.0
 5 C  px              0.1       1.5       0.0       2.2       3.5       3.0
 5 C  py              0.9       2.3       0.2       0.1       0.2       0.6
 5 C  dz2             0.0       0.0       0.2       0.0       0.1       0.0
 5 C  dyz             0.0       0.0       0.1       0.0       0.0       0.0
 5 C  dx2y2           0.2       0.0       0.0       0.2       0.3       0.0
 5 C  dxy             0.1       0.0       0.1       0.1       0.0       0.1
 6 H  s               0.0       0.0       3.7       0.2       0.7       0.1
 7 C  s               0.5       0.0       0.2       0.3       0.4       0.2
 7 C  pz              0.1       0.3       2.1       0.1       0.0       2.4
 7 C  px              0.5       1.2       0.2       2.4       1.2       0.1
[...]
 5 C  px              0.1       0.0       0.1       0.2       0.3       0.0
 5 C  py              0.0       0.3       0.1       1.2       1.4       0.0
 5 C  dz2             0.0       0.0       0.0       0.0       0.3       0.0
 5 C  dxz             0.0       0.0       0.1       0.4       0.8       0.0
 5 C  dyz             0.0       0.1       0.4       1.2       2.7       0.0
 5 C  dx2y2           0.1       0.4       0.1       2.2       0.5       0.0
 5 C  dxy             0.1       0.7       0.1       3.1       1.6       0.0
 6 H  s               0.0       0.0       0.0       0.0       0.1       0.0
 7 C  s               0.4       0.5       0.1       0.2       1.5       0.0
 7 C  pz              0.1       0.2       0.0       0.2       0.6       0.0
 7 C  px              0.4       0.7       0.2       0.6       1.1       0.0
 7 C  py              0.0       0.0       0.0       0.0       0.4       0.0
 7 C  dz2             0.1       0.2       0.0       0.1       0.0       0.0
 7 C  dxz             1.2       1.6       0.4       0.6       3.1       0.0
 7 C  dyz             0.0       0.1       0.1       0.1       0.2       0.0
 7 C  dx2y2           0.4       1.2       0.1       2.8       1.9       0.0
 7 C  dxy             0.2       0.1       0.1       0.0       0.2       0.1
 9 C  s               0.8       0.7       0.1       0.5       0.3       2.2
 9 C  pz              0.5       1.0       0.2       0.8       0.1       0.6
 9 C  px              0.0       0.0       0.0       0.2       0.1       2.0
 9 C  py              0.2       0.3       0.1       0.3       0.3       0.1
 9 C  dz2             0.9       0.8       0.9       0.6       1.6       0.3
 9 C  dxz             0.0       0.4       0.0       0.8       0.0       3.1
 9 C  dyz             2.2       2.4       0.2       2.1       1.0       0.4
 9 C  dx2y2           0.1       0.3       0.1       0.3       0.0       2.2
 9 C  dxy             0.0       0.3       0.0       0.0       0.3       0.4
10 H  s               0.0       0.0       0.0       0.0       0.0       0.1
11 O  s               0.0       0.1       0.1       0.1       0.2       0.0
11 O  px              0.0       0.0       0.2       0.0       0.1       5.6
11 O  py              0.0       0.0       0.0       0.0       0.0       1.1
11 O  dz2             0.6       0.1       0.5       0.5       0.6       0.7
11 O  dxz             0.0       0.8       1.4       0.0       0.2      46.2
11 O  dyz             0.1       0.1       0.1       0.0       0.2       7.2
11 O  dx2y2           0.2       0.0       1.4       0.2       0.9       5.9
11 O  dxy             0.0       1.4       0.9       2.4       0.1       5.9
12 O  s               0.6       1.4       0.4       1.4       0.5       0.0
12 O  pz              0.5       0.8       0.1       0.6       0.2       0.0
12 O  px              0.2       0.0       0.0       0.0       0.1       0.0
12 O  py              0.6       0.6       0.1       0.6       0.6       0.0
12 O  dz2             6.4       8.1       0.5       5.5       1.0       0.0
12 O  dxz             1.8       0.6       0.3       0.3       1.2       0.1
12 O  dyz             9.6      12.3       2.8       9.5       5.3       0.0
12 O  dx2y2           0.1       0.4       0.4       0.6       0.3       0.2
12 O  dxy             0.1       0.2       0.2       0.0       0.1       0.0
13 O  s               0.7       0.8       0.2       0.5       2.8       0.0
13 O  pz              0.1       0.2       0.0       0.1       0.2       0.0
13 O  px              0.5       0.8       0.2       0.6       1.7       0.0
13 O  py              0.1       0.1       0.0       0.1       0.1       0.0
13 O  dz2             0.1       0.0       0.1       0.0       0.7       0.0
13 O  dxz             6.6      10.1       1.3       4.9      12.0       0.1
13 O  dyz             0.0       0.1       0.0       0.2       0.1       0.1
13 O  dx2y2           4.3       6.2       1.9       5.6      12.0       0.0
13 O  dxy             0.0       0.0       0.0       0.3       0.0       0.0
14 O  s               0.0       0.3       0.1       1.7       3.4       0.0
14 O  pz              0.0       0.0       0.0       0.2       0.2       0.0
14 O  py              0.0       0.4       0.1       1.9       1.9       0.0
14 O  dz2             0.1       0.0       0.3       0.5       2.7       0.0
14 O  dxz             0.0       0.5       0.0       2.2       1.6       0.0
14 O  dyz             0.1       2.0       0.1       9.7       8.4       0.0
14 O  dx2y2           0.0       0.9       0.1       5.4       5.5       0.0
14 O  dxy             0.0       2.6       0.9      11.6       7.7       0.0
15 O  s               0.5       0.1       4.0       0.0       0.4       0.4
15 O  px              0.3       0.1       1.9       0.2       0.1       0.0
15 O  py              0.2       0.1       1.8       0.1       0.1       0.2
15 O  dz2             1.1       0.4      10.2       0.2       1.0       0.7
15 O  dxz             0.2       0.1       1.2       0.6       0.0       0.0
15 O  dyz             0.2       0.1       1.3       0.3       0.0       0.0
15 O  dx2y2           0.8       0.7       4.8       1.0       0.2       0.6
15 O  dxy             3.8       1.3      30.7       1.3       1.4       0.6
16 O  s               2.2       1.4       0.4       0.2       0.0       0.0
16 O  pz              0.9       0.5       0.2       0.1       0.0       0.0
16 O  px              0.5       0.3       0.1       0.0       0.0       0.0
16 O  py              1.0       0.6       0.2       0.1       0.0       0.0
16 O  dz2             2.5       1.3       0.3       0.1       0.0       0.0
16 O  dxz             1.3       0.9       0.5       0.2       0.0       0.0
16 O  dyz            13.9       9.4       2.7       2.0       0.0       0.0
16 O  dx2y2           7.8       4.8       1.0       0.7       0.0       0.0
16 O  dxy             9.3       5.2       1.3       0.6       0.0       0.1
19 H  s               0.3       0.2       0.0       0.2       0.1       0.0
20 H  s               0.1       0.2       0.0       0.1       0.3       0.0
21 H  s               0.0       0.1       0.0       0.4       0.2       0.0
22 H  s               0.1       0.0       0.4       0.1       0.0       0.0
23 H  s               0.4       0.2       0.0       0.0       0.0       0.0



                      *****************************
                      * MAYER POPULATION ANALYSIS *
                      *****************************

  NA   - Mulliken gross atomic population
  ZA   - Total nuclear charge
  QA   - Mulliken gross atomic charge
  VA   - Mayer's total valence
  BVA  - Mayer's bonded valence
  FA   - Mayer's free valence

  ATOM       NA         ZA         QA         VA         BVA        FA
  0 C      5.9546     6.0000     0.0454     3.9677     3.9677    -0.0000
  1 C      5.9509     6.0000     0.0491     3.9911     3.9911     0.0000
  2 H      0.9396     1.0000     0.0604     0.9825     0.9825    -0.0000
  3 C      6.0262     6.0000    -0.0262     4.0494     4.0494    -0.0000
  4 H      0.9329     1.0000     0.0671     0.9780     0.9780    -0.0000
  5 C      5.9427     6.0000     0.0573     4.0666     4.0666     0.0000
  6 H      0.9398     1.0000     0.0602     0.9817     0.9817    -0.0000
  7 C      5.9257     6.0000     0.0743     4.0489     4.0489     0.0000
  8 H      0.9316     1.0000     0.0684     0.9921     0.9921     0.0000
  9 C      5.8137     6.0000     0.1863     4.1006     4.1006    -0.0000
 10 H      0.9245     1.0000     0.0755     0.9873     0.9873    -0.0000
 11 O      8.3080     8.0000    -0.3080     2.1790     2.1790     0.0000
 12 O      8.4006     8.0000    -0.4006     2.0492     2.0492    -0.0000
 13 O      8.4173     8.0000    -0.4173     2.0259     2.0259     0.0000
 14 O      8.4274     8.0000    -0.4274     2.0213     2.0213    -0.0000
 15 O      8.4156     8.0000    -0.4156     2.0156     2.0156    -0.0000
 16 O      8.4266     8.0000    -0.4266     2.0135     2.0135     0.0000
 17 H      0.9054     1.0000     0.0946     0.9939     0.9939     0.0000
 18 H      0.9489     1.0000     0.0511     0.9533     0.9533     0.0000
 19 H      0.6882     1.0000     0.3118     0.8855     0.8855    -0.0000
 20 H      0.6911     1.0000     0.3089     0.8865     0.8865    -0.0000
 21 H      0.6934     1.0000     0.3066     0.9022     0.9022    -0.0000
 22 H      0.6909     1.0000     0.3091     0.8794     0.8794    -0.0000
 23 H      0.7043     1.0000     0.2957     0.8857     0.8857     0.0000

  Mayer bond orders larger than 0.100000
B(  0-C ,  1-C ) :   1.0418 B(  0-C , 16-O ) :   1.0834 B(  0-C , 17-H ) :   0.8974 
B(  0-C , 18-H ) :   0.9118 B(  1-C ,  2-H ) :   0.8807 B(  1-C ,  3-C ) :   0.9654 
B(  1-C , 11-O ) :   1.0077 B(  3-C ,  4-H ) :   0.8883 B(  3-C ,  5-C ) :   1.0163 
B(  3-C , 15-O ) :   1.0635 B(  5-C ,  6-H ) :   0.8619 B(  5-C ,  7-C ) :   1.0477 
B(  5-C , 14-O ) :   1.0876 B(  7-C ,  8-H ) :   0.8804 B(  7-C ,  9-C ) :   0.9897 
B(  7-C , 13-O ) :   1.0877 B(  9-C , 10-H ) :   0.8922 B(  9-C , 11-O ) :   1.0763 
B(  9-C , 12-O ) :   1.1103 B( 12-O , 19-H ) :   0.8332 B( 13-O , 20-H ) :   0.8417 
B( 14-O , 21-H ) :   0.8312 B( 15-O , 22-H ) :   0.8436 B( 16-O , 23-H ) :   0.8521 


-------
TIMINGS
-------

Total SCF time: 0 days 0 hours 0 min 9 sec 

Total time                  ....       9.116 sec
Sum of individual times     ....       8.754 sec  ( 96.0%)

SCF preparation             ....       0.158 sec  (  1.7%)
Fock matrix formation       ....       7.887 sec  ( 86.5%)
  Startup                   ....       0.048 sec  (  0.6% of F)
  Split-RI-J                ....       3.528 sec  ( 44.7% of F)
  XC integration            ....       3.920 sec  ( 49.7% of F)
    Basis function eval.    ....       1.324 sec  ( 33.8% of XC)
    Density eval.           ....       0.739 sec  ( 18.8% of XC)
    XC-Functional eval.     ....       0.277 sec  (  7.1% of XC)
    XC-Potential eval.      ....       0.978 sec  ( 25.0% of XC)
Diagonalization             ....       0.000 sec  (  0.0%)
Density matrix formation    ....       0.155 sec  (  1.7%)
Total Energy calculation    ....       0.026 sec  (  0.3%)
Population analysis         ....       0.102 sec  (  1.1%)
Orbital Transformation      ....       0.052 sec  (  0.6%)
Orbital Orthonormalization  ....       0.000 sec  (  0.0%)
DIIS solution               ....       0.291 sec  (  3.2%)
  MO trafo                  ....       0.000 sec  (  0.0 % of DIIS)
  Orb grad                  ....       0.000 sec  (  0.0 % of DIIS)
  Energy W gradient         ....       0.000 sec  (  0.0 % of DIIS)
  DIIS error                ....       0.006 sec  (  2.0 % of DIIS)
  DIIS work                 ....       0.244 sec  ( 83.8 % of DIIS)
  Form Q                    ....       0.000 sec  (  0.0 % of DIIS)
  Form QpQm                 ....       0.000 sec  (  0.0 % of DIIS)
  Exp/Cayley                ....       0.000 sec  (  0.0 % of DIIS)
  Orb update                ....       0.000 sec  (  0.0 % of DIIS)
  Wake-sleep                ....       0.013 sec  (  4.4 % of DIIS)
SOSCF solution              ....       0.083 sec  (  0.9%)
  MO trafo                  ....       0.047 sec  ( 56.5 % of SOSCF)
  Orb grad                  ....       0.001 sec  (  1.3 % of SOSCF)
  Rot update                ....       0.017 sec  ( 20.2 % of SOSCF)
  Step                      ....       0.018 sec  ( 22.0 % of SOSCF)
Finished LeanSCF after   9.2 sec

Maximum memory used throughout the entire LEANSCF-calculation: 18.2 MB


-------------------------------------------------------------------------------
                          DFT DISPERSION CORRECTION                            
                                                                               
                                DFTD4 V3.4.0                                   
-------------------------------------------------------------------------------
The PBE functional is recognized
Active option DFTDOPT                   ...         5   

-------------------------   ----------------
Dispersion correction           -0.024443369
-------------------------   ----------------

------------------   -----------------
gCP correction             0.153973036
------------------   -----------------

-------------------------   --------------------
FINAL SINGLE POINT ENERGY      -685.693021224579
-------------------------   --------------------


------------------------------------------------------------------------------
                              ORCA PROPERTY CALCULATIONS
------------------------------------------------------------------------------

GBWName                                 ... sp.gbw
Number of atoms                         ...     24
Number of basis functions               ...    192
Max core memory                         ...   1024 MB

Electric properties:
Dipole moment                           ... YES
Quadrupole moment                       ...  NO
Static polarizability (Dipole/Dipole)   ...  NO
Static polarizability (Dipole/Quad.)    ...  NO
Static polarizability (Quad./Quad.)     ...  NO
Static polarizability (Velocity)        ...  NO

Atomic electric properties:
Dipole moment                           ...  NO
Quadrupole moment                       ...  NO
Static polarizability                   ...  NO

Choice of electric origin               ... Center of mass
Position of electric origin             ...    -0.000007     0.000001    -0.000003

General magnetic properties:
Magnetizability                         ...  NO

EPR properties:
g-Tensor (aka g-matrix)                 ...  NO
Zero-Field splitting spin-orbit         ...  NO
Zero-field splitting spin-spin          ...  NO
Hyperfine couplings                     ...  NO (   0 nuclei)
Quadrupole couplings                    ...  NO (   0 nuclei)
Contact density                         ...  NO (   0 nuclei)

NMR properties:
Chemical shifts                         ...  NO (   0 nuclei)
Spin-rotation constants                 ...  NO (   0 nuclei)
Spin-spin couplings                     ...  NO (   0 nuclei,    0 pairs)

Choice of magnetic origin               ... GIAO
Position of magnetic origin             ...     0.000000     0.000000     0.000000

Properties with geometric perturbations:
SCF Hessian                             ...  NO
IR spectrum                             ...  NO
VCD spectrum                            ...  NO
X-ray spectroscopy properties:
SCF XES/XAS/RIXS spectra                ...  NO


-------------
DIPOLE MOMENT
-------------

Method             : SCF
Type of density    : Electron Density
Multiplicity       :   1
Irrep              :   0
Energy             :  -685.8225508914679267 Eh
Relativity type    : 
Basis              : AO
                                X                 Y                 Z
Electronic contribution:      2.365613510      -0.230275353       1.464036968
Nuclear contribution   :     -3.390494358       0.746581697      -1.625456397
                        -----------------------------------------
Total Dipole Moment    :     -1.024880848       0.516306345      -0.161419429
                        -----------------------------------------
Magnitude (a.u.)       :      1.158882749
Magnitude (Debye)      :      2.945645853



--------------------
Rotational spectrum 
--------------------
 
Rotational constants in cm-1:             0.042352             0.026629             0.018386 
Rotational constants in MHz :          1269.671574           798.318595           551.195849 

Dipole components along the rotational axes: 
x,y,z [a.u.] :    -0.517789     1.033732    -0.079382 
x,y,z [Debye]:    -1.316115     2.627539    -0.201773 

 

Dipole moment calculation done in   0.0 sec 

Maximum memory used throughout the entire PROP-calculation: 11.8 MB

--------------------------------
SUGGESTED CITATIONS FOR THIS RUN
--------------------------------

Below you find a list of papers that are relevant to this ORCA run
We neither can nor want to force you to cite these papers, but we appreciate if you do
You receive ORCA, which is the product of decades of hard work by many enthusiastic individuals, for free
The only thing we kindly ask in return is that you cite our papers,
We deeply appreciate it, if you show your appreciation for ORCA by not just citing the generic ORCA reference.

Please note that relegating all ORCA citations to the supporting information does *not* help us.
SI sections are not indexed - citations you put there will not count into any citation statistics
But we need these citations in order to attract the funding resources that allow us to do what we are doing

Therefore, if you are a happy ORCA user, please consider citing a few of the papers listed below in the main body of your paper

In addition to the list printed below, the program has created the file sp.bibtex that contains the list in bibtex format
You can import this file easily into all common literature databanks and citation aid programs


List of essential papers. We consider these as the minimum necessary citations

  1. Neese,F.
     Software update: the ORCA program system, version 5.0
     WIRES Comput. Molec. Sci., 2022 12(1)e1606
     doi.org/10.1002/wcms.1606

List of papers to cite with high priority. The work reported in these papers was absolutely
necessary for this run to complete.
Our perspective: the developers of density functionals and basis sets usually get cited in chemistry papers
Good! But without the algorithms to do something with them, the functionals or basis sets would not do anything.
Hence, in our opinion, the algorithm design and method developments papers are equally worthy of getting cited

  1. Neese,F.
     An improvement of the resolution of the identity approximation for the formation of the Coulomb matrix
     J. Comp. Chem., 2003 24(14)1740-1747
     doi.org/10.1002/jcc.10318
  2. Neese,F.
     The SHARK Integral Generation and Digestion System
     J. Comp. Chem., 2022  1-16
     doi.org/10.1002/jcc.26942
  3. Caldeweyher,E.; Bannwarth,C.; Grimme,S.
     Extension of the D3 dispersion coefficient model
     J. Chem. Phys., 2017 147 034112-XXXX
     doi.org/10.1063/1.4993215
  4. Caldeweyher,E.; Ehlert,S.; Hansen,A.; Neugebauer,H.; Spicher,S.; Bannwarth,C.; Grimme,S.
     A generally applicable atomic-charge dependent London dispersion correction
     J. Chem. Phys., 2019 150 154122-XXXX
     doi.org/10.1063/1.5090222
  5. Caldeweyher,E.; Mewes,J.; Ehlert,S.; Grimme,S.
     Extension and evaluation of the D4 London-dispersion model for periodic systems
     Phys. Chem. Chem. Phys., 2020 22(16)8499-8512
     doi.org/10.1039/D0CP00502A

List of suggested additional citations. These are papers that are important in the 'surrounding' of 
of this run, or papers that preceded the highly important papers. If you like your results we are grateful for a citation.

  1. Neese,F.
     The ORCA program system
     WIRES Comput. Molec. Sci., 2012 2(1)73-78
     doi.org/10.1002/wcms.81
  2. Neese,F.
     Software update: the ORCA program system, version 4.0
     WIRES Comput. Molec. Sci., 2018 8(1)1-6
     doi.org/10.1002/wcms.1327
  3. Neese,F.; Wennmohs,F.; Becker,U.; Riplinger,C.
     The ORCA quantum chemistry program package
     J. Chem. Phys., 2020 152 Art. No. L224108
     doi.org/10.1063/5.0004608

List of optional additional citations

  1. Neese,F.
     Approximate second-order SCF convergence for spin unrestricted wavefunctions
     Chem. Phys. Lett., 2000 325(1-3)93-98
     doi.org/10.1016/s0009-2614(00)00662-x

Timings for individual modules:

Sum of individual times          ...       11.304 sec (=   0.188 min)
Startup calculation              ...        0.930 sec (=   0.016 min)   8.2 %
SCF iterations                   ...       10.274 sec (=   0.171 min)  90.9 %
Property calculations            ...        0.100 sec (=   0.002 min)   0.9 %
                             ****ORCA TERMINATED NORMALLY****
TOTAL RUN TIME: 0 days 0 hours 0 minutes 12 seconds 1 msec
