
                                 *****************
                                 * O   R   C   A *
                                 *****************

                                            #,                                       
                                            ###                                      
                                            ####                                     
                                            #####                                    
                                            ######                                   
                                           ########,                                 
                                     ,,################,,,,,                         
                               ,,#################################,,                 
                          ,,##########################################,,             
                       ,#########################################, ''#####,          
                    ,#############################################,,   '####,        
                  ,##################################################,,,,####,       
                ,###########''''           ''''###############################       
              ,#####''   ,,,,##########,,,,          '''####'''          '####       
            ,##' ,,,,###########################,,,                        '##       
           ' ,,###''''                  '''############,,,                           
         ,,##''                                '''############,,,,        ,,,,,,###''
      ,#''                                            '''#######################'''  
     '                                                          ''''####''''         
             ,#######,   #######,   ,#######,      ##                                
            ,#'     '#,  ##    ##  ,#'     '#,    #''#        ,####,   ,####,        
            ##       ##  ##   ,#'  ##            #'  '#       #'       #'  '#        
            ##       ##  #######   ##           ,######,      #####,   #    #        
            '#,     ,#'  ##    ##  '#,     ,#' ,#      #,     #,   #   #,  ,#        
             '#######'   ##     ##  '#######'  #'      '#     '####' # '####'        



                #########################################################
                #                        -***-                          #
                #          Department of theory and spectroscopy        #
                #                                                       #
                #                      Frank Neese                      #
                #                                                       #
                #     Directorship, Architecture, Infrastructure        #
                #                    SHARK, DRIVERS                     #
                #        Core code/Algorithms in most modules           #
                #                                                       #
                #        Max Planck Institute fuer Kohlenforschung      #
                #                Kaiser Wilhelm Platz 1                 #
                #                 D-45470 Muelheim/Ruhr                 #
                #                      Germany                          #
                #                                                       #
                #                  All rights reserved                  #
                #                        -***-                          #
                #########################################################


                         Program Version 6.0.0  -   RELEASE  -


 With contributions from (in alphabetic order):
   Daniel Aravena         : Magnetic Suceptibility
   Michael Atanasov       : Ab Initio Ligand Field Theory (pilot matlab implementation)
   Alexander A. Auer      : GIAO ZORA, VPT2 properties, NMR spectrum
   Ute Becker             : All parallelization in ORCA, NUMFREQ, NUMCALC
   Giovanni Bistoni       : ED, misc. LED, open-shell LED, HFLD
   Martin Brehm           : Molecular dynamics
   Dmytro Bykov           : pre 5.0 version of the SCF Hessian
   Marcos Casanova-Páez   : Triplet and SCS-CIS(D). UHF-(DLPNO)-IP/EA/STEOM-CCSD. UHF-CVS-IP/STEOM-CCSD
   Vijay G. Chilkuri      : MRCI spin determinant printing, contributions to CSF-ICE
   Pauline Colinet        : FMM embedding
   Dipayan Datta          : RHF DLPNO-CCSD density
   Achintya Kumar Dutta   : EOM-CC, STEOM-CC
   Nicolas Foglia         : Exact transition moments, OPA infrastructure, MCD improvements
   Dmitry Ganyushin       : Spin-Orbit,Spin-Spin,Magnetic field MRCI
   Miquel Garcia          : C-PCM and meta-GGA Hessian, CCSD/C-PCM, Gaussian charge scheme
   Tiago L. C. Gouveia    : GS-ROHF, GS-ROCIS
   Yang Guo               : DLPNO-NEVPT2, F12-NEVPT2, CIM, IAO-localization
   Andreas Hansen         : Spin unrestricted coupled pair/coupled cluster methods
   Ingolf Harden          : AUTO-CI MPn and infrastructure 
   Benjamin Helmich-Paris : MC-RPA, TRAH-(SCF,CASSCF), AVAS, COSX integrals, SCF dyn. polar.
   Lee Huntington         : MR-EOM, pCC
   Robert Izsak           : Overlap fitted RIJCOSX, COSX-SCS-MP3, EOM
   Riya Kayal             : Wick's Theorem for AUTO-CI, AUTO-CI UHF-CCSDT
   Emily Kempfer          : AUTO-CI, RHF CISDT and CCSDT
   Christian Kollmar      : KDIIS, OOCD, Brueckner-CCSD(T), CCSD density, CASPT2, CASPT2-K, improved NEVPT2
   Axel Koslowski         : Symmetry handling
   Simone Kossmann        : Meta GGA functionals, TD-DFT gradient, OOMP2, (MP2 Hessian; deprecated post 5.0)
   Lucas Lang             : DCDCAS
   Marvin Lechner         : AUTO-CI (C++ implementation), FIC-MRCC
   Spencer Leger          : CASSCF response
   Dagmar Lenk            : GEPOL surface, SMD, ORCA-2-JSON
   Dimitrios Liakos       : Extrapolation schemes; Compound Job, initial MDCI parallelization
   Dimitrios Manganas     : Further ROCIS development; embedding schemes. LFT, Crystal Embedding
   Dimitrios Pantazis     : SARC Basis sets
   Anastasios Papadopoulos: AUTO-CI, single reference methods and gradients
   Taras Petrenko         : pre 6.0 DFT Hessian and TD-DFT gradient, (ASA, deprecated), ECA, 1-Electron XAS/XES, NRVS
   Peter Pinski           : DLPNO-MP2, DLPNO-MP2 Gradient
   Christoph Reimann      : Effective Core Potentials
   Marius Retegan         : Local ZFS, SOC
   Christoph Riplinger    : Optimizer, TS searches, QM/MM, DLPNO-CCSD(T), (RO)-DLPNO pert. Triples
   Michael Roemelt        : Original ROCIS implementation
   Masaaki Saitow         : Open-shell DLPNO-CCSD energy and density
   Barbara Sandhoefer     : DKH picture change effects
   Kantharuban Sivalingam : CASSCF convergence/infrastructure, NEVPT2 and variants, FIC-MRCI
   Bernardo de Souza      : ESD, SOC TD-DFT
   Georgi Stoychev        : AutoAux, RI-MP2 NMR, DLPNO-MP2 response, X2C
   Van Anh Tran           : RI-MP2 g-tensors
   Willem Van den Heuvel  : Paramagnetic NMR
   Zikuan Wang            : NOTCH, Electric field optimization 
   Frank Wennmohs         : Technical directorship and infrastructure
   Hang Xu                : AUTO-CI-Response properties 


 We gratefully acknowledge several colleagues who have allowed us to
 interface, adapt or use parts of their codes:
   Stefan Grimme, W. Hujo, H. Kruse, P. Pracht,  : VdW corrections, initial TS optimization,
                  C. Bannwarth, S. Ehlert,         DFT functionals, gCP, sTDA/sTD-DF
                  L. Wittmann, M. Mueller
   Ed Valeev, F. Pavosevic, A. Kumar             : LibInt (2-el integral package), F12 methods
   Garnet Chan, S. Sharma, J. Yang, R. Olivares  : DMRG
   Ulf Ekstrom                                   : XCFun DFT Library
   Mihaly Kallay                                 : mrcc  (arbitrary order and MRCC methods)
   Frank Weinhold                                : gennbo (NPA and NBO analysis)
   Simon Mueller                                 : openCOSMO-RS
   Christopher J. Cramer and Donald G. Truhlar   : smd solvation model
   Lars Goerigk                                  : TD-DFT with DH, B97 family of functionals
   V. Asgeirsson, H. Jonsson                     : NEB implementation
   FAccTs GmbH                                   : IRC, NEB, NEB-TS, DLPNO-Multilevel, CI-OPT
                                                   MM, QMMM, 2- and 3-layer-ONIOM, Crystal-QMMM,
                                                   LR-CPCM, SF, NACMEs, symmetry and pop. for TD-DFT,
                                                   nearIR, NL-DFT gradient (VV10), updates on ESD,
                                                   ML-optimized integration grids, MBIS, APM,
                                                   GOAT, DOCKER, SOLVATOR, interface openCOSMO-RS
   S Lehtola, MJT Oliveira, MAL Marques          : LibXC Library
   Liviu Ungur et al                             : ANISO software


 Your calculation uses the libint2 library for the computation of 2-el integrals
 For citations please refer to: http://libint.valeyev.net

 Your ORCA version has been built with support for libXC version: 6.2.2
 For citations please refer to: https://libxc.gitlab.io

 This ORCA versions uses:
   CBLAS   interface :  Fast vector & matrix operations
   LAPACKE interface :  Fast linear algebra routines
   SCALAPACK package :  Parallel linear algebra routines
   Shared memory     :  Shared parallel matrices
   BLAS/LAPACK       :  OpenBLAS 0.3.27  USE64BITINT DYNAMIC_ARCH NO_AFFINITY SkylakeX SINGLE_THREADED
        Core in use  :  SkylakeX
   Copyright (c) 2011-2014, The OpenBLAS Project


Your calculation utilizes the geometrical counterpoise correction gCP
Please cite in your paper:
H.Kruse, S. Grimme J.Chem.Phys., 136, (2012), 154101 
   

Your calculation utilizes the DFT-NL dispersion correction.
Cite in your paper:
Vydrov, O. A.; Van Voorhis, T. J. Chem. Phys. 2010, 133, 244103
Hujo, W.; Grimme, S. J. Chem. Theory Comput. 2011, 7, 3866 
   

================================================================================

----- Orbital basis set information -----
Your calculation utilizes the basis: def2-TZVP
   F. Weigend and R. Ahlrichs, Phys. Chem. Chem. Phys. 7, 3297 (2005).

----- AuxJ basis set information -----
Your calculation utilizes the auxiliary basis: def2/J
   F. Weigend, Phys. Chem. Chem. Phys. 8, 1057 (2006).

================================================================================
                                        WARNINGS
                       Please study these warnings very carefully!
================================================================================


================================================================================
                                       INPUT FILE
================================================================================
NAME = sp_gas.inp
|  1> ! wb97x-v def2-tzvp def2/J RIJCOSX DEFGRID2 scfconv7 GCP(DFT/TZ) printgap
|  2> %output
|  3>     printlevel normal
|  4> end
|  5> * xyz 0 1
|  6> C -0.9962540119538786 -1.816710394734866 5.313808972486523e-05
|  7> C 0.378395301771721 -1.6076920306150517 -0.0001777885167082629
|  8> C 0.8727212477623728 -0.2979520620621357 -0.00034911544060923914
|  9> C 0.003205653671778688 0.7976514293714138 6.23691321362484e-05
| 10> C -1.3664251199957624 0.5718159531182099 0.00012897043203070164
| 11> C -1.8702244367671048 -0.7351228708693965 0.00011729275850822039
| 12> O -2.191696352663172 1.6674124030924171 9.459283625911281e-05
| 13> C 2.325468569173877 -0.10147042420289552 -0.0015702228417734914
| 14> O 2.881575262131122 0.9910343571758932 0.000366012954878543
| 15> H -1.3971270884078908 -2.8248998404267924 0.00010350256405679612
| 16> H 1.0693430536072546 -2.4451064803780556 -0.00022176468826585647
| 17> H 0.39192151310399403 1.8106568377849146 -7.381787827387108e-05
| 18> H -2.945190986929293 -0.8940138893952081 0.00016826755033243898
| 19> H -3.1137568657800423 1.3738350394910426 0.00010547126288033526
| 20> H 2.9230909441594592 -1.033716139816655 0.0014416787223915629
| 21> *
| 22> 
| 23>                          ****END OF INPUT****
================================================================================

                       ****************************
                       * Single Point Calculation *
                       ****************************

---------------------------------
CARTESIAN COORDINATES (ANGSTROEM)
---------------------------------
  C     -0.996254   -1.816710    0.000053
  C      0.378395   -1.607692   -0.000178
  C      0.872721   -0.297952   -0.000349
  C      0.003206    0.797651    0.000062
  C     -1.366425    0.571816    0.000129
  C     -1.870224   -0.735123    0.000117
  O     -2.191696    1.667412    0.000095
  C      2.325469   -0.101470   -0.001570
  O      2.881575    0.991034    0.000366
  H     -1.397127   -2.824900    0.000104
  H      1.069343   -2.445106   -0.000222
  H      0.391922    1.810657   -0.000074
  H     -2.945191   -0.894014    0.000168
  H     -3.113757    1.373835    0.000105
  H      2.923091   -1.033716    0.001442

----------------------------
CARTESIAN COORDINATES (A.U.)
----------------------------
  NO LB      ZA    FRAG     MASS         X           Y           Z
   0 C     6.0000    0    12.011   -1.882647   -3.433085    0.000100
   1 C     6.0000    0    12.011    0.715063   -3.038098   -0.000336
   2 C     6.0000    0    12.011    1.649204   -0.563048   -0.000660
   3 C     6.0000    0    12.011    0.006058    1.507343    0.000118
   4 C     6.0000    0    12.011   -2.582169    1.080576    0.000244
   5 C     6.0000    0    12.011   -3.534212   -1.389181    0.000222
   6 O     8.0000    0    15.999   -4.141706    3.150953    0.000179
   7 C     6.0000    0    12.011    4.394499   -0.191751   -0.002967
   8 O     8.0000    0    15.999    5.445388    1.872784    0.000692
   9 H     1.0000    0     1.008   -2.640188   -5.338287    0.000196
  10 H     1.0000    0     1.008    2.020766   -4.620582   -0.000419
  11 H     1.0000    0     1.008    0.740624    3.421646   -0.000139
  12 H     1.0000    0     1.008   -5.565604   -1.689441    0.000318
  13 H     1.0000    0     1.008   -5.884148    2.596172    0.000199
  14 H     1.0000    0     1.008    5.523841   -1.953440    0.002724

--------------------------------
INTERNAL COORDINATES (ANGSTROEM)
--------------------------------
 C      0   0   0     0.000000000000     0.00000000     0.00000000
 C      1   0   0     1.390449375415     0.00000000     0.00000000
 C      2   1   0     1.399920338968   119.32338139     0.00000000
 C      3   2   1     1.398715320617   120.88538840     0.00000000
 C      4   3   2     1.388124678459   119.07381882   359.97552089
 C      1   2   3     1.390559556202   120.29401788     0.00000000
 O      5   4   3     1.371642879851   117.62619792   180.02081693
 C      3   2   1     1.465974523990   118.38007461   180.04348129
 O      8   3   2     1.225897671217   124.67926589   180.12525254
 H      1   2   3     1.084963217979   120.32932267   179.99481689
 H      2   1   3     1.085666504214   120.88019950   179.99971106
 H      4   3   2     1.085025343204   120.56997250   180.00005613
 H      6   1   2     1.086645959977   120.53171937   179.99208507
 H      7   5   4     0.967668981825   109.32823075   179.99733195
 H      8   3   2     1.107358861849   114.95950300   359.78807992

---------------------------
INTERNAL COORDINATES (A.U.)
---------------------------
 C      0   0   0     0.000000000000     0.00000000     0.00000000
 C      1   0   0     2.627568522617     0.00000000     0.00000000
 C      2   1   0     2.645466049957   119.32338139     0.00000000
 C      3   2   1     2.643188895285   120.88538840     0.00000000
 C      4   3   2     2.623175482025   119.07381882   359.97552089
 C      1   2   3     2.627776734129   120.29401788     0.00000000
 O      5   4   3     2.592029396462   117.62619792   180.02081693
 C      3   2   1     2.770290369646   118.38007461   180.04348129
 O      8   3   2     2.316610866813   124.67926589   180.12525254
 H      1   2   3     2.050283347358   120.32932267   179.99481689
 H      2   1   3     2.051612365736   120.88019950   179.99971106
 H      4   3   2     2.050400747020   120.56997250   180.00005613
 H      6   1   2     2.053463268888   120.53171937   179.99208507
 H      7   5   4     1.828629363940   109.32823075   179.99733195
 H      8   3   2     2.092604980865   114.95950300   359.78807992

---------------------
BASIS SET INFORMATION
---------------------
There are 3 groups of distinct atoms

 Group   1 Type C   : 11s6p2d1f contracted to 5s3p2d1f pattern {62111/411/11/1}
 Group   2 Type O   : 11s6p2d1f contracted to 5s3p2d1f pattern {62111/411/11/1}
 Group   3 Type H   : 5s1p contracted to 3s1p pattern {311/1}

Atom   0C    basis set group =>   1
Atom   1C    basis set group =>   1
Atom   2C    basis set group =>   1
Atom   3C    basis set group =>   1
Atom   4C    basis set group =>   1
Atom   5C    basis set group =>   1
Atom   6O    basis set group =>   2
Atom   7C    basis set group =>   1
Atom   8O    basis set group =>   2
Atom   9H    basis set group =>   3
Atom  10H    basis set group =>   3
Atom  11H    basis set group =>   3
Atom  12H    basis set group =>   3
Atom  13H    basis set group =>   3
Atom  14H    basis set group =>   3
---------------------------------
AUXILIARY/J BASIS SET INFORMATION
---------------------------------
There are 3 groups of distinct atoms

 Group   1 Type C   : 12s5p4d2f1g contracted to 6s4p3d1f1g pattern {711111/2111/211/2/1}
 Group   2 Type O   : 12s5p4d2f1g contracted to 6s4p3d1f1g pattern {711111/2111/211/2/1}
 Group   3 Type H   : 5s2p1d contracted to 3s1p1d pattern {311/2/1}

Atom   0C    basis set group =>   1
Atom   1C    basis set group =>   1
Atom   2C    basis set group =>   1
Atom   3C    basis set group =>   1
Atom   4C    basis set group =>   1
Atom   5C    basis set group =>   1
Atom   6O    basis set group =>   2
Atom   7C    basis set group =>   1
Atom   8O    basis set group =>   2
Atom   9H    basis set group =>   3
Atom  10H    basis set group =>   3
Atom  11H    basis set group =>   3
Atom  12H    basis set group =>   3
Atom  13H    basis set group =>   3
Atom  14H    basis set group =>   3

Checking for AutoStart:
The File: sp_gas.gbw exists
Trying to determine its content:
     ... Fine, the file contains calculation information
     ... Fine, the calculation information was read
     ... Fine, the file contains a basis set
     ... Fine, the basis set was read
     ... Fine, the file contains a geometry
     ... Fine, the geometry was read
     ... Fine, the file contains a set of orbitals
     ... Fine, the orbitals can be read
     => possible old guess file was deleted
     => GBW file was renamed to GES file
     => GES file is set as startup file
     => Guess is set to MORead
     ... now leaving AutoStart

------------------------------------------------------------------------------
                             ORCA STARTUP CALCULATIONS
                           -- RI-GTO INTEGRALS CHOSEN --
------------------------------------------------------------------------------
------------------------------------------------------------------------------
                   ___                                                        
                  /   \      - P O W E R E D   B Y -                         
                 /     \                                                     
                 |  |  |   _    _      __       _____    __    __             
                 |  |  |  | |  | |    /  \     |  _  \  |  |  /  |          
                  \  \/   | |  | |   /    \    | | | |  |  | /  /          
                 / \  \   | |__| |  /  /\  \   | |_| |  |  |/  /          
                |  |  |   |  __  | /  /__\  \  |    /   |      \           
                |  |  |   | |  | | |   __   |  |    \   |  |\   \          
                \     /   | |  | | |  |  |  |  | |\  \  |  | \   \       
                 \___/    |_|  |_| |__|  |__|  |_| \__\ |__|  \__/        
                                                                              
                      - O R C A' S   B I G   F R I E N D -                    
                                      &                                       
                       - I N T E G R A L  F E E D E R -                       
                                                                              
 v1 FN, 2020, v2 2021, v3 2022-2024                                           
------------------------------------------------------------------------------


----------------------
SHARK INTEGRAL PACKAGE
----------------------

Number of atoms                             ...     15
Number of basis functions                   ...    315
Number of shells                            ...    123
Maximum angular momentum                    ...      3
Integral batch strategy                     ... SHARK/LIBINT Hybrid
RI-J (if used) integral strategy            ... SPLIT-RIJ (Revised 2003 algorithm where possible)
Printlevel                                  ...      1
Contraction scheme used                     ... SEGMENTED contraction
Prescreening option                         ... SCHWARTZ
   Thresh                                   ... 3.000e-11
   Tcut                                     ... 1.000e-12
   Tpresel                                  ... 1.000e-12 
Coulomb Range Separation                    ... NOT USED
Exchange Range Separation                   ... Long Range
   Mu parameter                             ... 3.000e-01
   Scaling (regular/separated)              ... 1.670e-01 8.330e-01
Multipole approximations                    ... NOT USED
Finite Nucleus Model                        ... NOT USED
CABS basis                                  ... NOT available
Auxiliary Coulomb fitting basis             ... AVAILABLE
   # of basis functions in Aux-J            ...    507
   # of shells in Aux-J                     ...    165
   Maximum angular momentum in Aux-J        ...      4
Auxiliary J/K fitting basis                 ... NOT available
Auxiliary Correlation fitting basis         ... NOT available
Auxiliary 'external' fitting basis          ... NOT available

Checking pre-screening integrals            ... done (  0.0 sec) Dimension = 123
Check shell pair data                       ... done (  0.0 sec)
Shell pair information
Shell pair cut-off parameter TPreSel        ...   1.0e-12
Total number of shell pairs                 ...      7626
Shell pairs after pre-screening             ...      6865
Total number of primitive shell pairs       ...     23652
Primitive shell pairs kept                  ...     15888
          la=0 lb=0:   1721 shell pairs
          la=1 lb=0:   1899 shell pairs
          la=1 lb=1:    535 shell pairs
          la=2 lb=0:   1027 shell pairs
          la=2 lb=1:    559 shell pairs
          la=2 lb=2:    158 shell pairs
          la=3 lb=0:    497 shell pairs
          la=3 lb=1:    279 shell pairs
          la=3 lb=2:    149 shell pairs
          la=3 lb=3:     41 shell pairs

Calculating one electron integrals          ... done (  0.0 sec)
Calculating RI/J V-Matrix + Cholesky decomp.... done (  0.1 sec)
Calculating Nuclear repulsion               ... done (  0.0 sec) ENN=    400.264389921061 Eh

Diagonalization of the overlap matrix:
Smallest eigenvalue                        ... 9.334e-06
Time for diagonalization                   ...    0.009 sec
Threshold for overlap eigenvalues          ... 1.000e-07
Number of eigenvalues below threshold      ... 0
Time for construction of square roots      ...    0.023 sec
Total time needed                          ...    0.042 sec

-------------------
DFT GRID GENERATION
-------------------

General Integration Accuracy     IntAcc      ... 4.388
Radial Grid Type                 RadialGrid  ... OptM3 with GC (2021)
Angular Grid (max. ang.)         AngularGrid ... 4 (Lebedev-302)
Angular grid pruning method      GridPruning ... 4 (adaptive)
Weight generation scheme         WeightScheme... mBecke (2022)
Basis function cutoff            BFCut       ... 1.0000e-11
Integration weight cutoff        WCut        ... 1.0000e-14
Partially contracted basis set               ... off
Rotationally invariant grid construction     ... off
Angular grids for H and He will be reduced by one unit

Total number of grid points                  ...    73599
Total number of batches                      ...     1158
Average number of points per batch           ...       63
Average number of grid points per atom       ...     4907

--------------------
COSX GRID GENERATION
--------------------

GRIDX 1
-------
General Integration Accuracy     IntAcc      ... 3.816
Radial Grid Type                 RadialGrid  ... OptM3 with GC (2021)
Angular Grid (max. ang.)         AngularGrid ... 1 (Lebedev-50)
Angular grid pruning method      GridPruning ... 4 (adaptive)
Weight generation scheme         WeightScheme... mBecke (2022)
Basis function cutoff            BFCut       ... 1.0000e-11
Integration weight cutoff        WCut        ... 1.0000e-14
Partially contracted basis set               ... on
Rotationally invariant grid construction     ... off
Angular grids for H and He will be reduced by one unit

Total number of grid points                  ...     9403
Total number of batches                      ...       81
Average number of points per batch           ...      116
Average number of grid points per atom       ...      627
UseSFitting                                  ... on

GRIDX 2
-------
General Integration Accuracy     IntAcc      ... 4.020
Radial Grid Type                 RadialGrid  ... OptM3 with GC (2021)
Angular Grid (max. ang.)         AngularGrid ... 2 (Lebedev-110)
Angular grid pruning method      GridPruning ... 4 (adaptive)
Weight generation scheme         WeightScheme... mBecke (2022)
Basis function cutoff            BFCut       ... 1.0000e-11
Integration weight cutoff        WCut        ... 1.0000e-14
Partially contracted basis set               ... on
Rotationally invariant grid construction     ... off
Angular grids for H and He will be reduced by one unit

Total number of grid points                  ...    20848
Total number of batches                      ...      170
Average number of points per batch           ...      122
Average number of grid points per atom       ...     1390
UseSFitting                                  ... on

GRIDX 3
-------
General Integration Accuracy     IntAcc      ... 4.338
Radial Grid Type                 RadialGrid  ... OptM3 with GC (2021)
Angular Grid (max. ang.)         AngularGrid ... 3 (Lebedev-194)
Angular grid pruning method      GridPruning ... 4 (adaptive)
Weight generation scheme         WeightScheme... mBecke (2022)
Basis function cutoff            BFCut       ... 1.0000e-11
Integration weight cutoff        WCut        ... 1.0000e-14
Partially contracted basis set               ... on
Rotationally invariant grid construction     ... off
Angular grids for H and He will be reduced by one unit

Total number of grid points                  ...    45909
Total number of batches                      ...      367
Average number of points per batch           ...      125
Average number of grid points per atom       ...     3061
UseSFitting                                  ... on
Initializing property integral containers    ... done (  0.0 sec)

SHARK setup successfully completed in   2.2 seconds

Maximum memory used throughout the entire STARTUP-calculation: 45.4 MB
-------------------------------------------------------------------------------
                                 ORCA GUESS
                   Start orbitals & Density for SCF / CASSCF
-------------------------------------------------------------------------------

------------
SCF SETTINGS
------------
Hamiltonian:
 Density Functional     Method          .... DFT(GTOs)
 Exchange Functional    Exchange        .... WB97X-V
 Correlation Functional Correlation     .... WB97X-V
 Gradients option       PostSCFGGA      .... off
 Hybrid DFT is turned on
   Fraction HF Exchange ScalHFX         ....  0.167000
   Scaling of DF-GGA-X  ScalDFX         ....  0.000000
   Scaling of DF-GGA-C  ScalDFC         ....  1.000000
   Scaling of DF-LDA-C  ScalLDAC        ....  1.000000
   Perturbative correction              ....  0.000000
 Long-range corrected/Screened/Range-Separated Hybrid DFT is turned on
   Amount of maximum screened exact exchange              ....  0.833000
   Range separation parameter mu (erf(mu*r12)/r12)        ....  0.300000
   NL short-range parameter             ....  6.000000
   NL long-range parameter              ....  0.010000
 RI-approximation to the Coulomb term is turned on
   Number of AuxJ basis functions       .... 507
   RIJ-COSX (HFX calculated with COS-X)).... on


General Settings:
 Integral files         IntName         .... sp_gas
 Hartree-Fock type      HFTyp           .... RHF
 Total Charge           Charge          ....    0
 Multiplicity           Mult            ....    1
 Number of Electrons    NEL             ....   64
 Basis Dimension        Dim             ....  315
 Nuclear Repulsion      ENuc            ....    400.2643899211 Eh

Convergence Acceleration:
 AO-DIIS                CNVDIIS         .... on
   Start iteration      DIISMaxIt       ....    12
   Startup error        DIISStart       ....  0.200000
   # of expansion vecs  DIISMaxEq       ....     5
   Bias factor          DIISBfac        ....   1.050
   Max. coefficient     DIISMaxC        ....  10.000
 MO-DIIS                CNVKDIIS        .... off
 Trust-Rad. Augm. Hess. CNVTRAH         .... auto
   Auto Start mean grad. ratio tolernc. ....  1.125000
   Auto Start start iteration           ....     1
   Auto Start num. interpolation iter.  ....    10
   Max. Number of Micro iterations      ....    24
   Max. Number of Macro iterations      .... Maxiter - #DIIS iter
   Number of Davidson start vectors     ....     2
   Converg. threshold    (grad. norm)   ....   1.000e-04
   Grad. Scal. Fac. for Micro threshold ....   0.100
   Minimum threshold for Micro iter.    ....   1.000e-02
   NR start threshold (gradient norm)   ....   1.000e-04
   Initial trust radius                 ....   0.400
   Minimum AH scaling param. (alpha)    ....   1.000
   Maximum AH scaling param. (alpha)    .... 1000.000
   Quad. conv. algorithm                .... NR
   White noise on init. David. guess    .... on
   Maximum white noise                  ....   0.010
   Pseudo random numbers                .... off
   Inactive MOs                         .... canonical
   Orbital update algorithm             .... Taylor
   Preconditioner                       .... Diag
   Full preconditioner red. dimension   ....   250
 SOSCF                  CNVSOSCF        .... on
   Start iteration      SOSCFMaxIt      ....   150
   Startup grad/error   SOSCFStart      ....  0.003300
   Hessian update       SOSCFHessUp     .... L-BFGS
 Level Shifting         CNVShift        .... on
   Level shift para.    LevelShift      ....    0.2500
   Turn off err/grad.   ShiftErr        ....    0.0010
 Zerner damping         CNVZerner       .... off
 Static damping         CNVDamp         .... on
   Fraction old density DampFac         ....    0.7000
   Max. Damping (<1)    DampMax         ....    0.9800
   Min. Damping (>=0)   DampMin         ....    0.0000
   Turn off err/grad.   DampErr         ....    0.1000

SCF Procedure:
 Maximum # iterations   MaxIter         ....   125
 SCF integral mode      SCFMode         .... Direct
   Integral package                     .... SHARK and LIBINT hybrid scheme
 Reset frequency        DirectResetFreq ....    20
 Integral Threshold     Thresh          ....  3.000e-11 Eh
 Primitive CutOff       TCut            ....  1.000e-12 Eh

Convergence Tolerance:
 Convergence Check Mode ConvCheckMode   .... Total+1el-Energy
 Convergence forced     ConvForced      .... 0
 Energy Change          TolE            ....  1.000e-07 Eh
 1-El. energy change                    ....  1.000e-04 Eh
 Orbital Gradient       TolG            ....  1.000e-04
 Orbital Rotation angle TolX            ....  1.000e-04
 DIIS Error             TolErr          ....  1.000e-07

---------------------
INITIAL GUESS: MOREAD
---------------------
Guess MOs are being read from file: sp_gas.ges
Input Geometry matches current geometry (good)
Atom 0: N(Shells)= 11 and 9 - projection required
Input basis set needs projection
NBasis(read)= 211
NBasis(calc)= 315
Basis set overlap was calculated
Using GuessMode=FMatrix for the initial guess
C*T matrix was formed
Effective Fockian was calculated
Effective Fockian was diagonalized
Initial density was built
                      ------------------
                      INITIAL GUESS DONE (   0.1 sec)
                      ------------------
             **** ENERGY FILE WAS UPDATED (sp_gas.en.tmp) ****
Finished Guess after   0.3 sec
Maximum memory used throughout the entire GUESS-calculation: 28.9 MB

-------------------------------------------------------------------------------------------
                                      ORCA LEAN-SCF
                              memory conserving SCF solver
-------------------------------------------------------------------------------------------

----------------------------------------D-I-I-S--------------------------------------------
Iteration    Energy (Eh)           Delta-E    RMSDP     MaxDP     DIISErr   Damp  Time(sec)
-------------------------------------------------------------------------------------------
               ***  Starting incremental Fock matrix formation  ***
    1    -421.0443312180851194     0.00e+00  2.19e-03  9.04e-02  7.00e-02  0.700  16.3
    2    -421.0522712984246141    -7.94e-03  1.79e-03  6.62e-02  5.06e-02  0.700   7.9
                               ***Turning on AO-DIIS***
    3    -421.0581032930392098    -5.83e-03  1.38e-03  5.10e-02  3.61e-02  0.700   8.0
    4    -421.0623028166550625    -4.20e-03  3.36e-03  1.22e-01  2.54e-02  0.000   7.8
                              *** Initializing SOSCF ***
---------------------------------------S-O-S-C-F--------------------------------------
Iteration    Energy (Eh)           Delta-E    RMSDP     MaxDP     MaxGrad    Time(sec)
--------------------------------------------------------------------------------------
    5    -421.0731286990250624    -1.08e-02  1.41e-04  4.78e-03  2.62e-03     8.0
               *** Restarting incremental Fock matrix formation ***
    6    -421.0732150463867924    -8.63e-05  1.25e-04  1.29e-02  1.17e-03    16.5
    7    -421.0732517807199997    -3.67e-05  1.02e-04  9.31e-03  6.43e-04    13.3
    8    -421.0732613881718294    -9.61e-06  2.26e-05  6.96e-04  3.89e-04    13.2
    9    -421.0732649573236017    -3.57e-06  1.02e-05  4.84e-04  1.05e-04    12.4
   10    -421.0732650682388680    -1.11e-07  4.91e-06  4.35e-04  1.01e-04    11.7
   11    -421.0732652472930226    -1.79e-07  2.07e-06  7.87e-05  1.65e-05    11.1
                  *** Gradient check signals convergence ***

               *****************************************************
               *                     SUCCESS                       *
               *           SCF CONVERGED AFTER  11 CYCLES          *
               *****************************************************


------------------
NL GRID GENERATION
------------------

General Integration Accuracy     IntAcc      ... 4.004
Radial Grid Type                 RadialGrid  ... OptM3 with GC (2021)
Angular Grid (max. ang.)         AngularGrid ... 2 (Lebedev-110)
Angular grid pruning method      GridPruning ... 4 (adaptive)
Weight generation scheme         WeightScheme... mBecke (2022)
Basis function cutoff            BFCut       ... 1.0000e-10
Integration weight cutoff        WCut        ... 1.0000e-14
Partially contracted basis set               ... off
Rotationally invariant grid construction     ... off
Angular grids for H and He will be reduced by one unit

Total number of grid points                  ...    23906
Total number of batches                      ...      383
Average number of points per batch           ...       62
Average number of grid points per atom       ...     1594
Final grid set up in    0.2 sec

-------------------------------------------------------------------------------
                    post-SCF DFT-NL dispersion correction                      
-------------------------------------------------------------------------------

SCF Energy:     -421.073265247 
NL    Energy:      0.246524609 
SC+NL Energy:   -420.826740639 
NL done in  :              2.2 sec
-------------------------------------------------------------------------------
Recomputing exchange energy using gridx3       ... done (   29.771 sec)
Old exchange energy                            :    -17.531959508 Eh
New exchange energy                            :    -17.531970862 Eh
Exchange energy change after final integration :     -0.000011354 Eh
Total energy after final integration           :   -420.826751993 Eh
             **** ENERGY FILE WAS UPDATED (sp_gas.en.tmp) ****

----------------
TOTAL SCF ENERGY
----------------

Total Energy       :       -420.82675199264133 Eh          -11451.27809 eV

Components:
Nuclear Repulsion  :        400.26438992106119 Eh           10891.74778 eV
Electronic Energy  :       -821.33765516835422 Eh          -22349.73384 eV
One Electron Energy:      -1364.06751561256169 Eh          -37118.16415 eV
Two Electron Energy:        542.72986044420747 Eh           14768.43032 eV

Virial components:
Potential Energy   :       -840.06805385202324 Eh          -22859.41390 eV
Kinetic Energy     :        419.24130185938185 Eh           11408.13580 eV
Virial Ratio       :          2.00378171264670

DFT components:
N(Alpha)           :       31.999952861335 electrons
N(Beta)            :       31.999952861335 electrons
N(Total)           :       63.999905722669 electrons
E(X)               :      -37.336175653252 Eh       
E(C)               :       -2.693123878588 Eh       
NL Energy, E(C,NL) :        0.246524608713 Eh       
E(XC)              :      -39.782774923128 Eh       

---------------
SCF CONVERGENCE
---------------

  Last Energy change         ...    1.7905e-07  Tolerance :   1.0000e-07
  Last MAX-Density change    ...    7.8688e-05  Tolerance :   1.0000e-05
  Last RMS-Density change    ...    2.0687e-06  Tolerance :   1.0000e-06
  Last DIIS Error            ...    2.6155e-03  Tolerance :   1.0000e-07
  Last Orbital Gradient      ...    1.6451e-05  Tolerance :   1.0000e-04
  Last Orbital Rotation      ...    5.3542e-05  Tolerance :   1.0000e-04


----------------
ORBITAL ENERGIES
----------------

  NO   OCC          E(Eh)            E(eV) 
   0   2.0000     -21.716994      -590.9494 
   1   2.0000     -21.671496      -589.7114 
   2   2.0000     -12.140996      -330.3733 
   3   2.0000     -12.131638      -330.1187 
   4   2.0000     -12.076213      -328.6105 
   5   2.0000     -12.074695      -328.5691 
   6   2.0000     -12.074190      -328.5554 
   7   2.0000     -12.069422      -328.4257 
   8   2.0000     -12.065003      -328.3054 
   9   2.0000      -1.731996       -47.1300 
  10   2.0000      -1.710381       -46.5418 
  11   2.0000      -1.407829       -38.3090 
  12   2.0000      -1.314522       -35.7700 
  13   2.0000      -1.301444       -35.4141 
  14   2.0000      -1.192588       -32.4520 
  15   2.0000      -1.166141       -31.7323 
  16   2.0000      -1.122565       -30.5465 
  17   2.0000      -1.075146       -29.2562 
  18   2.0000      -1.026286       -27.9267 
  19   2.0000      -1.008226       -27.4352 
  20   2.0000      -0.981672       -26.7127 
  21   2.0000      -0.966492       -26.2996 
  22   2.0000      -0.962125       -26.1807 
  23   2.0000      -0.950451       -25.8631 
  24   2.0000      -0.904005       -24.5992 
  25   2.0000      -0.901232       -24.5238 
  26   2.0000      -0.863662       -23.5014 
  27   2.0000      -0.840171       -22.8622 
  28   2.0000      -0.802608       -21.8401 
  29   2.0000      -0.789631       -21.4870 
  30   2.0000      -0.670816       -18.2538 
  31   2.0000      -0.655750       -17.8439 
  32   0.0000      -0.353563        -9.6209 
  33   0.0000      -0.259737        -7.0678 
  34   0.0000      -0.220164        -5.9910 
  35   0.0000      -0.158257        -4.3064 
  36   0.0000      -0.080677        -2.1953 
  37   0.0000      -0.078536        -2.1371 
  38   0.0000      -0.050340        -1.3698 
  39   0.0000      -0.027902        -0.7592 
  40   0.0000      -0.011699        -0.3184 
  41   0.0000      -0.003637        -0.0990 
  42   0.0000       0.016511         0.4493 
*Only the first 10 virtual orbitals were printed.

                    ********************************
                    * MULLIKEN POPULATION ANALYSIS *
                    ********************************

-----------------------
MULLIKEN ATOMIC CHARGES
-----------------------
   0 C :   -0.115984
   1 C :   -0.213672
   2 C :    0.195836
   3 C :   -0.300561
   4 C :    0.307243
   5 C :   -0.199594
   6 O :   -0.379832
   7 C :    0.088543
   8 O :   -0.299877
   9 H :    0.128602
  10 H :    0.126800
  11 H :    0.154155
  12 H :    0.116750
  13 H :    0.314373
  14 H :    0.077218
Sum of atomic charges:    0.0000000

--------------------------------
MULLIKEN REDUCED ORBITAL CHARGES
--------------------------------
  0 C s       :     3.158405  s :     3.158405
      pz      :     0.948201  p :     2.862209
      px      :     0.946482
      py      :     0.967527
      dz2     :     0.004004  d :     0.087734
      dxz     :     0.022925
      dyz     :     0.008777
      dx2y2   :     0.026593
      dxy     :     0.025435
      f0      :     0.001668  f :     0.007636
      f+1     :     0.000621
      f-1     :     0.000694
      f+2     :     0.000683
      f-2     :     0.000768
      f+3     :     0.001302
      f-3     :     0.001901

  1 C s       :     3.200285  s :     3.200285
      pz      :     0.990903  p :     2.917114
      px      :     0.978878
      py      :     0.947333
      dz2     :     0.004485  d :     0.088728
      dxz     :     0.016453
      dyz     :     0.012018
      dx2y2   :     0.021941
      dxy     :     0.033831
      f0      :     0.001576  f :     0.007545
      f+1     :     0.000652
      f-1     :     0.000637
      f+2     :     0.001045
      f-2     :     0.000249
      f+3     :     0.001318
      f-3     :     0.002068

  2 C s       :     3.088237  s :     3.088237
      pz      :     0.950187  p :     2.588922
      px      :     0.781906
      py      :     0.856828
      dz2     :     0.006559  d :     0.116907
      dxz     :     0.013124
      dyz     :     0.027561
      dx2y2   :     0.041343
      dxy     :     0.028319
      f0      :     0.001866  f :     0.010099
      f+1     :     0.000835
      f-1     :     0.000676
      f+2     :     0.000481
      f-2     :     0.001174
      f+3     :     0.001939
      f-3     :     0.003128

  3 C s       :     3.295027  s :     3.295027
      pz      :     0.968762  p :     2.916436
      px      :     0.948010
      py      :     0.999664
      dz2     :     0.003026  d :     0.081468
      dxz     :     0.019937
      dyz     :     0.007711
      dx2y2   :     0.026424
      dxy     :     0.024370
      f0      :     0.001608  f :     0.007630
      f+1     :     0.000701
      f-1     :     0.000697
      f+2     :     0.000608
      f-2     :     0.000719
      f+3     :     0.001259
      f-3     :     0.002039

  4 C s       :     2.992826  s :     2.992826
      pz      :     0.903910  p :     2.511250
      px      :     0.825509
      py      :     0.781831
      dz2     :     0.005602  d :     0.173121
      dxz     :     0.035612
      dyz     :     0.035885
      dx2y2   :     0.060816
      dxy     :     0.035207
      f0      :     0.002569  f :     0.015561
      f+1     :     0.000922
      f-1     :     0.001086
      f+2     :     0.001227
      f-2     :     0.002417
      f+3     :     0.002924
      f-3     :     0.004416

  5 C s       :     3.205575  s :     3.205575
      pz      :     1.021824  p :     2.910186
      px      :     0.992979
      py      :     0.895383
      dz2     :     0.006536  d :     0.076622
      dxz     :     0.005017
      dyz     :     0.020685
      dx2y2   :     0.024250
      dxy     :     0.020133
      f0      :     0.001614  f :     0.007211
      f+1     :     0.000677
      f-1     :     0.000624
      f+2     :     0.000233
      f-2     :     0.000998
      f+3     :     0.001319
      f-3     :     0.001747

  6 O s       :     3.746939  s :     3.746939
      pz      :     1.835045  p :     4.599041
      px      :     1.240482
      py      :     1.523514
      dz2     :     0.004488  d :     0.032143
      dxz     :     0.001611
      dyz     :     0.005120
      dx2y2   :     0.009905
      dxy     :     0.011018
      f0      :     0.000233  f :     0.001708
      f+1     :     0.000445
      f-1     :     0.000236
      f+2     :     0.000023
      f-2     :     0.000108
      f+3     :     0.000269
      f-3     :     0.000394

  7 C s       :     3.268687  s :     3.268687
      pz      :     0.726608  p :     2.464676
      px      :     0.872587
      py      :     0.865481
      dz2     :     0.005896  d :     0.163550
      dxz     :     0.023781
      dyz     :     0.025929
      dx2y2   :     0.051647
      dxy     :     0.056297
      f0      :     0.002058  f :     0.014545
      f+1     :     0.000760
      f-1     :     0.000966
      f+2     :     0.001317
      f-2     :     0.001288
      f+3     :     0.002761
      f-3     :     0.005396

  8 O s       :     3.810438  s :     3.810438
      pz      :     1.296636  p :     4.456010
      px      :     1.727320
      py      :     1.432054
      dz2     :     0.002697  d :     0.031642
      dxz     :     0.002595
      dyz     :     0.009347
      dx2y2   :     0.008054
      dxy     :     0.008949
      f0      :     0.000151  f :     0.001787
      f+1     :     0.000047
      f-1     :     0.000115
      f+2     :     0.000161
      f-2     :     0.000314
      f+3     :     0.000464
      f-3     :     0.000536

  9 H s       :     0.849279  s :     0.849279
      pz      :     0.004429  p :     0.022118
      px      :     0.004965
      py      :     0.012725

 10 H s       :     0.850942  s :     0.850942
      pz      :     0.004662  p :     0.022258
      px      :     0.007782
      py      :     0.009813

 11 H s       :     0.823220  s :     0.823220
      pz      :     0.004327  p :     0.022625
      px      :     0.005134
      py      :     0.013164

 12 H s       :     0.861108  s :     0.861108
      pz      :     0.004810  p :     0.022142
      px      :     0.013685
      py      :     0.003647

 13 H s       :     0.639228  s :     0.639228
      pz      :     0.016035  p :     0.046399
      px      :     0.019623
      py      :     0.010741

 14 H s       :     0.903042  s :     0.903042
      pz      :     0.002417  p :     0.019740
      px      :     0.006485
      py      :     0.010839


------------------------
MULLIKEN OVERLAP CHARGES
------------------------
B(  0-C ,  1-C ) :   0.8355 B(  0-C ,  4-C ) :   0.0644 B(  0-C ,  5-C ) :   0.6246 
B(  0-C ,  9-H ) :   0.8271 B(  0-C , 10-H ) :  -0.0748 B(  1-C ,  2-C ) :   0.9027 
B(  1-C ,  3-C ) :  -0.1800 B(  1-C ,  4-C ) :  -0.1215 B(  1-C ,  5-C ) :   0.1245 
B(  1-C ,  7-C ) :  -0.0704 B(  1-C ,  9-H ) :  -0.0720 B(  1-C , 10-H ) :   0.8481 
B(  2-C ,  3-C ) :   0.4639 B(  2-C ,  4-C ) :  -0.0823 B(  2-C ,  5-C ) :  -0.1468 
B(  2-C ,  8-O ) :  -0.3829 B(  2-C , 10-H ) :  -0.1152 B(  2-C , 11-H ) :  -0.1085 
B(  2-C , 14-H ) :  -0.4664 B(  3-C ,  4-C ) :   0.9848 B(  3-C ,  5-C ) :  -0.1389 
B(  3-C ,  6-O ) :  -0.1176 B(  3-C ,  8-O ) :   0.0760 B(  3-C , 11-H ) :   0.8475 
B(  3-C , 14-H ) :   0.0693 B(  4-C ,  5-C ) :   0.8146 B(  4-C ,  6-O ) :   0.7929 
B(  4-C , 11-H ) :  -0.0953 B(  4-C , 12-H ) :  -0.1084 B(  4-C , 13-H ) :  -0.0757 
B(  5-C ,  6-O ) :  -0.1830 B(  5-C ,  9-H ) :  -0.0638 B(  5-C , 12-H ) :   0.8325 
B(  6-O , 13-H ) :   0.6090 B(  7-C ,  8-O ) :   1.3974 B(  7-C , 14-H ) :   1.0164 
B(  8-O , 14-H ) :  -0.1147 


                     *******************************
                     * LOEWDIN POPULATION ANALYSIS *
                     *******************************

----------------------
LOEWDIN ATOMIC CHARGES
----------------------
   0 C :   -0.131308
   1 C :   -0.110826
   2 C :   -0.159961
   3 C :   -0.052902
   4 C :   -0.257424
   5 C :   -0.124470
   6 O :    0.075690
   7 C :   -0.235078
   8 O :    0.094952
   9 H :    0.145731
  10 H :    0.146737
  11 H :    0.161185
  12 H :    0.142637
  13 H :    0.186935
  14 H :    0.118102

-------------------------------
LOEWDIN REDUCED ORBITAL CHARGES
-------------------------------
  0 C s       :     2.761916  s :     2.761916
      pz      :     0.875008  p :     2.935074
      px      :     1.059921
      py      :     1.000145
      dz2     :     0.024766  d :     0.390817
      dxz     :     0.075600
      dyz     :     0.023218
      dx2y2   :     0.133330
      dxy     :     0.133903
      f0      :     0.003152  f :     0.043501
      f+1     :     0.004184
      f-1     :     0.003314
      f+2     :     0.004399
      f-2     :     0.005099
      f+3     :     0.009419
      f-3     :     0.013935

  1 C s       :     2.754833  s :     2.754833
      pz      :     0.893295  p :     2.934146
      px      :     1.033324
      py      :     1.007527
      dz2     :     0.025114  d :     0.378938
      dxz     :     0.051900
      dyz     :     0.037495
      dx2y2   :     0.102806
      dxy     :     0.161623
      f0      :     0.003066  f :     0.042910
      f+1     :     0.003803
      f-1     :     0.003564
      f+2     :     0.007338
      f-2     :     0.001569
      f+3     :     0.009375
      f-3     :     0.014195

  2 C s       :     2.709559  s :     2.709559
      pz      :     0.850816  p :     2.890019
      px      :     0.998909
      py      :     1.040294
      dz2     :     0.035348  d :     0.503778
      dxz     :     0.043885
      dyz     :     0.089688
      dx2y2   :     0.186863
      dxy     :     0.147994
      f0      :     0.004004  f :     0.056605
      f+1     :     0.004268
      f-1     :     0.004305
      f+2     :     0.003939
      f-2     :     0.007985
      f+3     :     0.012257
      f-3     :     0.019848

  3 C s       :     2.752902  s :     2.752902
      pz      :     0.878359  p :     2.904828
      px      :     1.021370
      py      :     1.005100
      dz2     :     0.025045  d :     0.353137
      dxz     :     0.061481
      dyz     :     0.020757
      dx2y2   :     0.130322
      dxy     :     0.115532
      f0      :     0.003214  f :     0.042034
      f+1     :     0.004220
      f-1     :     0.003236
      f+2     :     0.004079
      f-2     :     0.004850
      f+3     :     0.009260
      f-3     :     0.013176

  4 C s       :     2.718343  s :     2.718343
      pz      :     0.841981  p :     2.765682
      px      :     0.986936
      py      :     0.936765
      dz2     :     0.044086  d :     0.677817
      dxz     :     0.101897
      dyz     :     0.116375
      dx2y2   :     0.199973
      dxy     :     0.215486
      f0      :     0.006918  f :     0.095581
      f+1     :     0.005989
      f-1     :     0.007460
      f+2     :     0.007955
      f-2     :     0.016752
      f+3     :     0.021044
      f-3     :     0.029463

  5 C s       :     2.762221  s :     2.762221
      pz      :     0.916587  p :     2.952938
      px      :     0.990157
      py      :     1.046194
      dz2     :     0.026483  d :     0.367321
      dxz     :     0.013112
      dyz     :     0.072375
      dx2y2   :     0.155345
      dxy     :     0.100006
      f0      :     0.003110  f :     0.041990
      f+1     :     0.003266
      f-1     :     0.004431
      f+2     :     0.001882
      f-2     :     0.007072
      f+3     :     0.009385
      f-3     :     0.012844

  6 O s       :     3.327627  s :     3.327627
      pz      :     1.721227  p :     4.521797
      px      :     1.256570
      py      :     1.544000
      dz2     :     0.008382  d :     0.070178
      dxz     :     0.005010
      dyz     :     0.008791
      dx2y2   :     0.026856
      dxy     :     0.021139
      f0      :     0.000386  f :     0.004708
      f+1     :     0.000766
      f-1     :     0.000371
      f+2     :     0.000050
      f-2     :     0.000511
      f+3     :     0.000833
      f-3     :     0.001792

  7 C s       :     2.817005  s :     2.817005
      pz      :     0.699188  p :     2.691456
      px      :     1.010702
      py      :     0.981566
      dz2     :     0.040292  d :     0.636282
      dxz     :     0.070131
      dyz     :     0.061157
      dx2y2   :     0.234054
      dxy     :     0.230648
      f0      :     0.006485  f :     0.090335
      f+1     :     0.004783
      f-1     :     0.007887
      f+2     :     0.009166
      f-2     :     0.007384
      f+3     :     0.016483
      f-3     :     0.038148

  8 O s       :     3.418586  s :     3.418586
      pz      :     1.232675  p :     4.412949
      px      :     1.634303
      py      :     1.545971
      dz2     :     0.007696  d :     0.067821
      dxz     :     0.002905
      dyz     :     0.010388
      dx2y2   :     0.023229
      dxy     :     0.023602
      f0      :     0.000339  f :     0.005692
      f+1     :     0.000278
      f-1     :     0.000695
      f+2     :     0.000227
      f-2     :     0.000468
      f+3     :     0.001658
      f-3     :     0.002028

  9 H s       :     0.796189  s :     0.796189
      pz      :     0.012783  p :     0.058081
      px      :     0.013855
      py      :     0.031442

 10 H s       :     0.794083  s :     0.794083
      pz      :     0.013774  p :     0.059179
      px      :     0.020400
      py      :     0.025005

 11 H s       :     0.777824  s :     0.777824
      pz      :     0.012902  p :     0.060991
      px      :     0.014393
      py      :     0.033696

 12 H s       :     0.798727  s :     0.798727
      pz      :     0.014048  p :     0.058636
      px      :     0.033432
      py      :     0.011155

 13 H s       :     0.662665  s :     0.662665
      pz      :     0.042443  p :     0.150400
      px      :     0.069989
      py      :     0.037969

 14 H s       :     0.827443  s :     0.827443
      pz      :     0.007355  p :     0.054455
      px      :     0.017382
      py      :     0.029718


---------------------------------
LOEWDIN BOND ORDERS (THRESH 0.050000)
---------------------------------
B(  0-C ,  1-C ) :   1.5775 B(  0-C ,  2-C ) :   0.2364 B(  0-C ,  3-C ) :   0.1049 
B(  0-C ,  4-C ) :   0.2385 B(  0-C ,  5-C ) :   1.5905 B(  0-C ,  9-H ) :   0.8280 
B(  0-C , 10-H ) :   0.0940 B(  0-C , 12-H ) :   0.0947 B(  1-C ,  2-C ) :   1.4573 
B(  1-C ,  3-C ) :   0.2189 B(  1-C ,  4-C ) :   0.0982 B(  1-C ,  5-C ) :   0.2414 
B(  1-C ,  7-C ) :   0.2127 B(  1-C ,  9-H ) :   0.0951 B(  1-C , 10-H ) :   0.8210 
B(  2-C ,  3-C ) :   1.4478 B(  2-C ,  4-C ) :   0.2404 B(  2-C ,  5-C ) :   0.0984 
B(  2-C ,  7-C ) :   1.2088 B(  2-C ,  8-O ) :   0.1840 B(  2-C , 10-H ) :   0.0923 
B(  2-C , 11-H ) :   0.0915 B(  2-C , 14-H ) :   0.0868 B(  3-C ,  4-C ) :   1.4995 
B(  3-C ,  5-C ) :   0.2297 B(  3-C ,  6-O ) :   0.1538 B(  3-C ,  7-C ) :   0.1891 
B(  3-C , 11-H ) :   0.8101 B(  4-C ,  5-C ) :   1.4741 B(  4-C ,  6-O ) :   1.6391 
B(  4-C , 11-H ) :   0.0967 B(  4-C , 12-H ) :   0.0953 B(  4-C , 13-H ) :   0.1041 
B(  5-C ,  6-O ) :   0.1454 B(  5-C ,  9-H ) :   0.0977 B(  5-C , 12-H ) :   0.8256 
B(  6-O , 13-H ) :   0.9940 B(  7-C ,  8-O ) :   2.6876 B(  7-C , 14-H ) :   0.8568 
B(  8-O , 14-H ) :   0.0790 

------------------------------------------
LOEWDIN REDUCED ORBITAL POPULATIONS PER MO
-------------------------------------------
THRESHOLD FOR PRINTING IS 0.1%%
                      0         1         2         3         4         5   
                 -21.71699 -21.67150 -12.14100 -12.13164 -12.07621 -12.07469
                   2.00000   2.00000   2.00000   2.00000   2.00000   2.00000
                  --------  --------  --------  --------  --------  --------
 0 C  s               0.0       0.0       0.0       0.0      41.6       4.7
 0 C  dxy             0.0       0.0       0.0       0.0       0.1       0.0
 1 C  s               0.0       0.0       0.0       0.0       0.5       5.7
 2 C  s               0.0       0.0       0.0       0.0       0.5      86.1
 2 C  dx2y2           0.0       0.0       0.1       0.0       0.0       0.0
 3 C  s               0.0       0.0       0.0       0.0       0.1       0.9
 3 C  dx2y2           0.0       0.0       0.0       0.2       0.0       0.0
 3 C  dxy             0.0       0.0       0.0       0.0       0.0       0.2
 4 C  s               0.0       0.0       0.0      98.8       0.0       0.0
 5 C  s               0.0       0.0       0.0       0.0      56.2       1.4
 5 C  dx2y2           0.0       0.0       0.0       0.1       0.0       0.0
 6 O  s              99.8       0.0       0.0       0.0       0.0       0.0
 7 C  s               0.0       0.0      99.2       0.0       0.0       0.0
 7 C  dx2y2           0.0       0.0       0.0       0.0       0.0       0.1
 8 O  s               0.0      99.7       0.0       0.0       0.0       0.0
 8 O  py              0.0       0.0       0.1       0.0       0.0       0.0
 8 O  dxy             0.0       0.0       0.1       0.0       0.0       0.0

                      6         7         8         9        10        11   
                 -12.07419 -12.06942 -12.06500  -1.73200  -1.71038  -1.40783
                   2.00000   2.00000   2.00000   2.00000   2.00000   2.00000
                  --------  --------  --------  --------  --------  --------
 0 C  s              48.9       3.7       0.0       0.0       0.0      10.0
 0 C  px              0.0       0.1       0.0       0.0       0.0       0.5
 0 C  py              0.0       0.0       0.0       0.0       0.0       2.7
 0 C  dz2             0.0       0.1       0.0       0.0       0.0       0.5
 0 C  dx2y2           0.0       0.2       0.0       0.0       0.0       0.0
 1 C  s               1.5      91.0       0.3       0.0       0.0      10.7
 1 C  px              0.1       0.0       0.0       0.0       0.0       1.0
 1 C  py              0.0       0.0       0.0       0.0       0.0       2.3
 1 C  dz2             0.0       0.0       0.0       0.0       0.0       0.6
 1 C  dx2y2           0.2       0.0       0.0       0.0       0.0       0.0
 2 C  s               7.5       3.4       1.3       0.0       0.6      12.5
 2 C  px              0.0       0.0       0.0       0.0       1.5       2.1
 2 C  py              0.0       0.1       0.0       0.0       0.3       0.1
 2 C  dz2             0.0       0.1       0.1       0.0       0.1       0.7
 2 C  dx2y2           0.0       0.1       0.0       0.0       0.1       0.0
 2 C  dxy             0.0       0.1       0.2       0.0       0.4       0.0
 2 C  f+3             0.0       0.0       0.0       0.0       0.0       0.1
 3 C  s               0.1       0.6      97.3       0.4       0.1      10.4
 3 C  px              0.0       0.0       0.0       1.4       0.3       0.2
 3 C  py              0.0       0.0       0.0       0.0       0.0       3.3
 3 C  dz2             0.0       0.0       0.0       0.1       0.0       0.5
 3 C  dx2y2           0.0       0.0       0.0       0.3       0.0       0.0
 4 C  s               0.0       0.0       0.0       7.3       0.0       8.6
 4 C  px              0.0       0.0       0.1       4.3       0.0       2.3
 4 C  py              0.0       0.0       0.0       6.5       0.0       3.0
 4 C  dz2             0.0       0.0       0.1       1.2       0.0       0.3
 4 C  dx2y2           0.0       0.0       0.2       0.2       0.0       0.0
 4 C  dxy             0.0       0.0       0.0       3.3       0.0       0.2
 4 C  f-1             0.0       0.0       0.0       0.2       0.0       0.0
 4 C  f+3             0.0       0.0       0.0       0.4       0.0       0.0
 5 C  s              41.0       0.3       0.0       0.4       0.0       9.7
 5 C  px              0.0       0.0       0.0       0.0       0.0       3.2
 5 C  py              0.0       0.0       0.0       1.3       0.0       0.0
 5 C  dz2             0.0       0.0       0.0       0.1       0.0       0.5
 5 C  dx2y2           0.0       0.0       0.0       0.3       0.0       0.0
 6 O  s               0.0       0.0       0.0      56.4       0.0       0.7
 6 O  px              0.0       0.0       0.0       0.0       0.0       1.1
 6 O  py              0.0       0.0       0.0       1.4       0.0       0.7
 7 C  s               0.0       0.0       0.0       0.0      14.0       1.2
 7 C  px              0.0       0.0       0.0       0.0       3.4       2.6
 7 C  py              0.0       0.0       0.0       0.0      13.6       0.3
 7 C  dz2             0.0       0.0       0.0       0.0       1.1       0.0
 7 C  dx2y2           0.0       0.0       0.0       0.0       1.1       0.4
 7 C  dxy             0.0       0.0       0.0       0.0       2.5       0.0
 7 C  f-1             0.0       0.0       0.0       0.0       0.3       0.0
 7 C  f+3             0.0       0.0       0.0       0.0       0.6       0.0
 8 O  s               0.0       0.0       0.0       0.0      53.4       0.2
 8 O  px              0.0       0.0       0.0       0.0       1.0       0.1
 8 O  py              0.0       0.0       0.0       0.0       3.9       0.1
 8 O  dx2y2           0.0       0.0       0.0       0.0       0.1       0.0
 8 O  dxy             0.0       0.0       0.0       0.0       0.2       0.0
 9 H  s               0.0       0.0       0.0       0.0       0.0       1.2
10 H  s               0.0       0.0       0.0       0.0       0.0       1.2
11 H  s               0.0       0.0       0.0       0.1       0.0       1.1
12 H  s               0.0       0.0       0.0       0.1       0.0       1.1
13 H  s               0.0       0.0       0.0      10.8       0.0       0.4
13 H  px              0.0       0.0       0.0       2.7       0.0       0.1
13 H  py              0.0       0.0       0.0       0.2       0.0       0.0
14 H  s               0.0       0.0       0.0       0.0       0.9       0.2
14 H  py              0.0       0.0       0.0       0.0       0.1       0.0

                     12        13        14        15        16        17   
                  -1.31452  -1.30144  -1.19259  -1.16614  -1.12256  -1.07515
                   2.00000   2.00000   2.00000   2.00000   2.00000   2.00000
                  --------  --------  --------  --------  --------  --------
 0 C  s               3.0      13.9       0.7       0.2       7.4       0.3
 0 C  px              4.5       1.2       8.7       1.6       1.8       6.9
 0 C  py              1.4       0.3       1.6       0.3       1.3       0.2
 0 C  dz2             0.1       0.2       0.0       0.0       0.0       0.0
 0 C  dx2y2           0.4       0.6       0.5       0.1       0.0       0.0
 0 C  dxy             1.1       0.0       0.6       0.0       0.0       0.0
 1 C  s               3.4       9.8       5.2       2.3       2.3       1.3
 1 C  px              4.1       2.8       2.1       1.2       5.2       0.5
 1 C  py              2.8       0.7       1.1       0.2       2.5       1.9
 1 C  dz2             0.1       0.2       0.0       0.0       0.0       0.0
 1 C  dx2y2           0.9       0.9       0.0       0.1       0.8       0.0
 1 C  dxy             0.6       0.1       0.1       0.2       0.1       0.1
 1 C  f+3             0.0       0.1       0.0       0.0       0.0       0.0
 1 C  f-3             0.0       0.0       0.1       0.0       0.0       0.0
 2 C  s              15.7       0.1       1.4       0.1       0.7       3.0
 2 C  px              0.9       0.2       9.7       5.3       1.5       0.5
 2 C  py              0.2       8.2       0.7       7.7       6.9       1.0
 2 C  dz2             0.3       0.0       0.0       0.0       0.0       0.1
 2 C  dx2y2           0.0       0.2       1.2       0.1       0.7       0.1
 2 C  dxy             0.0       2.0       0.0       0.7       0.1       0.0
 2 C  f+3             0.2       0.0       0.0       0.0       0.0       0.0
 3 C  s               1.1      12.2       1.7       6.4       2.0       0.2
 3 C  px              6.2       1.7       2.1       1.8       0.0       6.8
 3 C  py              0.9       0.2       0.4       0.8       2.2       0.1
 3 C  dz2             0.0       0.2       0.0       0.0       0.0       0.0
 3 C  dx2y2           0.3       0.8       0.0       0.4       0.2       0.0
 3 C  dxy             1.5       0.0       0.0       0.1       0.1       1.1
 4 C  s               5.5       8.5       0.1       2.4       0.7       1.3
 4 C  px              1.2       4.3       4.5       5.4       3.5       3.3
 4 C  py              3.8       0.9       7.4       3.1       6.9       2.5
 4 C  dz2             0.0       0.0       0.0       0.1       0.0       0.0
 4 C  dx2y2           0.8       0.9       0.2       0.9       0.1       0.8
 4 C  dxy             0.7       0.4       0.2       0.1       0.1       0.3
 5 C  s              14.0       0.8       8.3       0.2       0.4       1.0
 5 C  px              0.5       0.3       1.0       0.3       0.6       1.1
 5 C  py              0.1       7.5       0.3       1.5      13.0       5.9
 5 C  dz2             0.3       0.0       0.0       0.0       0.0       0.0
 5 C  dx2y2           0.3       0.1       0.1       0.3       0.0       0.0
 5 C  dxy             0.0       2.0       0.0       0.0       0.5       0.4
 5 C  f+3             0.1       0.0       0.0       0.0       0.0       0.0
 6 O  s               0.7       0.8       0.0       0.5       0.6       0.3
 6 O  px              1.1       5.5       5.0      24.9       4.4      10.5
 6 O  py              1.5       1.6       0.1       7.0       2.2       0.1
 6 O  dx2y2           0.1       0.0       0.0       0.3       0.0       0.1
 6 O  dxy             0.1       0.2       0.1       0.5       0.0       0.0
 7 C  s               4.0       0.0       9.1       3.1       3.4       1.5
 7 C  px              5.4       0.1       2.4       0.0       0.0       7.3
 7 C  py              1.1       0.1       1.8       2.0       0.2       1.5
 7 C  dz2             0.1       0.0       0.0       0.0       0.1       0.2
 7 C  dx2y2           0.8       0.0       0.4       0.0       0.1       0.0
 7 C  dxy             0.0       0.1       0.3       0.0       1.2       0.2
 8 O  s               1.0       0.0       3.5       0.9       3.7       4.5
 8 O  px              0.5       0.0       2.1       0.3       2.4       0.7
 8 O  py              0.6       0.0       5.2       2.4       9.2      22.8
 8 O  dx2y2           0.0       0.0       0.0       0.0       0.1       0.3
 8 O  dxy             0.0       0.0       0.1       0.0       0.1       0.0
 9 H  s               0.5       2.3       0.2       0.1       4.1       0.3
 9 H  py              0.1       0.2       0.0       0.0       0.4       0.1
10 H  s               0.6       1.6       1.1       1.2       0.9       0.9
10 H  px              0.0       0.1       0.1       0.0       0.0       0.1
10 H  py              0.1       0.1       0.0       0.1       0.2       0.0
11 H  s               0.2       1.9       0.4       1.4       1.6       0.0
11 H  py              0.0       0.2       0.0       0.2       0.1       0.0
12 H  s               2.2       0.2       2.8       0.0       0.2       1.4
12 H  px              0.2       0.0       0.3       0.0       0.0       0.1
12 H  py              0.0       0.0       0.0       0.0       0.1       0.0
13 H  s               0.5       1.7       1.3       7.8       1.2       3.4
13 H  px              0.0       0.2       0.1       0.2       0.0       0.0
13 H  py              0.0       0.1       0.0       0.5       0.0       0.1
14 H  s               0.7       0.0       2.5       1.6       1.0       1.4
14 H  px              0.1       0.0       0.2       0.1       0.0       0.0
14 H  py              0.0       0.0       0.1       0.1       0.1       0.2

                     18        19        20        21        22        23   
                  -1.02629  -1.00823  -0.98167  -0.96649  -0.96212  -0.95045
                   2.00000   2.00000   2.00000   2.00000   2.00000   2.00000
                  --------  --------  --------  --------  --------  --------
 0 C  s               0.6       0.9       0.1       0.8       0.0       0.0
 0 C  px              2.6       0.0       1.8       0.9       0.0       9.5
 0 C  py              3.1       3.4       0.3       1.9       0.0       1.1
 0 C  dz2             0.0       0.0       0.0       0.1       0.0       0.0
 0 C  dx2y2           0.0       0.0       0.0       1.1       0.0       0.0
 0 C  dxy             0.1       0.0       0.2       0.5       0.0       0.1
 1 C  s               0.0       0.1       0.3       2.4       0.0       0.0
 1 C  pz              0.0       0.0       0.0       0.0       0.1       0.0
 1 C  px              3.5       0.1       0.0       8.6       0.0       6.0
 1 C  py              2.7       4.7       4.7       4.7       0.0       4.7
 1 C  dx2y2           0.0       0.6       0.2       0.3       0.0       0.1
 1 C  dxy             0.1       0.4       0.0       0.4       0.0       0.0
 2 C  s               0.0       0.5       0.3       0.2       0.0       0.0
 2 C  px              0.1      10.8       6.5       0.2       0.0       0.2
 2 C  py              7.3       0.0       0.1       0.2       0.0       9.7
 2 C  dx2y2           0.2       0.8       0.2       2.9       0.0       0.0
 2 C  dxy             0.2       0.7       0.6       0.3       0.0       0.3
 2 C  f-3             0.0       0.0       0.1       0.0       0.0       0.2
 3 C  s               0.1       0.5       0.3       2.3       0.0       0.0
 3 C  pz              0.0       0.0       0.0       0.0       0.6       0.0
 3 C  px              7.6       2.7       1.7       0.8       0.0       9.4
 3 C  py              0.0       3.9       0.6       6.9       0.0       1.0
 3 C  dxz             0.0       0.0       0.0       0.0       0.5       0.0
 3 C  dx2y2           0.0       0.5       0.7       0.4       0.0       0.0
 3 C  dxy             0.1       0.3       0.3       0.1       0.0       0.0
 3 C  f-3             0.0       0.1       0.1       0.0       0.0       0.0
 4 C  s               0.1       0.6       0.5       0.5       0.0       0.1
 4 C  pz              0.0       0.0       0.0       0.0      11.8       0.0
 4 C  px              7.6       1.5       0.9       0.1       0.0       4.4
 4 C  py              0.4       0.1       2.4       0.6       0.0       4.5
 4 C  dxz             0.0       0.0       0.0       0.0       1.5       0.0
 4 C  dyz             0.0       0.0       0.0       0.0       2.3       0.0
 4 C  dx2y2           1.6       0.8       0.6       0.2       0.0       0.8
 4 C  dxy             0.1       0.4       0.5       2.1       0.0       0.1
 4 C  f0              0.0       0.0       0.0       0.0       0.3       0.0
 4 C  f-2             0.0       0.0       0.0       0.0       0.5       0.0
 4 C  f+3             0.0       0.1       0.0       0.0       0.0       0.1
 4 C  f-3             0.1       0.2       0.0       0.0       0.0       0.4
 5 C  s               0.6       0.4       0.0       2.4       0.0       0.1
 5 C  pz              0.0       0.0       0.0       0.0       0.6       0.0
 5 C  px              0.5       0.1       0.2      18.4       0.0       0.7
 5 C  py              1.4       0.0       3.2       0.5       0.0      10.3
 5 C  dyz             0.0       0.0       0.0       0.0       0.4       0.0
 5 C  dx2y2           0.3       0.2       0.0       0.4       0.0       0.1
 5 C  dxy             0.4       0.0       0.3       0.1       0.0       0.1
 6 O  s               3.2       0.9       0.9       0.0       0.0       1.2
 6 O  pz              0.0       0.0       0.0       0.0      79.0       0.0
 6 O  px              1.9       4.9       0.2       0.0       0.0       3.1
 6 O  py             33.1       3.4      13.3       0.4       0.0      10.2
 6 O  dx2y2           0.0       0.1       0.0       0.0       0.0       0.4
 7 C  s               0.4       2.9       0.1       0.4       0.0       0.5
 7 C  px              1.9       2.2      13.7       1.0       0.0       1.3
 7 C  py              4.5      11.7       4.0       0.5       0.0       2.3
 7 C  dx2y2           0.0       0.1       0.9       0.0       0.0       0.5
 7 C  dxy             0.4       0.1       0.1       0.1       0.0       0.4
 7 C  f-3             0.0       0.0       0.5       0.0       0.0       0.4
 8 O  s               0.4       3.2       0.0       0.2       0.0       0.2
 8 O  px              5.7       6.7      24.6       0.1       0.0       9.0
 8 O  py              0.1      14.5       5.5       1.8       0.0       0.1
 8 O  dx2y2           0.0       0.0       0.2       0.0       0.0       0.0
 8 O  dxy             0.0       0.1       0.1       0.0       0.0       0.0
 9 H  s               1.0       2.2       0.0       0.3       0.0       0.0
 9 H  px              0.1       0.0       0.0       0.0       0.0       0.1
10 H  s               0.0       0.9       1.8      10.4       0.0       0.0
10 H  px              0.0       0.0       0.1       0.1       0.0       0.1
10 H  py              0.0       0.0       0.0       0.3       0.0       0.1
11 H  s               0.4       1.2       0.1       7.0       0.0       0.0
11 H  py              0.1       0.0       0.0       0.3       0.0       0.0
12 H  s               0.0       0.3       0.1      14.5       0.0       0.2
12 H  px              0.0       0.0       0.0       0.6       0.0       0.0
12 H  py              0.0       0.0       0.0       0.0       0.0       0.1
13 H  s               1.1       2.1       0.3       0.1       0.0       2.0
13 H  pz              0.0       0.0       0.0       0.0       1.9       0.0
13 H  py              0.6       0.0       0.3       0.0       0.0       0.1
14 H  s               2.7       5.5       4.2       0.2       0.0       2.4
14 H  px              0.1       0.3       0.0       0.0       0.0       0.0
14 H  py              0.1       0.1       0.4       0.0       0.0       0.1

                     24        25        26        27        28        29   
                  -0.90400  -0.90123  -0.86366  -0.84017  -0.80261  -0.78963
                   2.00000   2.00000   2.00000   2.00000   2.00000   2.00000
                  --------  --------  --------  --------  --------  --------
 0 C  s               0.8       0.0       0.0       0.3       0.0       0.0
 0 C  pz              0.0       0.1       0.0       0.0       0.0      15.9
 0 C  px              3.5       0.0       7.6       0.5       1.1       0.0
 0 C  py             24.9       0.0       0.8       6.3       0.4       0.0
 0 C  dyz             0.0       0.0       0.0       0.0       0.0       0.5
 0 C  dx2y2           0.8       0.0       0.7       1.9       0.2       0.0
 0 C  dxy             0.8       0.0       0.7       2.1       0.2       0.0
 0 C  f0              0.0       0.0       0.0       0.0       0.0       0.1
 0 C  f-3             0.0       0.0       0.3       0.0       0.0       0.0
 1 C  s               0.3       0.0       0.3       0.1       0.0       0.0
 1 C  pz              0.0       0.1       0.0       0.0       0.0      16.0
 1 C  px              2.4       0.0      12.4       0.5       1.0       0.0
 1 C  py              0.3       0.0       7.1       9.6       0.4       0.0
 1 C  dz2             0.1       0.0       0.1       0.0       0.0       0.0
 1 C  dxz             0.0       0.0       0.0       0.0       0.0       0.2
 1 C  dyz             0.0       0.1       0.0       0.0       0.0       0.4
 1 C  dx2y2           0.8       0.0       0.0       0.0       0.2       0.0
 1 C  dxy             0.7       0.0       2.3       2.6       0.4       0.0
 1 C  f0              0.0       0.0       0.0       0.0       0.0       0.1
 1 C  f-3             0.3       0.0       0.0       0.0       0.1       0.0
 2 C  s               0.7       0.0       0.0       0.1       0.6       0.0
 2 C  pz              0.0       2.7       0.0       0.0       0.0      15.9
 2 C  px              0.8       0.0       0.1       0.2       9.3       0.0
 2 C  py              0.3       0.0       1.8       7.3       0.2       0.0
 2 C  dz2             0.1       0.0       0.0       0.0       0.1       0.0
 2 C  dxz             0.0       1.2       0.0       0.0       0.0       0.8
 2 C  dx2y2           0.2       0.0       1.1       0.8       0.4       0.0
 2 C  dxy             0.4       0.0       0.7       0.5       0.4       0.0
 2 C  f0              0.0       0.1       0.0       0.0       0.0       0.1
 2 C  f-3             0.3       0.0       0.1       0.1       0.0       0.0
 3 C  s               0.7       0.0       0.0       0.3       0.1       0.0
 3 C  pz              0.0       0.2       0.0       0.0       0.0      14.7
 3 C  px              2.2       0.0       3.2       1.0       1.8       0.0
 3 C  py             15.2       0.0       0.1      14.2       0.2       0.0
 3 C  dz2             0.0       0.0       0.0       0.1       0.0       0.0
 3 C  dyz             0.0       0.0       0.0       0.0       0.0       0.6
 3 C  dx2y2           0.5       0.0       0.0       1.4       0.7       0.0
 3 C  dxy             0.5       0.0       0.1       0.9       0.3       0.0
 4 C  s               0.5       0.0       0.0       0.1       0.0       0.0
 4 C  pz              0.0       0.0       0.0       0.0       0.0       9.1
 4 C  px              0.9       0.0       1.4       2.5       0.9       0.0
 4 C  py              0.3       0.0       1.3       2.8       0.4       0.0
 4 C  dxz             0.0       0.0       0.0       0.0       0.0       0.8
 4 C  dyz             0.0       0.0       0.0       0.0       0.0       1.1
 4 C  dx2y2           0.4       0.0       0.9       0.5       0.0       0.0
 4 C  dxy             0.2       0.0       0.7       1.1       0.1       0.0
 4 C  f-2             0.0       0.0       0.0       0.0       0.0       0.1
 4 C  f-3             0.3       0.0       0.1       0.0       0.0       0.0
 5 C  s               0.4       0.0       0.3       0.1       0.0       0.0
 5 C  pz              0.0       0.1       0.0       0.0       0.0      14.5
 5 C  px              2.1       0.0      18.8       1.3       0.4       0.0
 5 C  py              1.0       0.0       0.0       5.8       0.2       0.0
 5 C  dz2             0.1       0.0       0.2       0.0       0.0       0.0
 5 C  dxz             0.0       0.0       0.0       0.0       0.0       0.5
 5 C  dx2y2           0.7       0.0       2.9       1.5       0.3       0.0
 5 C  dxy             0.6       0.0       0.1       0.1       0.0       0.0
 5 C  f-3             0.3       0.0       0.0       0.0       0.0       0.0
 6 O  pz              0.0       0.1       0.0       0.0       0.0       3.4
 6 O  px              0.0       0.0       0.1       0.0       0.1       0.0
 6 O  py              0.6       0.0       0.1       1.4       0.0       0.0
 7 C  s               0.1       0.0       0.3       0.2       0.4       0.0
 7 C  pz              0.0      33.2       0.0       0.0       0.0       0.1
 7 C  px              0.0       0.0       0.0       0.1       8.9       0.0
 7 C  py              0.3       0.0       0.5       0.3       4.4       0.0
 7 C  dxz             0.0       0.6       0.0       0.0       0.0       1.0
 7 C  dyz             0.0       2.3       0.0       0.0       0.0       0.3
[...]
 4 C  f-3             0.2       0.0       0.2       0.0       0.0       1.7
 5 C  s               0.1       0.0       0.4       0.0       0.0       0.4
 5 C  px              0.3       0.0       0.0       0.0       0.0       0.0
 5 C  py              0.0       0.0       0.0       0.0       0.0       0.4
 5 C  dx2y2           0.1       0.0       0.0       0.0       0.0       0.2
 5 C  dxy             0.1       0.0       0.0       0.0       0.0       0.1
 5 C  f-3             0.0       0.0       0.1       0.0       0.0       0.2
 6 O  s               2.2       0.0       1.0       0.1       0.0       3.0
 6 O  px              1.8       0.0       2.0       0.1       0.1       0.8
 6 O  py              2.4       0.0       0.5       0.0       0.0       0.0
 6 O  dz2            40.3       0.0       7.9       0.2       0.1       6.1
 6 O  dx2y2          23.9       0.0       0.3       0.0       0.3      45.3
 6 O  dxy             6.0       0.0      68.4       2.9       1.6       1.4
 6 O  f+1             1.3       0.0       3.2       0.2       0.2       2.7
 6 O  f-1             6.2       0.0       0.5       0.0       0.0       0.4
 6 O  f+3             6.0       0.0       2.2       0.2       0.0       1.2
 6 O  f-3             0.1       0.0       0.2       0.0       0.0      23.8
 7 C  s               0.0       0.0       0.0       1.5       2.0       0.0
 7 C  pz              0.0       1.9       0.0       0.0       0.0       0.0
 7 C  px              0.0       0.0       0.1       1.1       1.1       0.0
 7 C  py              0.0       0.0       0.0       0.9       1.4       0.0
 7 C  dz2             0.0       0.0       0.0       0.1       0.1       0.0
 7 C  dxz             0.0       0.7       0.0       0.0       0.0       0.0
 7 C  dyz             0.0       2.6       0.0       0.0       0.0       0.0
 7 C  dx2y2           0.0       0.0       0.2       2.1       0.7       0.0
 7 C  dxy             0.0       0.0       0.1       0.6       1.2       0.0
 7 C  f0              0.0       0.3       0.0       0.0       0.0       0.0
 7 C  f+1             0.0       0.0       0.0       0.0       0.2       0.0
 7 C  f-1             0.0       0.0       0.0       0.2       0.2       0.0
 7 C  f+2             0.0       0.2       0.0       0.0       0.0       0.0
 7 C  f-2             0.0       0.3       0.0       0.0       0.0       0.0
 7 C  f+3             0.0       0.0       0.0       0.3       1.6       0.0
 7 C  f-3             0.0       0.0       0.1       0.6       0.2       0.0
 8 O  s               0.0       0.0       0.0       0.5       1.4       0.0
 8 O  pz              0.0       2.2       0.0       0.0       0.0       0.0
 8 O  px              0.0       0.0       0.2       0.9       2.2       0.0
 8 O  py              0.0       0.0       0.0       1.7       0.7       0.0
 8 O  dz2             0.1       0.0       0.0       4.3      16.6       0.1
 8 O  dxz             0.0      14.6       0.0       0.0       0.0       0.0
 8 O  dyz             0.0      51.7       0.0       0.0       0.0       0.0
 8 O  dx2y2           0.0       0.0       2.6      59.7       0.1       0.0
 8 O  dxy             0.1       0.0       1.2       0.2      48.0       0.2
 8 O  f0              0.0       9.5       0.0       0.0       0.0       0.0
 8 O  f+1             0.0       0.0       0.1       0.1       2.6       0.0
 8 O  f-1             0.0       0.0       0.0       2.1       2.9       0.0
 8 O  f+2             0.0       5.3       0.0       0.0       0.0       0.0
 8 O  f-2             0.0      10.6       0.0       0.0       0.0       0.0
 8 O  f+3             0.0       0.0       0.1       0.8       6.8       0.0
 8 O  f-3             0.0       0.0       1.5      16.8       5.5       0.0
13 H  s               2.2       0.0       0.3       0.0       0.1       6.5
13 H  px              0.3       0.0       0.0       0.0       0.0       0.4
14 H  s               0.0       0.0       0.0       0.1       0.0       0.0

                    306       307       308       309       310       311   
                  20.50583  21.00334  21.08732  21.14960  21.30622  21.35993
                   0.00000   0.00000   0.00000   0.00000   0.00000   0.00000
                  --------  --------  --------  --------  --------  --------
 0 C  s              21.8       0.3      63.7       6.4       0.1       0.4
 0 C  px              0.0       0.5       0.0       0.0       0.1       0.0
 1 C  s              14.4      40.1       0.5      27.6       0.6       2.2
 1 C  px              0.1       0.0       0.2       0.0       0.2       0.0
 1 C  py              0.0       0.0       0.2       0.0       0.1       0.0
 1 C  dx2y2           0.0       0.0       0.1       0.0       0.0       0.0
 2 C  s              14.2       2.7       6.7       1.6       9.6      36.1
 2 C  px              0.1       0.0       0.0       0.0       0.4       0.0
 2 C  py              0.0       0.1       0.2       0.4       0.0       0.0
 2 C  dx2y2           0.1       0.1       0.0       0.0       0.3       0.0
 2 C  dxy             0.0       0.0       0.1       0.3       0.1       0.0
 3 C  s              17.2       2.8      11.3      50.0       0.3       0.5
 3 C  px              0.0       0.1       0.0       0.0       0.3       0.3
 4 C  s               8.9       0.2      13.7       0.0       1.6      48.9
 4 C  px              0.0       0.1       0.1       0.2       0.0       0.0
 4 C  py              0.1       0.2       0.0       0.1       0.0       0.0
 4 C  dx2y2           0.0       0.1       0.0       0.2       0.0       0.0
 5 C  s              20.0      47.8       1.6      12.1       5.9       2.6
 5 C  py              0.0       0.0       0.5       0.0       0.0       0.1
 5 C  dxy             0.0       0.0       0.2       0.0       0.0       0.0
 6 O  s               0.2       0.0       0.1       0.0       0.0       0.1
 6 O  py              0.1       0.0       0.0       0.0       0.0       0.1
 7 C  s               1.2       3.8       0.0       0.2      78.1       7.6
 7 C  px              0.2       0.0       0.0       0.0       0.1       0.0
 7 C  py              0.0       0.0       0.0       0.0       0.1       0.0
 8 O  s               0.1       0.0       0.0       0.0       0.8       0.1
 8 O  px              0.0       0.0       0.0       0.0       0.1       0.0
 8 O  py              0.0       0.0       0.0       0.0       0.4       0.0
 9 H  s               0.1       0.0       0.1       0.0       0.0       0.0
14 H  s               0.0       0.0       0.0       0.0       0.2       0.0

                    312       313       314   
                  21.67365  41.45900  41.55683
                   0.00000   0.00000   0.00000
                  --------  --------  --------
 0 C  s               5.2       0.0       0.0
 1 C  s              12.2       0.0       0.0
 2 C  s              27.7       0.0       0.0
 3 C  s              15.7       0.0       0.0
 4 C  s              24.1       0.0       0.0
 5 C  s               7.9       0.0       0.0
 6 O  s               0.1       4.1      95.7
 7 C  s               5.5       0.0       0.0
 8 O  s               0.1      95.7       4.1


                      *****************************
                      * MAYER POPULATION ANALYSIS *
                      *****************************

  NA   - Mulliken gross atomic population
  ZA   - Total nuclear charge
  QA   - Mulliken gross atomic charge
  VA   - Mayer's total valence
  BVA  - Mayer's bonded valence
  FA   - Mayer's free valence

  ATOM       NA         ZA         QA         VA         BVA        FA
  0 C      6.1160     6.0000    -0.1160     3.9747     3.9747     0.0000
  1 C      6.2137     6.0000    -0.2137     3.9994     3.9994    -0.0000
  2 C      5.8042     6.0000     0.1958     3.4468     3.4468     0.0000
  3 C      6.3006     6.0000    -0.3006     3.9907     3.9907     0.0000
  4 C      5.6928     6.0000     0.3072     3.9550     3.9550     0.0000
  5 C      6.1996     6.0000    -0.1996     3.9230     3.9230     0.0000
  6 O      8.3798     8.0000    -0.3798     2.1010     2.1010    -0.0000
  7 C      5.9115     6.0000     0.0885     4.0932     4.0932     0.0000
  8 O      8.2999     8.0000    -0.2999     2.1676     2.1676     0.0000
  9 H      0.8714     1.0000     0.1286     0.9709     0.9709     0.0000
 10 H      0.8732     1.0000     0.1268     0.9747     0.9747    -0.0000
 11 H      0.8458     1.0000     0.1542     0.9963     0.9963    -0.0000
 12 H      0.8832     1.0000     0.1168     0.9770     0.9770     0.0000
 13 H      0.6856     1.0000     0.3144     0.9160     0.9160     0.0000
 14 H      0.9228     1.0000     0.0772     0.9653     0.9653     0.0000

  Mayer bond orders larger than 0.100000
B(  0-C ,  1-C ) :   1.4438 B(  0-C ,  5-C ) :   1.4414 B(  0-C ,  9-H ) :   0.9612 
B(  1-C ,  2-C ) :   1.3614 B(  1-C , 10-H ) :   0.9614 B(  2-C ,  3-C ) :   1.3711 
B(  2-C ,  7-C ) :   0.9000 B(  2-C ,  8-O ) :  -0.1252 B(  3-C ,  4-C ) :   1.4019 
B(  3-C , 11-H ) :   0.9669 B(  4-C ,  5-C ) :   1.3387 B(  4-C ,  6-O ) :   1.1647 
B(  5-C , 12-H ) :   0.9571 B(  6-O , 13-H ) :   0.8876 B(  7-C ,  8-O ) :   2.1252 
B(  7-C , 14-H ) :   1.0184 

-------
TIMINGS
-------

Total SCF time: 0 days 0 hours 2 min 38 sec 

Total time                  ....     158.745 sec
Sum of individual times     ....     155.825 sec  ( 98.2%)

SCF preparation             ....       0.211 sec  (  0.1%)
Fock matrix formation       ....     154.091 sec  ( 97.1%)
  Startup                   ....       0.063 sec  (  0.0% of F)
  Split-RI-J                ....       6.590 sec  (  4.3% of F)
  Chain of spheres X        ....     132.909 sec  ( 86.3% of F)
  XC integration            ....      15.961 sec  ( 10.4% of F)
    XC Preparation          ....       0.000 sec  (  0.0% of XC)
    Basis function eval.    ....       3.572 sec  ( 22.4% of XC)
    Density eval.           ....       2.974 sec  ( 18.6% of XC)
    XC-Functional eval.     ....       3.121 sec  ( 19.6% of XC)
    XC-Potential eval.      ....       5.459 sec  ( 34.2% of XC)
Diagonalization             ....       0.000 sec  (  0.0%)
Density matrix formation    ....       0.256 sec  (  0.2%)
Total Energy calculation    ....       0.103 sec  (  0.1%)
Population analysis         ....       0.170 sec  (  0.1%)
Orbital Transformation      ....       0.080 sec  (  0.1%)
Orbital Orthonormalization  ....       0.000 sec  (  0.0%)
DIIS solution               ....       0.370 sec  (  0.2%)
  MO trafo                  ....       0.000 sec  (  0.0 % of DIIS)
  Orb grad                  ....       0.000 sec  (  0.0 % of DIIS)
  Energy W gradient         ....       0.000 sec  (  0.0 % of DIIS)
  DIIS error                ....       0.015 sec  (  4.0 % of DIIS)
  DIIS work                 ....       0.306 sec  ( 82.6 % of DIIS)
  Form Q                    ....       0.000 sec  (  0.0 % of DIIS)
  Form QpQm                 ....       0.000 sec  (  0.0 % of DIIS)
  Exp/Cayley                ....       0.000 sec  (  0.0 % of DIIS)
  Orb update                ....       0.000 sec  (  0.0 % of DIIS)
  Wake-sleep                ....       0.013 sec  (  3.4 % of DIIS)
SOSCF solution              ....       0.365 sec  (  0.2%)
  MO trafo                  ....       0.108 sec  ( 29.6 % of SOSCF)
  Orb grad                  ....       0.004 sec  (  1.0 % of SOSCF)
  Rot update                ....       0.155 sec  ( 42.4 % of SOSCF)
  Step                      ....       0.099 sec  ( 27.0 % of SOSCF)
Grid generation             ....       0.180 sec  (  0.1%)
Finished LeanSCF after 158.8 sec

Maximum memory used throughout the entire LEANSCF-calculation: 41.1 MB
------------------   -----------------
gCP correction             0.007544376
------------------   -----------------

-------------------------   --------------------
FINAL SINGLE POINT ENERGY      -420.819207616941
-------------------------   --------------------


------------------------------------------------------------------------------
                              ORCA PROPERTY CALCULATIONS
------------------------------------------------------------------------------

GBWName                                 ... sp_gas.gbw
Number of atoms                         ...     15
Number of basis functions               ...    315
Max core memory                         ...   1024 MB

Electric properties:
Dipole moment                           ... YES
Quadrupole moment                       ...  NO
Static polarizability (Dipole/Dipole)   ...  NO
Static polarizability (Dipole/Quad.)    ...  NO
Static polarizability (Quad./Quad.)     ...  NO
Static polarizability (Velocity)        ...  NO

Atomic electric properties:
Dipole moment                           ...  NO
Quadrupole moment                       ...  NO
Static polarizability                   ...  NO

Choice of electric origin               ... Center of mass
Position of electric origin             ...     0.001494     0.002759    -0.000185

General magnetic properties:
Magnetizability                         ...  NO

EPR properties:
g-Tensor (aka g-matrix)                 ...  NO
Zero-Field splitting spin-orbit         ...  NO
Zero-field splitting spin-spin          ...  NO
Hyperfine couplings                     ...  NO (   0 nuclei)
Quadrupole couplings                    ...  NO (   0 nuclei)
Contact density                         ...  NO (   0 nuclei)

NMR properties:
Chemical shifts                         ...  NO (   0 nuclei)
Spin-rotation constants                 ...  NO (   0 nuclei)
Spin-spin couplings                     ...  NO (   0 nuclei,    0 pairs)

Choice of magnetic origin               ... GIAO
Position of magnetic origin             ...     0.000000     0.000000     0.000000

Properties with geometric perturbations:
SCF Hessian                             ...  NO
IR spectrum                             ...  NO
VCD spectrum                            ...  NO
X-ray spectroscopy properties:
SCF XES/XAS/RIXS spectra                ...  NO


-------------
DIPOLE MOMENT
-------------

Method             : SCF
Type of density    : Electron Density
Multiplicity       :   1
Irrep              :   0
Energy             :  -420.8267519926413343 Eh
Relativity type    : 
Basis              : AO
                                X                 Y                 Z
Electronic contribution:      1.445953303       2.504714142      -0.002579558
Nuclear contribution   :     -2.876085215      -3.734075932       0.001989153
                        -----------------------------------------
Total Dipole Moment    :     -1.430131912      -1.229361790      -0.000590405
                        -----------------------------------------
Magnitude (a.u.)       :      1.885897146
Magnitude (Debye)      :      4.793569594



--------------------
Rotational spectrum 
--------------------
 
Rotational constants in cm-1:             0.098415             0.042973             0.029912 
Rotational constants in MHz :          2950.418640          1288.302481           896.740305 

Dipole components along the rotational axes: 
x,y,z [a.u.] :     1.431295    -1.228007    -0.000634 
x,y,z [Debye]:     3.638063    -3.121346    -0.001610 

 

Dipole moment calculation done in   0.0 sec 

Maximum memory used throughout the entire PROP-calculation: 26.3 MB

--------------------------------
SUGGESTED CITATIONS FOR THIS RUN
--------------------------------

Below you find a list of papers that are relevant to this ORCA run
We neither can nor want to force you to cite these papers, but we appreciate if you do
You receive ORCA, which is the product of decades of hard work by many enthusiastic individuals, for free
The only thing we kindly ask in return is that you cite our papers,
We deeply appreciate it, if you show your appreciation for ORCA by not just citing the generic ORCA reference.

Please note that relegating all ORCA citations to the supporting information does *not* help us.
SI sections are not indexed - citations you put there will not count into any citation statistics
But we need these citations in order to attract the funding resources that allow us to do what we are doing

Therefore, if you are a happy ORCA user, please consider citing a few of the papers listed below in the main body of your paper

In addition to the list printed below, the program has created the file sp_gas.bibtex that contains the list in bibtex format
You can import this file easily into all common literature databanks and citation aid programs


List of essential papers. We consider these as the minimum necessary citations

  1. Neese,F.
     Software update: the ORCA program system, version 5.0
     WIRES Comput. Molec. Sci., 2022 12(1)e1606
     doi.org/10.1002/wcms.1606

List of papers to cite with high priority. The work reported in these papers was absolutely
necessary for this run to complete.
Our perspective: the developers of density functionals and basis sets usually get cited in chemistry papers
Good! But without the algorithms to do something with them, the functionals or basis sets would not do anything.
Hence, in our opinion, the algorithm design and method developments papers are equally worthy of getting cited

  1. Neese,F.
     An improvement of the resolution of the identity approximation for the formation of the Coulomb matrix
     J. Comp. Chem., 2003 24(14)1740-1747
     doi.org/10.1002/jcc.10318
  2. Neese,F.; Wennmohs,F.; Hansen,A.; Becker,U.
     Efficient, approximate and parallel Hartree-Fock and hybrid DFT calculations. A 'chain-of-spheres' algorithm for the Hartree-Fock exchange
     Chem. Phys., 2009 356(1-3)98-109
     doi.org/10.1016/j.chemphys.2008.10.036
  3. Helmich-Paris,B.; de Souza,B.; Neese,F.; Izsák,R.
     An improved chain of spheres for exchange algorithm
     J. Chem. Phys., 2021 155 104109
     doi.org/doi: 10.1063/5.0058766.
  4. Neese,F.
     The SHARK Integral Generation and Digestion System
     J. Comp. Chem., 2022  1-16
     doi.org/10.1002/jcc.26942

List of suggested additional citations. These are papers that are important in the 'surrounding' of 
of this run, or papers that preceded the highly important papers. If you like your results we are grateful for a citation.

  1. Izsak,R.; Neese,F.
     An overlap fitted chain of spheres exchange method
     J. Chem. Phys., 2011 135 144105
     doi.org/10.1063/1.3646921
  2. Izsak,R.; Hansen,A.; Neese,F.
     The resolution of identity and chain of spheres approximations for the LPNO-CCSD singles Fock term
     Molec. Phys., 2012 110 2413-2417
     doi.org/10.1080/00268976.2012.687466
  3. Neese,F.
     The ORCA program system
     WIRES Comput. Molec. Sci., 2012 2(1)73-78
     doi.org/10.1002/wcms.81
  4. Izsak,R.; Neese,F.; Klopper,W.
     Robust fitting techniques in the chain of spheres approximation to the Fock exchange: The role of the complementary space
     J. Chem. Phys., 2013 139 
     doi.org/10.1063/1.4819264
  5. Neese,F.
     Software update: the ORCA program system, version 4.0
     WIRES Comput. Molec. Sci., 2018 8(1)1-6
     doi.org/10.1002/wcms.1327
  6. Neese,F.; Wennmohs,F.; Becker,U.; Riplinger,C.
     The ORCA quantum chemistry program package
     J. Chem. Phys., 2020 152 Art. No. L224108
     doi.org/10.1063/5.0004608

List of optional additional citations

  1. Neese,F.
     Approximate second-order SCF convergence for spin unrestricted wavefunctions
     Chem. Phys. Lett., 2000 325(1-3)93-98
     doi.org/10.1016/s0009-2614(00)00662-x

Timings for individual modules:

Sum of individual times          ...      161.532 sec (=   2.692 min)
Startup calculation              ...        2.265 sec (=   0.038 min)   1.4 %
SCF iterations                   ...      159.160 sec (=   2.653 min)  98.5 %
Property calculations            ...        0.107 sec (=   0.002 min)   0.1 %
                             ****ORCA TERMINATED NORMALLY****
TOTAL RUN TIME: 0 days 0 hours 2 minutes 42 seconds 178 msec
