
                                 *****************
                                 * O   R   C   A *
                                 *****************

                                            #,                                       
                                            ###                                      
                                            ####                                     
                                            #####                                    
                                            ######                                   
                                           ########,                                 
                                     ,,################,,,,,                         
                               ,,#################################,,                 
                          ,,##########################################,,             
                       ,#########################################, ''#####,          
                    ,#############################################,,   '####,        
                  ,##################################################,,,,####,       
                ,###########''''           ''''###############################       
              ,#####''   ,,,,##########,,,,          '''####'''          '####       
            ,##' ,,,,###########################,,,                        '##       
           ' ,,###''''                  '''############,,,                           
         ,,##''                                '''############,,,,        ,,,,,,###''
      ,#''                                            '''#######################'''  
     '                                                          ''''####''''         
             ,#######,   #######,   ,#######,      ##                                
            ,#'     '#,  ##    ##  ,#'     '#,    #''#        ,####,   ,####,        
            ##       ##  ##   ,#'  ##            #'  '#       #'       #'  '#        
            ##       ##  #######   ##           ,######,      #####,   #    #        
            '#,     ,#'  ##    ##  '#,     ,#' ,#      #,     #,   #   #,  ,#        
             '#######'   ##     ##  '#######'  #'      '#     '####' # '####'        



                #########################################################
                #                        -***-                          #
                #          Department of theory and spectroscopy        #
                #                                                       #
                #                      Frank Neese                      #
                #                                                       #
                #     Directorship, Architecture, Infrastructure        #
                #                    SHARK, DRIVERS                     #
                #        Core code/Algorithms in most modules           #
                #                                                       #
                #        Max Planck Institute fuer Kohlenforschung      #
                #                Kaiser Wilhelm Platz 1                 #
                #                 D-45470 Muelheim/Ruhr                 #
                #                      Germany                          #
                #                                                       #
                #                  All rights reserved                  #
                #                        -***-                          #
                #########################################################


                         Program Version 6.0.0  -   RELEASE  -


 With contributions from (in alphabetic order):
   Daniel Aravena         : Magnetic Suceptibility
   Michael Atanasov       : Ab Initio Ligand Field Theory (pilot matlab implementation)
   Alexander A. Auer      : GIAO ZORA, VPT2 properties, NMR spectrum
   Ute Becker             : All parallelization in ORCA, NUMFREQ, NUMCALC
   Giovanni Bistoni       : ED, misc. LED, open-shell LED, HFLD
   Martin Brehm           : Molecular dynamics
   Dmytro Bykov           : pre 5.0 version of the SCF Hessian
   Marcos Casanova-Páez   : Triplet and SCS-CIS(D). UHF-(DLPNO)-IP/EA/STEOM-CCSD. UHF-CVS-IP/STEOM-CCSD
   Vijay G. Chilkuri      : MRCI spin determinant printing, contributions to CSF-ICE
   Pauline Colinet        : FMM embedding
   Dipayan Datta          : RHF DLPNO-CCSD density
   Achintya Kumar Dutta   : EOM-CC, STEOM-CC
   Nicolas Foglia         : Exact transition moments, OPA infrastructure, MCD improvements
   Dmitry Ganyushin       : Spin-Orbit,Spin-Spin,Magnetic field MRCI
   Miquel Garcia          : C-PCM and meta-GGA Hessian, CCSD/C-PCM, Gaussian charge scheme
   Tiago L. C. Gouveia    : GS-ROHF, GS-ROCIS
   Yang Guo               : DLPNO-NEVPT2, F12-NEVPT2, CIM, IAO-localization
   Andreas Hansen         : Spin unrestricted coupled pair/coupled cluster methods
   Ingolf Harden          : AUTO-CI MPn and infrastructure 
   Benjamin Helmich-Paris : MC-RPA, TRAH-(SCF,CASSCF), AVAS, COSX integrals, SCF dyn. polar.
   Lee Huntington         : MR-EOM, pCC
   Robert Izsak           : Overlap fitted RIJCOSX, COSX-SCS-MP3, EOM
   Riya Kayal             : Wick's Theorem for AUTO-CI, AUTO-CI UHF-CCSDT
   Emily Kempfer          : AUTO-CI, RHF CISDT and CCSDT
   Christian Kollmar      : KDIIS, OOCD, Brueckner-CCSD(T), CCSD density, CASPT2, CASPT2-K, improved NEVPT2
   Axel Koslowski         : Symmetry handling
   Simone Kossmann        : Meta GGA functionals, TD-DFT gradient, OOMP2, (MP2 Hessian; deprecated post 5.0)
   Lucas Lang             : DCDCAS
   Marvin Lechner         : AUTO-CI (C++ implementation), FIC-MRCC
   Spencer Leger          : CASSCF response
   Dagmar Lenk            : GEPOL surface, SMD, ORCA-2-JSON
   Dimitrios Liakos       : Extrapolation schemes; Compound Job, initial MDCI parallelization
   Dimitrios Manganas     : Further ROCIS development; embedding schemes. LFT, Crystal Embedding
   Dimitrios Pantazis     : SARC Basis sets
   Anastasios Papadopoulos: AUTO-CI, single reference methods and gradients
   Taras Petrenko         : pre 6.0 DFT Hessian and TD-DFT gradient, (ASA, deprecated), ECA, 1-Electron XAS/XES, NRVS
   Peter Pinski           : DLPNO-MP2, DLPNO-MP2 Gradient
   Christoph Reimann      : Effective Core Potentials
   Marius Retegan         : Local ZFS, SOC
   Christoph Riplinger    : Optimizer, TS searches, QM/MM, DLPNO-CCSD(T), (RO)-DLPNO pert. Triples
   Michael Roemelt        : Original ROCIS implementation
   Masaaki Saitow         : Open-shell DLPNO-CCSD energy and density
   Barbara Sandhoefer     : DKH picture change effects
   Kantharuban Sivalingam : CASSCF convergence/infrastructure, NEVPT2 and variants, FIC-MRCI
   Bernardo de Souza      : ESD, SOC TD-DFT
   Georgi Stoychev        : AutoAux, RI-MP2 NMR, DLPNO-MP2 response, X2C
   Van Anh Tran           : RI-MP2 g-tensors
   Willem Van den Heuvel  : Paramagnetic NMR
   Zikuan Wang            : NOTCH, Electric field optimization 
   Frank Wennmohs         : Technical directorship and infrastructure
   Hang Xu                : AUTO-CI-Response properties 


 We gratefully acknowledge several colleagues who have allowed us to
 interface, adapt or use parts of their codes:
   Stefan Grimme, W. Hujo, H. Kruse, P. Pracht,  : VdW corrections, initial TS optimization,
                  C. Bannwarth, S. Ehlert,         DFT functionals, gCP, sTDA/sTD-DF
                  L. Wittmann, M. Mueller
   Ed Valeev, F. Pavosevic, A. Kumar             : LibInt (2-el integral package), F12 methods
   Garnet Chan, S. Sharma, J. Yang, R. Olivares  : DMRG
   Ulf Ekstrom                                   : XCFun DFT Library
   Mihaly Kallay                                 : mrcc  (arbitrary order and MRCC methods)
   Frank Weinhold                                : gennbo (NPA and NBO analysis)
   Simon Mueller                                 : openCOSMO-RS
   Christopher J. Cramer and Donald G. Truhlar   : smd solvation model
   Lars Goerigk                                  : TD-DFT with DH, B97 family of functionals
   V. Asgeirsson, H. Jonsson                     : NEB implementation
   FAccTs GmbH                                   : IRC, NEB, NEB-TS, DLPNO-Multilevel, CI-OPT
                                                   MM, QMMM, 2- and 3-layer-ONIOM, Crystal-QMMM,
                                                   LR-CPCM, SF, NACMEs, symmetry and pop. for TD-DFT,
                                                   nearIR, NL-DFT gradient (VV10), updates on ESD,
                                                   ML-optimized integration grids, MBIS, APM,
                                                   GOAT, DOCKER, SOLVATOR, interface openCOSMO-RS
   S Lehtola, MJT Oliveira, MAL Marques          : LibXC Library
   Liviu Ungur et al                             : ANISO software


 Your calculation uses the libint2 library for the computation of 2-el integrals
 For citations please refer to: http://libint.valeyev.net

 Your ORCA version has been built with support for libXC version: 6.2.2
 For citations please refer to: https://libxc.gitlab.io

 This ORCA versions uses:
   CBLAS   interface :  Fast vector & matrix operations
   LAPACKE interface :  Fast linear algebra routines
   SCALAPACK package :  Parallel linear algebra routines
   Shared memory     :  Shared parallel matrices
   BLAS/LAPACK       :  OpenBLAS 0.3.27  USE64BITINT DYNAMIC_ARCH NO_AFFINITY SkylakeX SINGLE_THREADED
        Core in use  :  SkylakeX
   Copyright (c) 2011-2014, The OpenBLAS Project


Your calculation utilizes the geometrical counterpoise correction gCP
Please cite in your paper:
H.Kruse, S. Grimme J.Chem.Phys., 136, (2012), 154101 
   

Your calculation utilizes the atom-pairwise dispersion correction
based on EEQ partial charges (D4)


================================================================================

----- Orbital basis set information -----
Your calculation utilizes the basis: def2-mTZVPP
   Stefan Grimme, Andreas Hansen, Sebastian Ehlert, and Jan-Michael Mewes 
   J. Chem. Phys. 154, 064103 (2021). DOI: 10.1063/5.0040021

----- AuxJ basis set information -----
Your calculation utilizes the auxiliary basis: def2/J
   F. Weigend, Phys. Chem. Chem. Phys. 8, 1057 (2006).

================================================================================
                                        WARNINGS
                       Please study these warnings very carefully!
================================================================================

Using LibXC functional ID 497 : Re-regularized SCAN exchange by Furness et al
[ 1]  J. W. Furness, A. D. Kaplan, J. Ning, J. P. Perdew, and J. Sun.,  J. Phys. Chem. Lett. 11, 8208-8215 (2020)
[ 2]  J. W. Furness, A. D. Kaplan, J. Ning, J. P. Perdew, and J. Sun.,  J. Phys. Chem. Lett. 11, 9248-9248 (2020)
Using LibXC functional ID 498 : Re-regularized SCAN correlation by Furness et al
[ 1]  J. W. Furness, A. D. Kaplan, J. Ning, J. P. Perdew, and J. Sun.,  J. Phys. Chem. Lett. 11, 8208-8215 (2020)
[ 2]  J. W. Furness, A. D. Kaplan, J. Ning, J. P. Perdew, and J. Sun.,  J. Phys. Chem. Lett. 11, 9248-9248 (2020)
Using LibXC functional ID 497 : Re-regularized SCAN exchange by Furness et al
[ 1]  J. W. Furness, A. D. Kaplan, J. Ning, J. P. Perdew, and J. Sun.,  J. Phys. Chem. Lett. 11, 8208-8215 (2020)
[ 2]  J. W. Furness, A. D. Kaplan, J. Ning, J. P. Perdew, and J. Sun.,  J. Phys. Chem. Lett. 11, 9248-9248 (2020)
Using LibXC functional ID 498 : Re-regularized SCAN correlation by Furness et al
[ 1]  J. W. Furness, A. D. Kaplan, J. Ning, J. P. Perdew, and J. Sun.,  J. Phys. Chem. Lett. 11, 8208-8215 (2020)
[ 2]  J. W. Furness, A. D. Kaplan, J. Ning, J. P. Perdew, and J. Sun.,  J. Phys. Chem. Lett. 11, 9248-9248 (2020)

================================================================================
                                       INPUT FILE
================================================================================
NAME = sp_gas.inp
|  1> ! r2scan-3c def2/J RI DEFGRID2 scfconv6 printgap
|  2> %output
|  3>     printlevel normal
|  4> end
|  5> * xyz 0 1
|  6> C -3.6545393772 0.1851774781 0.1235180801
|  7> C -2.1639166762 0.0677973832 0.0238307355
|  8> C -1.4757238517 -0.9887520915 0.6003529104
|  9> C -0.0978353346 -1.0809258393 0.5084578376
| 10> C 0.6514588389 -0.1187831055 -0.159961088
| 11> C -0.0463954757 0.9329471106 -0.7476866267
| 12> C -1.4221915142 1.025466993 -0.6561836023
| 13> C 2.1601207808 -0.2318148099 -0.2793767499
| 14> C 2.7838274554 -0.9811984972 0.9019854374
| 15> C 2.8386956458 1.1347163507 -0.4143178193
| 16> H -3.9252456134 1.0827526826 0.678017468
| 17> H -4.0963091233 0.2611269385 -0.8686576102
| 18> H -4.0784883025 -0.6774524914 0.6306813618
| 19> H -2.0219511358 -1.7559443181 1.1312932868
| 20> H 0.386700439 -1.9262944514 0.9700416706
| 21> H 0.4807481592 1.6999505263 -1.2920199703
| 22> H -1.9307100452 1.8577540595 -1.1224231671
| 23> H 2.3726538888 -0.8052690016 -1.1923004719
| 24> H 3.8683672072 -0.9377040766 0.833403566
| 25> H 2.4971481137 -2.0288666569 0.9096285209
| 26> H 2.479439855 -0.5262036085 1.8419468012
| 27> H 3.9190105779 1.0130085932 -0.3831022133
| 28> H 2.541505258 1.7872206201 0.4037000475
| 29> H 2.5896643037 1.6157459618 -1.355901511
| 30> *
| 31> 
| 32>                          ****END OF INPUT****
================================================================================

                       ****************************
                       * Single Point Calculation *
                       ****************************

---------------------------------
CARTESIAN COORDINATES (ANGSTROEM)
---------------------------------
  C     -3.654539    0.185177    0.123518
  C     -2.163917    0.067797    0.023831
  C     -1.475724   -0.988752    0.600353
  C     -0.097835   -1.080926    0.508458
  C      0.651459   -0.118783   -0.159961
  C     -0.046395    0.932947   -0.747687
  C     -1.422192    1.025467   -0.656184
  C      2.160121   -0.231815   -0.279377
  C      2.783827   -0.981198    0.901985
  C      2.838696    1.134716   -0.414318
  H     -3.925246    1.082753    0.678017
  H     -4.096309    0.261127   -0.868658
  H     -4.078488   -0.677452    0.630681
  H     -2.021951   -1.755944    1.131293
  H      0.386700   -1.926294    0.970042
  H      0.480748    1.699951   -1.292020
  H     -1.930710    1.857754   -1.122423
  H      2.372654   -0.805269   -1.192300
  H      3.868367   -0.937704    0.833404
  H      2.497148   -2.028867    0.909629
  H      2.479440   -0.526204    1.841947
  H      3.919011    1.013009   -0.383102
  H      2.541505    1.787221    0.403700
  H      2.589664    1.615746   -1.355902

----------------------------
CARTESIAN COORDINATES (A.U.)
----------------------------
  NO LB      ZA    FRAG     MASS         X           Y           Z
   0 C     6.0000    0    12.011   -6.906079    0.349935    0.233415
   1 C     6.0000    0    12.011   -4.089210    0.128118    0.045034
   2 C     6.0000    0    12.011   -2.788714   -1.868471    1.134503
   3 C     6.0000    0    12.011   -0.184882   -2.042654    0.960846
   4 C     6.0000    0    12.011    1.231079   -0.224468   -0.302283
   5 C     6.0000    0    12.011   -0.087675    1.763015   -1.412923
   6 C     6.0000    0    12.011   -2.687552    1.937852   -1.240007
   7 C     6.0000    0    12.011    4.082037   -0.438067   -0.527946
   8 C     6.0000    0    12.011    5.260671   -1.854196    1.704505
   9 C     6.0000    0    12.011    5.364357    2.144303   -0.782947
  10 H     1.0000    0     1.008   -7.417639    2.046106    1.281267
  11 H     1.0000    0     1.008   -7.740902    0.493458   -1.641525
  12 H     1.0000    0     1.008   -7.707226   -1.280200    1.191815
  13 H     1.0000    0     1.008   -3.820934   -3.318254    2.137834
  14 H     1.0000    0     1.008    0.730758   -3.640169    1.833113
  15 H     1.0000    0     1.008    0.908482    3.212441   -2.441564
  16 H     1.0000    0     1.008   -3.648513    3.510646   -2.121072
  17 H     1.0000    0     1.008    4.483666   -1.521738   -2.253121
  18 H     1.0000    0     1.008    7.310155   -1.772004    1.574904
  19 H     1.0000    0     1.008    4.718926   -3.834002    1.718949
  20 H     1.0000    0     1.008    4.685462   -0.994381    3.480775
  21 H     1.0000    0     1.008    7.405857    1.914309   -0.723958
  22 H     1.0000    0     1.008    4.802749    3.377358    0.762883
  23 H     1.0000    0     1.008    4.893756    3.053317   -2.562283

--------------------------------
INTERNAL COORDINATES (ANGSTROEM)
--------------------------------
 C      0   0   0     0.000000000000     0.00000000     0.00000000
 C      1   0   0     1.498556535500     0.00000000     0.00000000
 C      2   1   0     1.386464559350   121.71982735     0.00000000
 C      3   2   1     1.384022207099   121.15179481   180.42509961
 C      4   3   2     1.390663244192   121.48346473     0.20700096
 C      5   4   3     1.392321227556   117.09383341   359.20528845
 C      6   5   4     1.381936131544   121.44042117     0.79637594
 C      5   4   3     1.517595836000   121.46128548   180.98538052
 C      8   5   4     1.531731877423   112.36738244   330.77501973
 C      8   5   4     1.531691990092   112.38930318   207.51161595
 H      1   2   3     1.089216546529   110.22023702   116.64176771
 H      1   2   3     1.088733865335   110.39303552   235.61339677
 H      1   2   3     1.086774010477   110.91014220   356.29071021
 H      3   2   1     1.081131741159   119.61631834     0.45317213
 H      4   3   2     1.078184882619   118.11222623   180.34923527
 H      6   5   4     1.078180615883   120.35952768   180.94355324
 H      7   6   5     1.081051427647   119.42535158   179.81442795
 H      8   5   4     1.098840185907   107.24874704    89.13596425
 H      9   8   5     1.087576071336   109.74611371   186.52183911
 H      9   8   5     1.086209940358   111.70566031    67.28119355
 H      9   8   5     1.087749753140   110.35782461   306.00901039
 H     10   8   5     1.087597142701   109.73617284   173.61710375
 H     10   8   5     1.087767060813   110.35792246    54.12787496
 H     10   8   5     1.086271579569   111.70803615   292.84860592

---------------------------
INTERNAL COORDINATES (A.U.)
---------------------------
 C      0   0   0     0.000000000000     0.00000000     0.00000000
 C      1   0   0     2.831861448292     0.00000000     0.00000000
 C      2   1   0     2.620038311559   121.71982735     0.00000000
 C      3   2   1     2.615422934683   121.15179481   180.42509961
 C      4   3   2     2.627972676033   121.48346473     0.20700096
 C      5   4   3     2.631105810526   117.09383341   359.20528845
 C      6   5   4     2.611480823188   121.44042117     0.79637594
 C      5   4   3     2.867840512019   121.46128548   180.98538052
 C      8   5   4     2.894553758927   112.36738244   330.77501973
 C      8   5   4     2.894478382794   112.38930318   207.51161595
 H      1   2   3     2.058320973475   110.22023702   116.64176771
 H      1   2   3     2.057408838208   110.39303552   235.61339677
 H      1   2   3     2.053705249264   110.91014220   356.29071021
 H      3   2   1     2.043042905481   119.61631834     0.45317213
 H      4   3   2     2.037474149885   118.11222623   180.34923527
 H      6   5   4     2.037466086921   120.35952768   180.94355324
 H      7   6   5     2.042891134938   119.42535158   179.81442795
 H      8   5   4     2.076507016312   107.24874704    89.13596425
 H      9   8   5     2.055220924631   109.74611371   186.52183911
 H      9   8   5     2.052639311219   111.70566031    67.28119355
 H      9   8   5     2.055549135676   110.35782461   306.00901039
 H     10   8   5     2.055260743741   109.73617284   173.61710375
 H     10   8   5     2.055581842437   110.35792246    54.12787496
 H     10   8   5     2.052755792447   111.70803615   292.84860592

---------------------
BASIS SET INFORMATION
---------------------
There are 2 groups of distinct atoms

 Group   1 Type C   : 11s6p1d contracted to 5s3p1d pattern {62111/411/1}
 Group   2 Type H   : 4s1p contracted to 2s1p pattern {31/1}

Atom   0C    basis set group =>   1
Atom   1C    basis set group =>   1
Atom   2C    basis set group =>   1
Atom   3C    basis set group =>   1
Atom   4C    basis set group =>   1
Atom   5C    basis set group =>   1
Atom   6C    basis set group =>   1
Atom   7C    basis set group =>   1
Atom   8C    basis set group =>   1
Atom   9C    basis set group =>   1
Atom  10H    basis set group =>   2
Atom  11H    basis set group =>   2
Atom  12H    basis set group =>   2
Atom  13H    basis set group =>   2
Atom  14H    basis set group =>   2
Atom  15H    basis set group =>   2
Atom  16H    basis set group =>   2
Atom  17H    basis set group =>   2
Atom  18H    basis set group =>   2
Atom  19H    basis set group =>   2
Atom  20H    basis set group =>   2
Atom  21H    basis set group =>   2
Atom  22H    basis set group =>   2
Atom  23H    basis set group =>   2
---------------------------------
AUXILIARY/J BASIS SET INFORMATION
---------------------------------
There are 2 groups of distinct atoms

 Group   1 Type C   : 12s5p4d2f1g contracted to 6s4p3d1f1g pattern {711111/2111/211/2/1}
 Group   2 Type H   : 5s2p1d contracted to 3s1p1d pattern {311/2/1}

Atom   0C    basis set group =>   1
Atom   1C    basis set group =>   1
Atom   2C    basis set group =>   1
Atom   3C    basis set group =>   1
Atom   4C    basis set group =>   1
Atom   5C    basis set group =>   1
Atom   6C    basis set group =>   1
Atom   7C    basis set group =>   1
Atom   8C    basis set group =>   1
Atom   9C    basis set group =>   1
Atom  10H    basis set group =>   2
Atom  11H    basis set group =>   2
Atom  12H    basis set group =>   2
Atom  13H    basis set group =>   2
Atom  14H    basis set group =>   2
Atom  15H    basis set group =>   2
Atom  16H    basis set group =>   2
Atom  17H    basis set group =>   2
Atom  18H    basis set group =>   2
Atom  19H    basis set group =>   2
Atom  20H    basis set group =>   2
Atom  21H    basis set group =>   2
Atom  22H    basis set group =>   2
Atom  23H    basis set group =>   2

Checking for AutoStart:
The File: sp_gas.gbw exists
Trying to determine its content:
     ... Fine, the file contains calculation information
     ... Fine, the calculation information was read
     ... Fine, the file contains a basis set
     ... Fine, the basis set was read
     ... Fine, the file contains a geometry
     ... Fine, the geometry was read
     ... Fine, the file contains a set of orbitals
     ... Fine, the orbitals can be read
     => possible old guess file was deleted
     => GBW file was renamed to GES file
     => GES file is set as startup file
     => Guess is set to MORead
     ... now leaving AutoStart

------------------------------------------------------------------------------
                             ORCA STARTUP CALCULATIONS
                           -- RI-GTO INTEGRALS CHOSEN --
------------------------------------------------------------------------------
------------------------------------------------------------------------------
                   ___                                                        
                  /   \      - P O W E R E D   B Y -                         
                 /     \                                                     
                 |  |  |   _    _      __       _____    __    __             
                 |  |  |  | |  | |    /  \     |  _  \  |  |  /  |          
                  \  \/   | |  | |   /    \    | | | |  |  | /  /          
                 / \  \   | |__| |  /  /\  \   | |_| |  |  |/  /          
                |  |  |   |  __  | /  /__\  \  |    /   |      \           
                |  |  |   | |  | | |   __   |  |    \   |  |\   \          
                \     /   | |  | | |  |  |  |  | |\  \  |  | \   \       
                 \___/    |_|  |_| |__|  |__|  |_| \__\ |__|  \__/        
                                                                              
                      - O R C A' S   B I G   F R I E N D -                    
                                      &                                       
                       - I N T E G R A L  F E E D E R -                       
                                                                              
 v1 FN, 2020, v2 2021, v3 2022-2024                                           
------------------------------------------------------------------------------


----------------------
SHARK INTEGRAL PACKAGE
----------------------

Number of atoms                             ...     24
Number of basis functions                   ...    260
Number of shells                            ...    132
Maximum angular momentum                    ...      2
Integral batch strategy                     ... SHARK/LIBINT Hybrid
RI-J (if used) integral strategy            ... SPLIT-RIJ (Revised 2003 algorithm where possible)
Printlevel                                  ...      1
Contraction scheme used                     ... SEGMENTED contraction
Prescreening option                         ... SCHWARTZ
   Thresh                                   ... 1.000e-10
   Tcut                                     ... 1.000e-11
   Tpresel                                  ... 1.000e-11 
Coulomb Range Separation                    ... NOT USED
Exchange Range Separation                   ... NOT USED
Multipole approximations                    ... NOT USED
Finite Nucleus Model                        ... NOT USED
CABS basis                                  ... NOT available
Auxiliary Coulomb fitting basis             ... AVAILABLE
   # of basis functions in Aux-J            ...    644
   # of shells in Aux-J                     ...    220
   Maximum angular momentum in Aux-J        ...      4
Auxiliary J/K fitting basis                 ... NOT available
Auxiliary Correlation fitting basis         ... NOT available
Auxiliary 'external' fitting basis          ... NOT available

Checking pre-screening integrals            ... done (  0.0 sec) Dimension = 132
Check shell pair data                       ... done (  0.0 sec)
Shell pair information
Shell pair cut-off parameter TPreSel        ...   1.0e-11
Total number of shell pairs                 ...      8778
Shell pairs after pre-screening             ...      7395
Total number of primitive shell pairs       ...     31637
Primitive shell pairs kept                  ...     18483
          la=0 lb=0:   2550 shell pairs
          la=1 lb=0:   2910 shell pairs
          la=1 lb=1:    858 shell pairs
          la=2 lb=0:    654 shell pairs
          la=2 lb=1:    375 shell pairs
          la=2 lb=2:     48 shell pairs

Calculating one electron integrals          ... done (  0.0 sec)
Calculating RI/J V-Matrix + Cholesky decomp.... done (  0.1 sec)
Calculating Nuclear repulsion               ... done (  0.0 sec) ENN=    506.208279640648 Eh

Diagonalization of the overlap matrix:
Smallest eigenvalue                        ... 2.353e-05
Time for diagonalization                   ...    0.006 sec
Threshold for overlap eigenvalues          ... 1.000e-07
Number of eigenvalues below threshold      ... 0
Time for construction of square roots      ...    0.019 sec
Total time needed                          ...    0.058 sec

-------------------
DFT GRID GENERATION
-------------------

General Integration Accuracy     IntAcc      ... 4.388
Radial Grid Type                 RadialGrid  ... OptM3 with GC (2021)
Angular Grid (max. ang.)         AngularGrid ... 4 (Lebedev-302)
Angular grid pruning method      GridPruning ... 4 (adaptive)
Weight generation scheme         WeightScheme... mBecke (2022)
Basis function cutoff            BFCut       ... 1.0000e-10
Integration weight cutoff        WCut        ... 1.0000e-14
Partially contracted basis set               ... off
Rotationally invariant grid construction     ... off
Angular grids for H and He will be reduced by one unit

Total number of grid points                  ...   104571
Total number of batches                      ...     1644
Average number of points per batch           ...       63
Average number of grid points per atom       ...     4357
Initializing property integral containers    ... done (  0.0 sec)

SHARK setup successfully completed in   1.6 seconds

Maximum memory used throughout the entire STARTUP-calculation: 46.1 MB
-------------------------------------------------------------------------------
                                 ORCA GUESS
                   Start orbitals & Density for SCF / CASSCF
-------------------------------------------------------------------------------

------------
SCF SETTINGS
------------
Hamiltonian:
 Density Functional     Method          .... DFT(GTOs)
  Functional kind                       .... Exchange
  Functional name                       .... Re-regularized SCAN exchange by Furness et al
  Functional family                     .... MGGA
  Functional refs                              
    [ 0] J. W. Furness, A. D. Kaplan, J. Ning, J. P. Perdew, and J. Sun.,  J. Phys. Chem. Lett. 11, 8208-8215 (2020), doi: 10.1021/acs.jpclett.0c02405
    [ 1] J. W. Furness, A. D. Kaplan, J. Ning, J. P. Perdew, and J. Sun.,  J. Phys. Chem. Lett. 11, 9248-9248 (2020), doi: 10.1021/acs.jpclett.0c03077
  Functional external parameters        .... 6
    Parameter  0 _c1        =  6.670000e-01 : c1 parameter        
    Parameter  1 _c2        =  8.000000e-01 : c2 parameter        
    Parameter  2 _d         =  1.240000e+00 : d parameter         
    Parameter  3 _k1        =  6.500000e-02 : k1 parameter        
    Parameter  4 _eta       =  1.000000e-03 : eta parameter       
    Parameter  5 _dp2       =  3.610000e-01 : dp2 parameter       
  Functional kind                       .... Correlation
  Functional name                       .... Re-regularized SCAN correlation by Furness et al
  Functional family                     .... MGGA
  Functional refs                              
    [ 0] J. W. Furness, A. D. Kaplan, J. Ning, J. P. Perdew, and J. Sun.,  J. Phys. Chem. Lett. 11, 8208-8215 (2020), doi: 10.1021/acs.jpclett.0c02405
    [ 1] J. W. Furness, A. D. Kaplan, J. Ning, J. P. Perdew, and J. Sun.,  J. Phys. Chem. Lett. 11, 9248-9248 (2020), doi: 10.1021/acs.jpclett.0c03077
  Functional external parameters        .... 1
    Parameter  0 _eta       =  1.000000e-03 : Regularization parameter
 Gradients option       PostSCFGGA      .... off
 RI-approximation to the Coulomb term is turned on
   Number of AuxJ basis functions       .... 644


General Settings:
 Integral files         IntName         .... sp_gas
 Hartree-Fock type      HFTyp           .... RHF
 Total Charge           Charge          ....    0
 Multiplicity           Mult            ....    1
 Number of Electrons    NEL             ....   74
 Basis Dimension        Dim             ....  260
 Nuclear Repulsion      ENuc            ....    506.2082796406 Eh

Convergence Acceleration:
 AO-DIIS                CNVDIIS         .... on
   Start iteration      DIISMaxIt       ....    12
   Startup error        DIISStart       ....  0.200000
   # of expansion vecs  DIISMaxEq       ....     5
   Bias factor          DIISBfac        ....   1.050
   Max. coefficient     DIISMaxC        ....  10.000
 MO-DIIS                CNVKDIIS        .... off
 Trust-Rad. Augm. Hess. CNVTRAH         .... auto
   Auto Start mean grad. ratio tolernc. ....  1.125000
   Auto Start start iteration           ....     1
   Auto Start num. interpolation iter.  ....    10
   Max. Number of Micro iterations      ....    24
   Max. Number of Macro iterations      .... Maxiter - #DIIS iter
   Number of Davidson start vectors     ....     2
   Converg. threshold    (grad. norm)   ....   3.330e-04
   Grad. Scal. Fac. for Micro threshold ....   0.100
   Minimum threshold for Micro iter.    ....   1.000e-02
   NR start threshold (gradient norm)   ....   1.000e-04
   Initial trust radius                 ....   0.400
   Minimum AH scaling param. (alpha)    ....   1.000
   Maximum AH scaling param. (alpha)    .... 1000.000
   Quad. conv. algorithm                .... NR
   White noise on init. David. guess    .... on
   Maximum white noise                  ....   0.010
   Pseudo random numbers                .... off
   Inactive MOs                         .... canonical
   Orbital update algorithm             .... Taylor
   Preconditioner                       .... Diag
   Full preconditioner red. dimension   ....   250
   COSX micro iterations for RIJONX calc.... off
 SOSCF                  CNVSOSCF        .... on
   Start iteration      SOSCFMaxIt      ....   150
   Startup grad/error   SOSCFStart      ....  0.003300
   Hessian update       SOSCFHessUp     .... L-BFGS
 Level Shifting         CNVShift        .... on
   Level shift para.    LevelShift      ....    0.2500
   Turn off err/grad.   ShiftErr        ....    0.0010
 Zerner damping         CNVZerner       .... off
 Static damping         CNVDamp         .... on
   Fraction old density DampFac         ....    0.7000
   Max. Damping (<1)    DampMax         ....    0.9800
   Min. Damping (>=0)   DampMin         ....    0.0000
   Turn off err/grad.   DampErr         ....    0.1000

SCF Procedure:
 Maximum # iterations   MaxIter         ....   125
 SCF integral mode      SCFMode         .... Direct
   Integral package                     .... SHARK and LIBINT hybrid scheme
 Reset frequency        DirectResetFreq ....    20
 Integral Threshold     Thresh          ....  1.000e-10 Eh
 Primitive CutOff       TCut            ....  1.000e-11 Eh

Convergence Tolerance:
 Convergence Check Mode ConvCheckMode   .... Total+1el-Energy
 Convergence forced     ConvForced      .... 0
 Energy Change          TolE            ....  1.000e-06 Eh
 1-El. energy change                    ....  1.000e-03 Eh
 Orbital Gradient       TolG            ....  3.330e-04
 Orbital Rotation angle TolX            ....  3.330e-04
 DIIS Error             TolErr          ....  1.000e-06

---------------------
INITIAL GUESS: MOREAD
---------------------
Guess MOs are being read from file: sp_gas.ges
Input Geometry matches current geometry (good)
Atom 0: N(Shells)= 9 and 6 - projection required
Input basis set needs projection
NBasis(read)= 168
NBasis(calc)= 260
Basis set overlap was calculated
Using GuessMode=FMatrix for the initial guess
C*T matrix was formed
Effective Fockian was calculated
Effective Fockian was diagonalized
Initial density was built
                      ------------------
                      INITIAL GUESS DONE (   0.0 sec)
                      ------------------
             **** ENERGY FILE WAS UPDATED (sp_gas.en.tmp) ****
Finished Guess after   0.3 sec
Maximum memory used throughout the entire GUESS-calculation: 19.3 MB

-------------------------------------------------------------------------------------------
                                      ORCA LEAN-SCF
                              memory conserving SCF solver
-------------------------------------------------------------------------------------------

----------------------------------------D-I-I-S--------------------------------------------
Iteration    Energy (Eh)           Delta-E    RMSDP     MaxDP     DIISErr   Damp  Time(sec)
-------------------------------------------------------------------------------------------
               ***  Starting incremental Fock matrix formation  ***
    1    -389.1940637240087995     0.00e+00  1.17e-02  4.68e-01  2.85e-01  0.700   4.0
    2    -389.2493377380288280    -5.53e-02  8.66e-03  3.42e-01  2.00e-01  0.700   3.4
                               ***Turning on AO-DIIS***
    3    -389.2883835775707553    -3.90e-02  6.13e-03  2.39e-01  1.40e-01  0.700   3.4
    4    -389.3157830876984349    -2.74e-02  4.30e-03  1.67e-01  9.81e-02  0.700   3.3
    5    -389.3349992723155424    -1.92e-02  1.00e-02  3.90e-01  6.86e-02  0.000   3.2
                              *** Initializing SOSCF ***
---------------------------------------S-O-S-C-F--------------------------------------
Iteration    Energy (Eh)           Delta-E    RMSDP     MaxDP     MaxGrad    Time(sec)
--------------------------------------------------------------------------------------
    6    -389.3799619190478438    -4.50e-02  5.06e-05  2.69e-03  1.72e-04     3.6
               *** Restarting incremental Fock matrix formation ***
    7    -389.3799626128056275    -6.94e-07  2.23e-05  1.19e-03  4.61e-05     4.0
                  *** Gradient check signals convergence ***

               *****************************************************
               *                     SUCCESS                       *
               *           SCF CONVERGED AFTER   7 CYCLES          *
               *****************************************************

             **** ENERGY FILE WAS UPDATED (sp_gas.en.tmp) ****

----------------
TOTAL SCF ENERGY
----------------

Total Energy       :       -389.37996261280563 Eh          -10595.56745 eV

Components:
Nuclear Repulsion  :        506.20827964064841 Eh           13774.62758 eV
Electronic Energy  :       -895.58824225345404 Eh          -24370.19503 eV
One Electron Energy:      -1527.20910045561186 Eh          -41557.47236 eV
Two Electron Energy:        631.62085820215782 Eh           17187.27734 eV

Virial components:
Potential Energy   :       -777.10519007303515 Eh          -21146.10727 eV
Kinetic Energy     :        387.72522746022952 Eh           10550.53982 eV
Virial Ratio       :          2.00426780367998

DFT components:
N(Alpha)           :       36.999980940201 electrons
N(Beta)            :       36.999980940201 electrons
N(Total)           :       73.999961880403 electrons
E(X)               :      -57.082965585281 Eh       
E(C)               :       -2.336684264684 Eh       
E(XC)              :      -59.419649849965 Eh       

---------------
SCF CONVERGENCE
---------------

  Last Energy change         ...    6.9376e-07  Tolerance :   1.0000e-06
  Last MAX-Density change    ...    1.1882e-03  Tolerance :   1.0000e-05
  Last RMS-Density change    ...    2.2329e-05  Tolerance :   1.0000e-06
  Last DIIS Error            ...    1.7232e-04  Tolerance :   1.0000e-06
  Last Orbital Gradient      ...    4.6148e-05  Tolerance :   3.3300e-04
  Last Orbital Rotation      ...    1.3962e-04  Tolerance :   3.3300e-04


----------------
ORBITAL ENERGIES
----------------

  NO   OCC          E(Eh)            E(eV) 
   0   2.0000     -10.040688      -273.2210 
   1   2.0000     -10.035566      -273.0816 
   2   2.0000     -10.034177      -273.0438 
   3   2.0000     -10.025329      -272.8031 
   4   2.0000     -10.025072      -272.7961 
   5   2.0000     -10.024724      -272.7866 
   6   2.0000     -10.024526      -272.7812 
   7   2.0000     -10.024384      -272.7773 
   8   2.0000     -10.017541      -272.5911 
   9   2.0000     -10.017440      -272.5884 
  10   2.0000      -0.827055       -22.5053 
  11   2.0000      -0.774216       -21.0675 
  12   2.0000      -0.721851       -19.6426 
  13   2.0000      -0.709600       -19.3092 
  14   2.0000      -0.651966       -17.7409 
  15   2.0000      -0.648822       -17.6553 
  16   2.0000      -0.570624       -15.5275 
  17   2.0000      -0.568044       -15.4573 
  18   2.0000      -0.527187       -14.3455 
  19   2.0000      -0.466022       -12.6811 
  20   2.0000      -0.432833       -11.7780 
  21   2.0000      -0.430646       -11.7185 
  22   2.0000      -0.407359       -11.0848 
  23   2.0000      -0.399040       -10.8584 
  24   2.0000      -0.389940       -10.6108 
  25   2.0000      -0.382976       -10.4213 
  26   2.0000      -0.366601        -9.9757 
  27   2.0000      -0.355953        -9.6860 
  28   2.0000      -0.341145        -9.2830 
  29   2.0000      -0.337140        -9.1740 
  30   2.0000      -0.329408        -8.9636 
  31   2.0000      -0.317961        -8.6522 
  32   2.0000      -0.304974        -8.2988 
  33   2.0000      -0.290745        -7.9116 
  34   2.0000      -0.286897        -7.8069 
  35   2.0000      -0.230081        -6.2608 
  36   2.0000      -0.212799        -5.7905 
  37   0.0000      -0.027092        -0.7372 
  38   0.0000      -0.020395        -0.5550 
  39   0.0000       0.078775         2.1436 
  40   0.0000       0.090384         2.4595 
  41   0.0000       0.106961         2.9105 
  42   0.0000       0.113766         3.0957 
  43   0.0000       0.117648         3.2014 
  44   0.0000       0.130227         3.5437 
  45   0.0000       0.131147         3.5687 
  46   0.0000       0.140431         3.8213 
  47   0.0000       0.143791         3.9128 
*Only the first 10 virtual orbitals were printed.

                    ********************************
                    * MULLIKEN POPULATION ANALYSIS *
                    ********************************

-----------------------
MULLIKEN ATOMIC CHARGES
-----------------------
   0 C :   -0.541502
   1 C :    0.210186
   2 C :   -0.239234
   3 C :   -0.201912
   4 C :    0.100569
   5 C :   -0.198226
   6 C :   -0.219318
   7 C :    0.059130
   8 C :   -0.539319
   9 C :   -0.539627
  10 H :    0.161424
  11 H :    0.158488
  12 H :    0.149691
  13 H :    0.143514
  14 H :    0.134245
  15 H :    0.134602
  16 H :    0.143195
  17 H :    0.161669
  18 H :    0.145265
  19 H :    0.142653
  20 H :    0.173193
  21 H :    0.145605
  22 H :    0.173300
  23 H :    0.142411
Sum of atomic charges:    0.0000000

--------------------------------
MULLIKEN REDUCED ORBITAL CHARGES
--------------------------------
  0 C s       :     3.375323  s :     3.375323
      pz      :     1.096559  p :     3.138900
      px      :     0.930834
      py      :     1.111507
      dz2     :     0.004390  d :     0.027279
      dxz     :     0.006072
      dyz     :     0.004414
      dx2y2   :     0.007354
      dxy     :     0.005049

  1 C s       :     3.089233  s :     3.089233
      pz      :     0.936388  p :     2.652564
      px      :     0.812153
      py      :     0.904023
      dz2     :     0.006113  d :     0.048018
      dxz     :     0.009184
      dyz     :     0.006769
      dx2y2   :     0.012726
      dxy     :     0.013225

  2 C s       :     3.175369  s :     3.175369
      pz      :     1.011244  p :     3.026126
      px      :     1.011981
      py      :     1.002902
      dz2     :     0.003803  d :     0.037739
      dxz     :     0.007827
      dyz     :     0.004797
      dx2y2   :     0.010048
      dxy     :     0.011264

  3 C s       :     3.211899  s :     3.211899
      pz      :     0.995814  p :     2.952543
      px      :     0.960889
      py      :     0.995840
      dz2     :     0.004174  d :     0.037470
      dxz     :     0.007910
      dyz     :     0.004471
      dx2y2   :     0.010055
      dxy     :     0.010860

  4 C s       :     3.198521  s :     3.198521
      pz      :     0.923651  p :     2.654131
      px      :     0.851746
      py      :     0.878733
      dz2     :     0.006025  d :     0.046779
      dxz     :     0.008793
      dyz     :     0.006657
      dx2y2   :     0.012153
      dxy     :     0.013151

  5 C s       :     3.208088  s :     3.208088
      pz      :     0.997478  p :     2.952580
      px      :     0.965460
      py      :     0.989643
      dz2     :     0.003809  d :     0.037558
      dxz     :     0.007876
      dyz     :     0.004801
      dx2y2   :     0.010019
      dxy     :     0.011053

  6 C s       :     3.204319  s :     3.204319
      pz      :     1.006173  p :     2.977406
      px      :     0.965278
      py      :     1.005955
      dz2     :     0.004192  d :     0.037593
      dxz     :     0.007960
      dyz     :     0.004489
      dx2y2   :     0.009828
      dxy     :     0.011124

  7 C s       :     2.994766  s :     2.994766
      pz      :     1.004453  p :     2.899840
      px      :     0.945926
      py      :     0.949461
      dz2     :     0.008985  d :     0.046264
      dxz     :     0.006921
      dyz     :     0.010000
      dx2y2   :     0.011679
      dxy     :     0.008679

  8 C s       :     3.369791  s :     3.369791
      pz      :     0.984486  p :     3.142511
      px      :     1.085744
      py      :     1.072282
      dz2     :     0.007824  d :     0.027017
      dxz     :     0.003455
      dyz     :     0.005239
      dx2y2   :     0.008085
      dxy     :     0.002414

  9 C s       :     3.369789  s :     3.369789
      pz      :     1.093605  p :     3.142814
      px      :     1.081564
      py      :     0.967645
      dz2     :     0.005170  d :     0.027023
      dxz     :     0.001458
      dyz     :     0.008348
      dx2y2   :     0.007608
      dxy     :     0.004438

 10 H s       :     0.820234  s :     0.820234
      pz      :     0.005644  p :     0.018342
      px      :     0.004108
      py      :     0.008590

 11 H s       :     0.823172  s :     0.823172
      pz      :     0.009678  p :     0.018340
      px      :     0.004877
      py      :     0.003784

 12 H s       :     0.832121  s :     0.832121
      pz      :     0.005290  p :     0.018188
      px      :     0.004659
      py      :     0.008238

 13 H s       :     0.836972  s :     0.836972
      pz      :     0.006131  p :     0.019515
      px      :     0.005432
      py      :     0.007951

 14 H s       :     0.845612  s :     0.845612
      pz      :     0.005715  p :     0.020143
      px      :     0.005387
      py      :     0.009041

 15 H s       :     0.845270  s :     0.845270
      pz      :     0.006252  p :     0.020128
      px      :     0.005736
      py      :     0.008140

 16 H s       :     0.837353  s :     0.837353
      pz      :     0.005586  p :     0.019452
      px      :     0.005124
      py      :     0.008741

 17 H s       :     0.820778  s :     0.820778
      pz      :     0.008521  p :     0.017553
      px      :     0.003651
      py      :     0.005381

 18 H s       :     0.836437  s :     0.836437
      pz      :     0.003629  p :     0.018298
      px      :     0.010957
      py      :     0.003712

 19 H s       :     0.838833  s :     0.838833
      pz      :     0.003660  p :     0.018514
      px      :     0.004353
      py      :     0.010501

 20 H s       :     0.808698  s :     0.808698
      pz      :     0.009131  p :     0.018109
      px      :     0.004184
      py      :     0.004794

 21 H s       :     0.836103  s :     0.836103
      pz      :     0.003755  p :     0.018292
      px      :     0.010903
      py      :     0.003634

 22 H s       :     0.808595  s :     0.808595
      pz      :     0.007679  p :     0.018105
      px      :     0.004146
      py      :     0.006280

 23 H s       :     0.839075  s :     0.839075
      pz      :     0.009113  p :     0.018513
      px      :     0.004227
      py      :     0.005173


------------------------
MULLIKEN OVERLAP CHARGES
------------------------
B(  0-C ,  1-C ) :   0.3252 B(  0-C ,  2-C ) :  -0.0851 B(  0-C ,  6-C ) :  -0.0890 
B(  0-C , 10-H ) :   0.8450 B(  0-C , 11-H ) :   0.8468 B(  0-C , 12-H ) :   0.8601 
B(  1-C ,  2-C ) :   0.9587 B(  1-C ,  3-C ) :  -0.1490 B(  1-C ,  5-C ) :  -0.1128 
B(  1-C ,  6-C ) :   0.9039 B(  1-C , 10-H ) :  -0.0974 B(  1-C , 11-H ) :  -0.1065 
B(  1-C , 12-H ) :  -0.1378 B(  1-C , 13-H ) :  -0.0915 B(  1-C , 16-H ) :  -0.1020 
B(  2-C ,  3-C ) :   0.7329 B(  2-C ,  4-C ) :  -0.2037 B(  2-C ,  5-C ) :  -0.2875 
B(  2-C ,  6-C ) :   0.0933 B(  2-C ,  7-C ) :   0.0847 B(  2-C , 13-H ) :   0.7811 
B(  3-C ,  4-C ) :   1.0545 B(  3-C ,  5-C ) :   0.0899 B(  3-C ,  6-C ) :  -0.2892 
B(  3-C ,  7-C ) :  -0.2054 B(  3-C , 14-H ) :   0.8192 B(  4-C ,  5-C ) :   1.0364 
B(  4-C ,  6-C ) :  -0.2040 B(  4-C ,  8-C ) :  -0.0975 B(  4-C ,  9-C ) :  -0.0930 
B(  4-C , 14-H ) :  -0.1109 B(  4-C , 15-H ) :  -0.1100 B(  4-C , 19-H ) :  -0.0540 
B(  4-C , 23-H ) :  -0.0548 B(  5-C ,  6-C ) :   0.7845 B(  5-C ,  7-C ) :  -0.2061 
B(  5-C , 15-H ) :   0.8182 B(  6-C ,  7-C ) :   0.0857 B(  6-C , 16-H ) :   0.8072 
B(  7-C ,  8-C ) :   0.4512 B(  7-C ,  9-C ) :   0.4413 B(  7-C , 17-H ) :   0.7233 
B(  7-C , 18-H ) :  -0.1135 B(  7-C , 20-H ) :  -0.1488 B(  7-C , 21-H ) :  -0.1138 
B(  7-C , 22-H ) :  -0.1474 B(  8-C ,  9-C ) :  -0.2605 B(  8-C , 18-H ) :   0.8229 
B(  8-C , 19-H ) :   0.7549 B(  8-C , 20-H ) :   0.8972 B(  9-C , 21-H ) :   0.8233 
B(  9-C , 22-H ) :   0.8967 B(  9-C , 23-H ) :   0.7536 B( 10-H , 11-H ) :  -0.0524 



                     *******************************
                     * LOEWDIN POPULATION ANALYSIS *
                     *******************************

----------------------
LOEWDIN ATOMIC CHARGES
----------------------
   0 C :   -0.391125
   1 C :   -0.104361
   2 C :   -0.165070
   3 C :   -0.154953
   4 C :   -0.087494
   5 C :   -0.153687
   6 C :   -0.160998
   7 C :   -0.216055
   8 C :   -0.410970
   9 C :   -0.410984
  10 H :    0.164074
  11 H :    0.163390
  12 H :    0.158272
  13 H :    0.166319
  14 H :    0.169393
  15 H :    0.169297
  16 H :    0.167571
  17 H :    0.168399
  18 H :    0.153232
  19 H :    0.151085
  20 H :    0.160228
  21 H :    0.153266
  22 H :    0.160182
  23 H :    0.150989

-------------------------------
LOEWDIN REDUCED ORBITAL CHARGES
-------------------------------
  0 C s       :     2.955200  s :     2.955200
      pz      :     1.154251  p :     3.372336
      px      :     1.062950
      py      :     1.155136
      dz2     :     0.010563  d :     0.063589
      dxz     :     0.013442
      dyz     :     0.011425
      dx2y2   :     0.017078
      dxy     :     0.011080

  1 C s       :     2.867226  s :     2.867226
      pz      :     1.002089  p :     3.137974
      px      :     1.062693
      py      :     1.073192
      dz2     :     0.011453  d :     0.099161
      dxz     :     0.017454
      dyz     :     0.014038
      dx2y2   :     0.028042
      dxy     :     0.028173

  2 C s       :     2.897051  s :     2.897051
      pz      :     1.023734  p :     3.185216
      px      :     1.095159
      py      :     1.066323
      dz2     :     0.007000  d :     0.082803
      dxz     :     0.016366
      dyz     :     0.009819
      dx2y2   :     0.023270
      dxy     :     0.026347

  3 C s       :     2.892910  s :     2.892910
      pz      :     1.020581  p :     3.179814
      px      :     1.091273
      py      :     1.067959
      dz2     :     0.007644  d :     0.082229
      dxz     :     0.016561
      dyz     :     0.009147
      dx2y2   :     0.023555
      dxy     :     0.025322

  4 C s       :     2.866000  s :     2.866000
      pz      :     1.000928  p :     3.124379
      px      :     1.056840
      py      :     1.066611
      dz2     :     0.011365  d :     0.097116
      dxz     :     0.016849
      dyz     :     0.013867
      dx2y2   :     0.027061
      dxy     :     0.027974

  5 C s       :     2.892753  s :     2.892753
      pz      :     1.020446  p :     3.178475
      px      :     1.092641
      py      :     1.065388
      dz2     :     0.007036  d :     0.082459
      dxz     :     0.016538
      dyz     :     0.009833
      dx2y2   :     0.023221
      dxy     :     0.025832

  6 C s       :     2.896689  s :     2.896689
      pz      :     1.023460  p :     3.181858
      px      :     1.092287
      py      :     1.066111
      dz2     :     0.007764  d :     0.082451
      dxz     :     0.016778
      dyz     :     0.009148
      dx2y2   :     0.022933
      dxy     :     0.025827

  7 C s       :     2.895339  s :     2.895339
      pz      :     1.101903  p :     3.226196
      px      :     1.046125
      py      :     1.078167
      dz2     :     0.018784  d :     0.094520
      dxz     :     0.013374
      dyz     :     0.021242
      dx2y2   :     0.023609
      dxy     :     0.017510

  8 C s       :     2.969505  s :     2.969505
      pz      :     1.106845  p :     3.378215
      px      :     1.138045
      py      :     1.133325
      dz2     :     0.018063  d :     0.063250
      dxz     :     0.007814
      dyz     :     0.012172
      dx2y2   :     0.019734
      dxy     :     0.005467

  9 C s       :     2.969541  s :     2.969541
      pz      :     1.154660  p :     3.378185
      px      :     1.134957
      py      :     1.088567
      dz2     :     0.012848  d :     0.063259
      dxz     :     0.003378
      dyz     :     0.019295
      dx2y2   :     0.017728
      dxy     :     0.010010

 10 H s       :     0.792335  s :     0.792335
      pz      :     0.013308  p :     0.043591
      px      :     0.009069
      py      :     0.021213

 11 H s       :     0.793072  s :     0.793072
      pz      :     0.024268  p :     0.043538
      px      :     0.010969
      py      :     0.008301

 12 H s       :     0.798580  s :     0.798580
      pz      :     0.012338  p :     0.043148
      px      :     0.010420
      py      :     0.020390

 13 H s       :     0.789214  s :     0.789214
      pz      :     0.013803  p :     0.044467
      px      :     0.012310
      py      :     0.018354

 14 H s       :     0.784969  s :     0.784969
      pz      :     0.012788  p :     0.045638
      px      :     0.012030
      py      :     0.020820

 15 H s       :     0.785093  s :     0.785093
      pz      :     0.014116  p :     0.045610
      px      :     0.012844
      py      :     0.018650

 16 H s       :     0.788002  s :     0.788002
      pz      :     0.012575  p :     0.044427
      px      :     0.011607
      py      :     0.020245

 17 H s       :     0.788391  s :     0.788391
      pz      :     0.021090  p :     0.043210
      px      :     0.008851
      py      :     0.013270

 18 H s       :     0.803228  s :     0.803228
      pz      :     0.008081  p :     0.043540
      px      :     0.027326
      py      :     0.008133

 19 H s       :     0.804786  s :     0.804786
      pz      :     0.008259  p :     0.044129
      px      :     0.009835
      py      :     0.026034

 20 H s       :     0.795931  s :     0.795931
      pz      :     0.022931  p :     0.043840
      px      :     0.009459
      py      :     0.011450

 21 H s       :     0.803195  s :     0.803195
      pz      :     0.008185  p :     0.043538
      px      :     0.027179
      py      :     0.008174

 22 H s       :     0.795986  s :     0.795986
      pz      :     0.019184  p :     0.043832
      px      :     0.009370
      py      :     0.015279

 23 H s       :     0.804888  s :     0.804888
      pz      :     0.022509  p :     0.044122
      px      :     0.009500
      py      :     0.012114


---------------------------------
LOEWDIN BOND ORDERS (THRESH 0.050000)
---------------------------------
B(  0-C ,  1-C ) :   1.1129 B(  0-C ,  2-C ) :   0.0891 B(  0-C ,  6-C ) :   0.0874 
B(  0-C , 10-H ) :   0.9130 B(  0-C , 11-H ) :   0.9143 B(  0-C , 12-H ) :   0.9203 
B(  1-C ,  2-C ) :   1.4508 B(  1-C ,  3-C ) :   0.0911 B(  1-C ,  4-C ) :   0.1213 
B(  1-C ,  5-C ) :   0.0909 B(  1-C ,  6-C ) :   1.4368 B(  1-C , 13-H ) :   0.0524 
B(  1-C , 16-H ) :   0.0523 B(  2-C ,  3-C ) :   1.5058 B(  2-C ,  4-C ) :   0.0893 
B(  2-C ,  5-C ) :   0.1259 B(  2-C ,  6-C ) :   0.0868 B(  2-C , 13-H ) :   0.8680 
B(  2-C , 14-H ) :   0.0553 B(  3-C ,  4-C ) :   1.4386 B(  3-C ,  5-C ) :   0.0864 
B(  3-C ,  6-C ) :   0.1296 B(  3-C ,  7-C ) :   0.0801 B(  3-C , 13-H ) :   0.0551 
B(  3-C , 14-H ) :   0.8595 B(  4-C ,  5-C ) :   1.4243 B(  4-C ,  6-C ) :   0.0898 
B(  4-C ,  7-C ) :   1.0376 B(  4-C ,  8-C ) :   0.0660 B(  4-C ,  9-C ) :   0.0660 
B(  4-C , 14-H ) :   0.0507 B(  4-C , 15-H ) :   0.0504 B(  5-C ,  6-C ) :   1.5236 
B(  5-C ,  7-C ) :   0.0797 B(  5-C , 15-H ) :   0.8595 B(  5-C , 16-H ) :   0.0552 
B(  6-C , 15-H ) :   0.0556 B(  6-C , 16-H ) :   0.8670 B(  7-C ,  8-C ) :   1.0983 
B(  7-C ,  9-C ) :   1.0984 B(  7-C , 17-H ) :   0.8473 B(  8-C ,  9-C ) :   0.0731 
B(  8-C , 18-H ) :   0.9209 B(  8-C , 19-H ) :   0.9229 B(  8-C , 20-H ) :   0.9206 
B(  9-C , 21-H ) :   0.9209 B(  9-C , 22-H ) :   0.9206 B(  9-C , 23-H ) :   0.9229 


------------------------------------------
LOEWDIN REDUCED ORBITAL POPULATIONS PER MO
-------------------------------------------
THRESHOLD FOR PRINTING IS 0.1%%
                      0         1         2         3         4         5   
                 -10.04069 -10.03557 -10.03418 -10.02533 -10.02507 -10.02472
                   2.00000   2.00000   2.00000   2.00000   2.00000   2.00000
                  --------  --------  --------  --------  --------  --------
 1 C  s               0.0      99.5       0.0       0.0       0.1       0.1
 2 C  s               0.0       0.1       0.0       0.1      75.4       0.0
 3 C  s               0.0       0.0       0.1       0.1      24.0       0.0
 3 C  px              0.0       0.0       0.0       0.0       0.1       0.0
 4 C  s               0.0       0.0      99.4       0.1       0.0       0.0
 5 C  s               0.0       0.0       0.1      80.2       0.2      19.2
 5 C  px              0.0       0.0       0.0       0.0       0.0       0.1
 6 C  s               0.0       0.1       0.0      19.2       0.0      80.4
 6 C  px              0.0       0.0       0.0       0.1       0.0       0.0
 7 C  s              99.6       0.0       0.0       0.0       0.0       0.0

                      6         7         8         9        10        11   
                 -10.02453 -10.02438 -10.01754 -10.01744  -0.82705  -0.77422
                   2.00000   2.00000   2.00000   2.00000   2.00000   2.00000
                  --------  --------  --------  --------  --------  --------
 0 C  s               0.0      99.7       0.0       0.0       2.3       4.4
 0 C  px              0.0       0.0       0.0       0.0       1.3       1.1
 1 C  s               0.0       0.0       0.0       0.0      11.9       9.8
 1 C  px              0.0       0.1       0.0       0.0       1.4       0.1
 2 C  s              24.1       0.0       0.0       0.0      10.4       3.3
 2 C  pz              0.0       0.0       0.0       0.0       0.6       0.2
 2 C  px              0.1       0.0       0.0       0.0       0.5       1.0
 2 C  py              0.0       0.0       0.0       0.0       1.3       0.9
 3 C  s              75.5       0.0       0.0       0.0      11.0       0.1
 3 C  pz              0.0       0.0       0.0       0.0       0.5       0.2
 3 C  px              0.0       0.0       0.0       0.0       0.3       3.3
 3 C  py              0.0       0.0       0.0       0.0       1.6       0.2
 4 C  s               0.1       0.0       0.0       0.0      13.6       6.1
 4 C  px              0.0       0.0       0.0       0.0       0.9       4.7
 4 C  dyz             0.0       0.0       0.0       0.0       0.1       0.0
 5 C  s               0.0       0.0       0.0       0.0      11.0       0.1
 5 C  pz              0.0       0.0       0.0       0.0       0.7       0.0
 5 C  px              0.0       0.0       0.0       0.0       0.3       3.3
 5 C  py              0.0       0.0       0.0       0.0       1.4       0.4
 6 C  s               0.0       0.0       0.0       0.0      10.5       3.4
 6 C  pz              0.0       0.0       0.0       0.0       0.5       0.4
 6 C  px              0.0       0.0       0.0       0.0       0.4       1.1
 6 C  py              0.0       0.0       0.0       0.0       1.5       0.6
 7 C  s               0.0       0.0       0.0       0.0       4.3      19.5
 7 C  pz              0.0       0.0       0.0       0.1       0.1       0.3
 7 C  px              0.0       0.0       0.0       0.0       1.1       0.0
 7 C  py              0.0       0.0       0.1       0.0       0.0       0.1
 8 C  s               0.0       0.0       0.1      99.6       1.1       8.6
 8 C  pz              0.0       0.0       0.0       0.0       0.3       1.3
 8 C  px              0.0       0.0       0.0       0.0       0.3       0.4
 8 C  py              0.0       0.0       0.0       0.0       0.1       0.7
 9 C  s               0.0       0.0      99.6       0.1       1.1       8.6
 9 C  px              0.0       0.0       0.0       0.0       0.3       0.4
 9 C  py              0.0       0.0       0.0       0.0       0.4       1.8
10 H  s               0.0       0.0       0.0       0.0       0.2       0.6
11 H  s               0.0       0.0       0.0       0.0       0.2       0.6
12 H  s               0.0       0.0       0.0       0.0       0.3       0.6
13 H  s               0.0       0.0       0.0       0.0       0.9       0.4
14 H  s               0.0       0.0       0.0       0.0       1.0       0.1
15 H  s               0.0       0.0       0.0       0.0       1.0       0.1
16 H  s               0.0       0.0       0.0       0.0       1.0       0.4
17 H  s               0.0       0.0       0.0       0.0       0.4       2.5
17 H  pz              0.0       0.0       0.0       0.0       0.0       0.2
18 H  s               0.0       0.0       0.0       0.0       0.1       1.2
19 H  s               0.0       0.0       0.0       0.0       0.1       1.1
20 H  s               0.0       0.0       0.0       0.0       0.1       1.1
21 H  s               0.0       0.0       0.0       0.0       0.1       1.2
22 H  s               0.0       0.0       0.0       0.0       0.1       1.1
23 H  s               0.0       0.0       0.0       0.0       0.1       1.1

                     12        13        14        15        16        17   
                  -0.72185  -0.70960  -0.65197  -0.64882  -0.57062  -0.56804
                   2.00000   2.00000   2.00000   2.00000   2.00000   2.00000
                  --------  --------  --------  --------  --------  --------
 0 C  s              15.3       0.0       0.0      19.9       3.8       0.0
 0 C  pz              0.0       0.1       0.0       0.0       0.0       0.5
 0 C  px              0.7       0.0       0.0       1.2       3.1       0.0
 0 C  py              0.0       0.2       0.0       0.0       0.0       1.2
 1 C  s               8.1       0.0       0.0       0.8       5.0       0.0
 1 C  pz              0.0       2.7       0.3       0.1       0.0       4.3
 1 C  px              4.9       0.0       0.0      11.7       1.1       0.0
 1 C  py              0.0       6.8       0.7       0.1       0.0      10.9
 1 C  dx2y2           0.0       0.0       0.0       0.2       0.1       0.0
 1 C  dxy             0.0       0.2       0.0       0.0       0.0       0.1
 2 C  s               0.0      13.8       1.1       4.3       0.0       6.0
 2 C  pz              0.1       0.1       0.0       0.1       0.6       0.1
 2 C  px              4.7       1.7       0.0       0.0       4.0       5.9
 2 C  py              0.6       0.6       0.0       0.2       2.5       0.1
 2 C  dx2y2           0.0       0.1       0.0       0.0       0.1       0.0
 3 C  s               5.0      13.9       0.0       0.4       3.7       6.5
 3 C  pz              0.3       0.3       0.0       0.6       0.6       0.0
 3 C  px              0.1       1.7       1.0       4.5       0.4       4.7
 3 C  py              0.5       0.4       0.0       0.6       1.0       0.3
 3 C  dx2y2           0.0       0.1       0.0       0.1       0.0       0.0
 4 C  s               4.8       0.0       0.0       8.7       1.6       0.0
 4 C  pz              0.0       2.8       0.2       0.0       0.3       3.7
 4 C  px              4.6       0.0       0.0       0.0       6.4       0.0
 4 C  py              0.0       7.2       0.5       0.0       0.1       9.8
 4 C  dx2y2           0.0       0.0       0.0       0.0       0.1       0.0
 4 C  dxy             0.0       0.2       0.0       0.0       0.0       0.2
 5 C  s               4.8      14.1       0.0       0.3       3.1       7.1
 5 C  pz              0.2       0.1       0.0       0.2       0.3       0.2
 5 C  px              0.1       1.6       0.8       4.5       0.5       4.7
 5 C  py              0.6       0.6       0.0       1.2       1.3       0.1
 5 C  dx2y2           0.0       0.1       0.0       0.1       0.0       0.0
 6 C  s               0.0      13.7       0.9       4.5       0.0       6.0
 6 C  pz              0.3       0.3       0.0       0.1       1.0       0.0
 6 C  px              4.8       1.9       0.0       0.0       3.7       6.4
 6 C  py              0.2       0.4       0.0       0.1       1.7       0.2
 6 C  dx2y2           0.0       0.1       0.0       0.0       0.1       0.0
 7 C  s               4.9       0.0       0.0       0.0       7.5       0.0
 7 C  pz              0.2       0.2       4.1       0.3       1.7       0.0
 7 C  px              3.6       0.0       0.0       5.3       3.1       0.0
 7 C  py              0.1       0.6      10.7       0.0       0.6       0.0
 7 C  dz2             0.0       0.0       0.1       0.0       0.0       0.0
 7 C  dxy             0.0       0.0       0.1       0.0       0.0       0.0
 8 C  s               5.8       0.4      21.2       3.3       3.8       1.1
 8 C  pz              0.3       0.0       0.3       0.0       2.3       0.1
 8 C  px              0.0       0.1       0.0       0.3       1.0       0.4
 8 C  py              0.3       0.0       0.7       0.0       0.3       0.0
 9 C  s               5.8       0.4      22.0       2.5       4.0       0.9
 9 C  pz              0.0       0.0       0.2       0.0       0.1       0.0
 9 C  px              0.0       0.1       0.0       0.3       1.2       0.3
 9 C  py              0.5       0.0       0.8       0.0       2.6       0.1
10 H  s               2.6       0.0       0.0       5.0       1.7       0.0
10 H  pz              0.1       0.0       0.0       0.1       0.0       0.0
10 H  py              0.2       0.0       0.0       0.3       0.1       0.0
11 H  s               2.6       0.0       0.0       5.0       1.7       0.0
11 H  pz              0.2       0.0       0.0       0.4       0.1       0.0
12 H  s               2.6       0.0       0.0       5.0       1.7       0.3
12 H  py              0.1       0.0       0.0       0.3       0.1       0.0
13 H  s               0.0       2.5       0.3       0.7       0.0       3.6
13 H  py              0.0       0.1       0.0       0.0       0.0       0.2
14 H  s               0.6       2.6       0.0       0.1       2.0       3.5
14 H  py              0.0       0.1       0.0       0.0       0.1       0.2
15 H  s               0.6       2.7       0.0       0.1       1.6       3.8
15 H  py              0.0       0.1       0.0       0.0       0.0       0.2
16 H  s               0.0       2.5       0.2       0.8       0.1       3.5
16 H  py              0.0       0.1       0.0       0.0       0.0       0.2
17 H  s               0.8       0.0       0.0       0.0       3.4       0.0
17 H  pz              0.1       0.0       0.0       0.0       0.2       0.0
18 H  s               1.1       0.1       4.6       1.1       2.1       0.5
18 H  px              0.1       0.0       0.4       0.1       0.1       0.0
19 H  s               0.9       0.1       5.7       0.7       1.5       0.2
19 H  py              0.1       0.0       0.4       0.0       0.1       0.0
20 H  s               0.9       0.1       4.8       0.7       1.8       0.3
20 H  pz              0.1       0.0       0.3       0.0       0.1       0.0
21 H  s               1.1       0.0       4.8       0.8       2.2       0.4
21 H  px              0.1       0.0       0.4       0.1       0.1       0.0
22 H  s               0.9       0.1       5.0       0.5       1.9       0.2
22 H  pz              0.0       0.0       0.3       0.0       0.1       0.0
22 H  py              0.0       0.0       0.1       0.0       0.0       0.0
23 H  s               0.9       0.1       5.8       0.5       1.6       0.2
23 H  pz              0.1       0.0       0.4       0.0       0.1       0.0

                     18        19        20        21        22        23   
                  -0.52719  -0.46602  -0.43283  -0.43065  -0.40736  -0.39904
                   2.00000   2.00000   2.00000   2.00000   2.00000   2.00000
                  --------  --------  --------  --------  --------  --------
 0 C  s               0.3       0.8       0.0       0.1       0.1       0.2
 0 C  pz              0.0       0.0       3.1       0.0       0.1       0.1
 0 C  px              0.9       6.7       0.1       3.0       0.7      10.7
 0 C  py              0.0       0.1       7.5       0.3       0.1       0.2
 0 C  dx2y2           0.0       0.1       0.0       0.1       0.0       0.1
 1 C  s               2.5       1.5       0.0       1.5       2.1       0.4
 1 C  pz              0.0       0.0       3.2       0.0       0.1       0.0
 1 C  px              0.3       3.1       0.0       0.8       0.2       9.2
 1 C  py              0.0       0.0       8.0       0.2       0.0       0.0
 1 C  dx2y2           0.0       0.1       0.0       0.0       0.1       0.0
 2 C  s               2.2       0.2       0.1       0.7       1.2       0.3
 2 C  pz              2.2       1.0       0.2       0.7       1.7       0.5
 2 C  px              0.4       4.5       9.4       0.3       2.6       1.0
 2 C  py              6.6       1.2       1.7       0.7       5.8       1.2
 2 C  dxz             0.0       0.0       0.0       0.0       0.1       0.0
 2 C  dxy             0.0       0.0       0.0       0.1       0.3       0.0
 3 C  s               0.6       0.2       0.0       0.6       1.2       0.5
 3 C  pz              2.3       1.2       0.9       0.0       2.8       0.1
 3 C  px              1.7       4.4       9.9       2.5       0.4       1.5
 3 C  py              6.3       2.8       1.2       2.0       3.7       0.0
 3 C  dxz             0.0       0.0       0.0       0.0       0.1       0.0
 3 C  dx2y2           0.1       0.0       0.0       0.0       0.0       0.1
 3 C  dxy             0.0       0.0       0.0       0.0       0.3       0.0
 4 C  s               2.6       0.8       0.0       0.3       3.5       0.5
 4 C  pz              0.3       0.2       3.9       1.6       0.8       0.0
 4 C  px              4.7       5.2       0.0       0.7       0.4       3.6
 4 C  py              0.2       0.1       8.2       1.5       0.2       0.0
 4 C  dx2y2           0.0       0.1       0.0       0.1       0.0       0.2
 5 C  s               0.6       0.2       0.0       0.6       1.3       0.5
 5 C  pz              2.6       0.9       0.1       2.0       1.1       0.0
 5 C  px              1.4       4.7      11.4       0.9       0.3       1.6
 5 C  py              6.3       2.7       1.4       0.6       5.9       0.1
 5 C  dx2y2           0.1       0.0       0.1       0.0       0.0       0.1
 5 C  dxy             0.0       0.0       0.0       0.1       0.3       0.0
 6 C  s               2.3       0.2       0.2       0.6       1.3       0.3
 6 C  pz              2.7       0.4       1.0       0.0       2.5       0.5
 6 C  px              0.6       4.2       9.4       0.1       2.8       0.9
 6 C  py              5.9       2.1       1.3       0.8       4.9       1.4
 6 C  dxz             0.0       0.0       0.0       0.0       0.1       0.0
 6 C  dxy             0.0       0.0       0.0       0.0       0.3       0.0
 7 C  s               5.8       1.3       0.0       0.5       0.5       0.1
 7 C  pz              2.3       2.8       1.5      12.0       2.6       0.2
 7 C  px              0.1       9.1       0.0       0.4       1.5       6.4
 7 C  py              0.9       1.3       1.3       5.8       0.8       0.1
 8 C  s               1.5       0.1       0.2       0.1       0.2       0.1
 8 C  pz              3.1       4.3       0.5       0.9       0.2       2.2
 8 C  px              0.7       2.1       2.2       0.6       1.3       8.9
 8 C  py              0.2       0.2       0.2      13.0       4.2       5.5
 9 C  s               1.5       0.1       0.2       0.1       0.1       0.1
 9 C  pz              0.2       0.2       0.5      12.5       2.8       2.3
 9 C  px              0.7       1.9       1.8       1.5       1.2       8.0
 9 C  py              2.9       4.6       0.3       0.9       1.5       6.2
 9 C  dz2             0.0       0.0       0.0       0.0       0.0       0.1
10 H  s               0.2       1.1       0.5       0.5       0.0       1.2
11 H  s               0.2       1.1       0.9       0.3       0.1       0.9
12 H  s               0.3       0.9       3.6       0.2       0.1       0.8
13 H  s               3.5       1.8       0.0       1.1       8.2       0.6
13 H  px              0.1       0.0       0.1       0.0       0.0       0.0
13 H  py              0.1       0.1       0.0       0.0       0.1       0.0
14 H  s               1.8       2.6       0.0       2.9       5.3       0.2
14 H  py              0.0       0.1       0.0       0.0       0.1       0.0
15 H  s               1.7       2.6       0.2       2.8       5.5       0.2
16 H  s               3.5       1.9       0.0       1.1       8.3       0.6
16 H  px              0.1       0.0       0.1       0.0       0.0       0.0
16 H  py              0.1       0.1       0.0       0.0       0.2       0.0
17 H  s               4.3       4.1       0.0       4.3       0.3       0.0
17 H  pz              0.2       0.2       0.0       0.1       0.0       0.0
18 H  s               1.0       0.4       1.0       0.3       0.7       3.8
19 H  s               0.6       0.5       0.1       4.6       1.4       4.4
19 H  py              0.0       0.0       0.0       0.1       0.0       0.1
20 H  s               1.4       1.5       0.1       1.6       0.1       0.8
21 H  s               1.0       0.4       0.8       0.7       0.6       3.7
22 H  s               1.4       1.5       0.3       1.4       0.1       0.8
22 H  py              0.0       0.0       0.0       0.1       0.0       0.0
23 H  s               0.6       0.5       0.0       4.6       1.4       4.4
23 H  pz              0.0       0.0       0.0       0.1       0.0       0.1

                     24        25        26        27        28        29   
                  -0.38994  -0.38298  -0.36660  -0.35595  -0.34115  -0.33714
                   2.00000   2.00000   2.00000   2.00000   2.00000   2.00000
                  --------  --------  --------  --------  --------  --------
 0 C  s               0.0       0.0       0.0       0.0       0.0       0.2
 0 C  pz             33.4       0.1       4.6       3.7       2.8       2.4
 0 C  px              0.7       0.0       0.0       0.0       0.1       7.5
 0 C  py             12.6       0.2      12.1       9.7       7.1       1.4
 0 C  dz2             0.1       0.0       0.0       0.0       0.0       0.0
 0 C  dyz             0.1       0.0       0.1       0.1       0.1       0.0
 0 C  dx2y2           0.1       0.0       0.0       0.0       0.0       0.1
 1 C  pz             10.1       0.9       0.0       0.0       0.1       1.0
 1 C  px              0.0       0.0       0.0       0.0       0.0       7.7
 1 C  py              4.0       2.3       0.0       0.0       0.3       0.5
 1 C  dxz             0.1       0.1       0.0       0.0       0.0       0.0
 1 C  dx2y2           0.0       0.0       0.0       0.0       0.0       0.2
 1 C  dxy             0.0       0.4       0.1       0.1       0.0       0.0
 2 C  s               0.0       0.5       0.5       0.2       0.0       0.1
 2 C  pz              2.8       3.5       0.0       0.2       0.1       3.1
 2 C  px              0.0       3.0       0.0       1.2       3.8       1.0
 2 C  py              0.5       7.7       0.1       0.1       0.2       0.2
 2 C  dx2y2           0.0       0.1       0.0       0.0       0.0       0.1
 3 C  s               0.0       0.6       0.3       0.1       0.0       0.1
 3 C  pz              0.5       2.9       0.4       0.1       0.2       2.2
 3 C  px              0.0       2.3       0.2       0.6       4.1       0.8
 3 C  py              0.4       9.7       0.8       0.4       0.0       4.9
 3 C  dx2y2           0.0       0.1       0.0       0.0       0.0       0.0
 4 C  s               0.0       0.0       0.0       0.0       0.0       0.3
 4 C  pz              0.3       1.1       0.1       0.3       0.9       6.4
 4 C  px              0.0       0.0       0.0       0.0       0.0       3.9
 4 C  py              0.1       2.9       0.2       0.8       2.4       2.7
 4 C  dxz             0.0       0.2       0.0       0.0       0.0       0.0
 4 C  dxy             0.0       0.4       0.0       0.0       0.0       0.0
 5 C  s               0.0       0.6       0.2       0.1       0.0       0.1
 5 C  pz              0.8       4.0       0.3       0.3       0.0       6.5
 5 C  px              0.0       2.8       0.2       0.6       4.6       0.7
 5 C  py              0.1       8.0       0.8       0.2       0.2       0.3
 5 C  dx2y2           0.0       0.1       0.0       0.0       0.0       0.0
 6 C  s               0.0       0.5       0.4       0.1       0.0       0.1
 6 C  pz              2.4       2.9       0.0       0.0       0.0       0.9
 6 C  px              0.0       2.6       0.0       1.1       4.0       0.9
 6 C  py              1.6       9.0       0.0       0.2       0.2       2.1
 6 C  dx2y2           0.0       0.1       0.0       0.0       0.1       0.2
 7 C  s               0.0       0.0       0.0       0.0       0.0       0.2
 7 C  pz              0.1       0.0       3.0       0.0       0.5       0.7
 7 C  px              0.0       0.0       0.0       0.0       0.0       4.4
 7 C  py              0.0       0.1       8.0       0.0       1.2       0.2
 7 C  dx2y2           0.0       0.0       0.0       0.0       0.0       0.3
 8 C  s               0.0       0.1       0.0       0.0       0.0       0.1
 8 C  pz              0.0       0.1      10.4       7.8       0.3       1.8
 8 C  px              0.0       1.2       3.5       5.3      15.5       5.8
 8 C  py              0.2       0.6       3.0       6.5       0.1       1.5
 8 C  dz2             0.0       0.0       0.0       0.2       0.1       0.0
 8 C  dx2y2           0.0       0.0       0.0       0.0       0.2       0.2
 9 C  s               0.0       0.1       0.1       0.0       0.0       0.1
 9 C  pz              0.3       0.7       9.1      12.1       0.0       3.0
 9 C  px              0.0       1.1       3.9       5.7      15.5       5.2
 9 C  py              0.0       0.0       4.4       2.1       0.7       0.4
 9 C  dyz             0.0       0.0       0.1       0.2       0.0       0.1
 9 C  dx2y2           0.0       0.0       0.0       0.0       0.2       0.1
10 H  s              13.9       0.0       1.5       1.2       1.0       3.2
10 H  pz              0.0       0.0       0.1       0.1       0.1       0.0
10 H  px              0.1       0.0       0.0       0.0       0.0       0.0
10 H  py              0.3       0.0       0.0       0.0       0.0       0.1
11 H  s              12.7       0.0       2.2       1.9       1.6       0.1
11 H  pz              0.1       0.0       0.0       0.0       0.0       0.0
11 H  px              0.1       0.0       0.0       0.0       0.0       0.1
11 H  py              0.1       0.0       0.1       0.1       0.0       0.0
12 H  s               0.1       0.1       7.5       6.5       5.3       0.3
12 H  pz              0.2       0.0       0.0       0.0       0.0       0.0
13 H  s               0.1       5.6       0.4       1.0       1.3       0.0
14 H  s               0.0       6.0       1.3       0.2       0.1       0.8
15 H  s               0.0       5.9       1.0       0.1       0.2       0.8
16 H  s               0.1       5.7       0.2       0.8       1.2       0.0
18 H  s               0.0       0.6       1.6       2.5       8.5       3.3
18 H  px              0.0       0.0       0.0       0.0       0.1       0.0
19 H  s               0.1       0.6       2.0       1.8       1.1       1.9
20 H  s               0.1       0.1       4.5       8.7       1.1       0.3
20 H  pz              0.0       0.0       0.0       0.2       0.0       0.0
[...]
 9 C  px              0.1       0.3       0.6       0.0       0.0       0.0
 9 C  py              1.8       0.6       0.1       0.0       0.0       0.0
 9 C  dz2             0.9       1.0       0.1       0.0       0.0       0.0
 9 C  dxz             0.7       0.0       0.1       0.0       0.0       0.0
 9 C  dyz             4.4       0.0       0.2       0.0       0.0       0.0
 9 C  dx2y2           0.0       0.6       1.1       0.0       0.0       0.0
 9 C  dxy             1.2       0.3       0.3       0.0       0.0       0.0
10 H  s               0.0       0.3       0.0       0.0       0.0       0.0
10 H  pz              0.0       0.3       0.0       0.0       0.0       0.0
10 H  px              0.0       0.2       0.1       0.0       0.0       0.0
10 H  py              0.0       0.3       0.0       0.0       0.0       0.0
11 H  s               0.0       0.5       0.0       0.0       0.0       0.0
11 H  pz              0.0       0.7       0.0       0.0       0.0       0.0
11 H  px              0.0       0.4       0.0       0.0       0.0       0.0
12 H  s               0.0       1.8       0.0       0.2       0.0       0.0
12 H  pz              0.0       0.8       0.0       0.1       0.0       0.0
12 H  px              0.0       1.2       0.0       0.0       0.0       0.0
12 H  py              0.0       2.3       0.1       0.2       0.0       0.0
13 H  s               0.0       1.3       1.3       2.5       0.0       0.0
13 H  pz              0.0       0.9       1.0       1.1       0.0       0.0
13 H  px              0.0       1.0       0.5       1.3       0.0       0.0
13 H  py              0.0       1.9       2.3       2.4       0.0       0.0
14 H  s               0.1       1.1       1.1       2.6       0.0       0.0
14 H  pz              0.0       0.7       0.7       1.0       0.0       0.0
14 H  px              0.0       0.6       0.2       1.0       0.0       0.0
14 H  py              0.1       2.0       2.2       3.2       0.0       0.0
15 H  s               0.0       2.1       1.2       2.6       0.0       0.0
15 H  pz              0.0       1.6       1.0       1.3       0.0       0.0
15 H  px              0.0       1.5       0.4       1.2       0.0       0.0
15 H  py              0.0       3.2       2.2       2.6       0.0       0.0
16 H  s               0.0       1.3       1.3       2.4       0.0       0.0
16 H  pz              0.0       0.7       0.9       0.8       0.0       0.0
16 H  px              0.0       0.7       0.4       1.1       0.0       0.0
16 H  py              0.0       2.3       2.5       2.7       0.0       0.0
17 H  s               7.1       0.1       0.0       0.0       0.0       0.0
17 H  pz             13.8       0.1       0.1       0.0       0.0       0.0
17 H  px              0.6       0.0       0.0       0.0       0.0       0.0
17 H  py              5.4       0.1       0.3       0.0       0.0       0.0
18 H  s               0.0       0.7       0.5       0.0       0.0       0.0
18 H  px              0.0       1.3       1.1       0.0       0.0       0.0
19 H  s               0.4       0.5       0.2       0.0       0.0       0.0
19 H  py              0.9       1.3       0.2       0.0       0.0       0.0
20 H  s               2.1       0.2       0.1       0.0       0.0       0.0
20 H  pz              4.6       0.4       0.1       0.0       0.0       0.0
20 H  px              0.5       0.0       0.1       0.0       0.0       0.0
20 H  py              0.8       0.4       0.0       0.0       0.0       0.0
21 H  s               0.0       0.5       0.5       0.0       0.0       0.0
21 H  px              0.0       0.8       1.1       0.0       0.0       0.0
21 H  py              0.1       0.0       0.1       0.0       0.0       0.0
22 H  s               2.3       0.1       0.1       0.0       0.0       0.0
22 H  pz              3.6       0.5       0.0       0.0       0.0       0.0
22 H  px              0.5       0.0       0.1       0.0       0.0       0.0
22 H  py              2.5       0.0       0.1       0.0       0.0       0.0
23 H  s               0.2       0.4       0.3       0.0       0.0       0.0
23 H  pz              0.3       1.0       0.2       0.0       0.0       0.0
23 H  py              0.4       0.1       0.1       0.0       0.0       0.0

                    252       253       254       255       256       257   
                  21.94981  21.98838  21.99819  22.05556  22.10874  22.20076
                   0.00000   0.00000   0.00000   0.00000   0.00000   0.00000
                  --------  --------  --------  --------  --------  --------
 0 C  s               4.1       2.5      50.1       0.0      20.3       2.2
 1 C  s               1.0       0.0       0.1       0.0      17.6      21.9
 2 C  s               0.0      18.9       9.8       1.2       0.1      11.2
 3 C  s               0.9      18.9       2.6       2.4       6.1       2.5
 4 C  s               0.0       0.6      12.4       0.0       0.0      26.3
 5 C  s               0.8      22.7       0.1       2.4       6.1       6.0
 6 C  s               0.0      28.6       1.1       1.1       0.1       5.5
 7 C  s               1.8       0.9      21.9       0.0      48.3      22.3
 8 C  s              45.6       3.5       0.1      46.5       0.6       0.9
 9 C  s              45.3       2.8       1.5      46.1       0.5       0.8

                    258       259   
                  22.20895  22.35605
                   0.00000   0.00000
                  --------  --------
 1 C  s               0.1      14.0
 2 C  s              21.3      16.8
 3 C  s              27.9      17.2
 4 C  s               0.3      15.1
 5 C  s              23.1      17.9
 6 C  s              26.3      17.8
 7 C  s               0.2       0.7
 8 C  s               0.1       0.1
 9 C  s               0.2       0.1


                      *****************************
                      * MAYER POPULATION ANALYSIS *
                      *****************************

  NA   - Mulliken gross atomic population
  ZA   - Total nuclear charge
  QA   - Mulliken gross atomic charge
  VA   - Mayer's total valence
  BVA  - Mayer's bonded valence
  FA   - Mayer's free valence

  ATOM       NA         ZA         QA         VA         BVA        FA
  0 C      6.5415     6.0000    -0.5415     3.7960     3.7960     0.0000
  1 C      5.7898     6.0000     0.2102     3.4532     3.4532     0.0000
  2 C      6.2392     6.0000    -0.2392     3.9293     3.9293    -0.0000
  3 C      6.2019     6.0000    -0.2019     3.9241     3.9241     0.0000
  4 C      5.8994     6.0000     0.1006     3.5977     3.5977    -0.0000
  5 C      6.1982     6.0000    -0.1982     3.9008     3.9008     0.0000
  6 C      6.2193     6.0000    -0.2193     3.8982     3.8982    -0.0000
  7 C      5.9409     6.0000     0.0591     3.3237     3.3237    -0.0000
  8 C      6.5393     6.0000    -0.5393     3.8067     3.8067    -0.0000
  9 C      6.5396     6.0000    -0.5396     3.8070     3.8070     0.0000
 10 H      0.8386     1.0000     0.1614     0.9565     0.9565     0.0000
 11 H      0.8415     1.0000     0.1585     0.9584     0.9584     0.0000
 12 H      0.8503     1.0000     0.1497     0.9657     0.9657     0.0000
 13 H      0.8565     1.0000     0.1435     0.9703     0.9703     0.0000
 14 H      0.8658     1.0000     0.1342     0.9718     0.9718     0.0000
 15 H      0.8654     1.0000     0.1346     0.9716     0.9716     0.0000
 16 H      0.8568     1.0000     0.1432     0.9702     0.9702    -0.0000
 17 H      0.8383     1.0000     0.1617     0.9497     0.9497     0.0000
 18 H      0.8547     1.0000     0.1453     0.9653     0.9653     0.0000
 19 H      0.8573     1.0000     0.1427     0.9627     0.9627    -0.0000
 20 H      0.8268     1.0000     0.1732     0.9569     0.9569    -0.0000
 21 H      0.8544     1.0000     0.1456     0.9651     0.9651     0.0000
 22 H      0.8267     1.0000     0.1733     0.9569     0.9569     0.0000
 23 H      0.8576     1.0000     0.1424     0.9628     0.9628    -0.0000

  Mayer bond orders larger than 0.100000
B(  0-C ,  1-C ) :   0.7882 B(  0-C , 10-H ) :   0.9763 B(  0-C , 11-H ) :   0.9793 
B(  0-C , 12-H ) :   0.9965 B(  1-C ,  2-C ) :   1.4166 B(  1-C ,  4-C ) :   0.1034 
B(  1-C ,  6-C ) :   1.3832 B(  2-C ,  3-C ) :   1.4601 B(  2-C , 13-H ) :   0.9365 
B(  3-C ,  4-C ) :   1.4243 B(  3-C , 14-H ) :   0.9509 B(  4-C ,  5-C ) :   1.4068 
B(  4-C ,  7-C ) :   0.8411 B(  5-C ,  6-C ) :   1.4730 B(  5-C , 15-H ) :   0.9492 
B(  6-C , 16-H ) :   0.9495 B(  7-C ,  8-C ) :   0.8835 B(  7-C ,  9-C ) :   0.8831 
B(  7-C , 17-H ) :   0.9282 B(  8-C , 18-H ) :   0.9766 B(  8-C , 19-H ) :   0.9596 
B(  8-C , 20-H ) :   0.9939 B(  9-C , 21-H ) :   0.9766 B(  9-C , 22-H ) :   0.9940 
B(  9-C , 23-H ) :   0.9595 

-------
TIMINGS
-------

Total SCF time: 0 days 0 hours 0 min 25 sec 

Total time                  ....      25.474 sec
Sum of individual times     ....      25.030 sec  ( 98.3%)

SCF preparation             ....       0.193 sec  (  0.8%)
Fock matrix formation       ....      23.974 sec  ( 94.1%)
  Startup                   ....       0.061 sec  (  0.3% of F)
  Split-RI-J                ....       5.230 sec  ( 21.8% of F)
  XC integration            ....      18.277 sec  ( 76.2% of F)
    Basis function eval.    ....       2.897 sec  ( 15.9% of XC)
    Density eval.           ....       6.273 sec  ( 34.3% of XC)
    XC-Functional eval.     ....       1.820 sec  ( 10.0% of XC)
    XC-Potential eval.      ....       6.428 sec  ( 35.2% of XC)
Diagonalization             ....       0.000 sec  (  0.0%)
Density matrix formation    ....       0.178 sec  (  0.7%)
Total Energy calculation    ....       0.026 sec  (  0.1%)
Population analysis         ....       0.166 sec  (  0.7%)
Orbital Transformation      ....       0.071 sec  (  0.3%)
Orbital Orthonormalization  ....       0.000 sec  (  0.0%)
DIIS solution               ....       0.357 sec  (  1.4%)
  MO trafo                  ....       0.000 sec  (  0.0 % of DIIS)
  Orb grad                  ....       0.000 sec  (  0.0 % of DIIS)
  Energy W gradient         ....       0.000 sec  (  0.0 % of DIIS)
  DIIS error                ....       0.013 sec  (  3.7 % of DIIS)
  DIIS work                 ....       0.291 sec  ( 81.3 % of DIIS)
  Form Q                    ....       0.000 sec  (  0.0 % of DIIS)
  Form QpQm                 ....       0.000 sec  (  0.0 % of DIIS)
  Exp/Cayley                ....       0.000 sec  (  0.0 % of DIIS)
  Orb update                ....       0.000 sec  (  0.0 % of DIIS)
  Wake-sleep                ....       0.016 sec  (  4.6 % of DIIS)
SOSCF solution              ....       0.065 sec  (  0.3%)
  MO trafo                  ....       0.050 sec  ( 77.0 % of SOSCF)
  Orb grad                  ....       0.001 sec  (  1.0 % of SOSCF)
  Rot update                ....       0.000 sec  (  0.1 % of SOSCF)
  Step                      ....       0.014 sec  ( 21.9 % of SOSCF)
Finished LeanSCF after  25.6 sec

Maximum memory used throughout the entire LEANSCF-calculation: 29.9 MB


-------------------------------------------------------------------------------
                          DFT DISPERSION CORRECTION                            
                                                                               
                                DFTD4 V3.4.0                                   
-------------------------------------------------------------------------------
The R2SCAN3C composite method is recognized
Using three-body term ABC
Active option DFTDOPT                   ...         5   

-------------------------   ----------------
Dispersion correction           -0.008180261
-------------------------   ----------------

------------------   -----------------
gCP correction             0.008960721
------------------   -----------------

-------------------------   --------------------
FINAL SINGLE POINT ENERGY      -389.379182153408
-------------------------   --------------------


------------------------------------------------------------------------------
                              ORCA PROPERTY CALCULATIONS
------------------------------------------------------------------------------

GBWName                                 ... sp_gas.gbw
Number of atoms                         ...     24
Number of basis functions               ...    260
Max core memory                         ...   1024 MB

Electric properties:
Dipole moment                           ... YES
Quadrupole moment                       ...  NO
Static polarizability (Dipole/Dipole)   ...  NO
Static polarizability (Dipole/Quad.)    ...  NO
Static polarizability (Quad./Quad.)     ...  NO
Static polarizability (Velocity)        ...  NO

Atomic electric properties:
Dipole moment                           ...  NO
Quadrupole moment                       ...  NO
Static polarizability                   ...  NO

Choice of electric origin               ... Center of mass
Position of electric origin             ...     0.000007     0.000001     0.000002

General magnetic properties:
Magnetizability                         ...  NO

EPR properties:
g-Tensor (aka g-matrix)                 ...  NO
Zero-Field splitting spin-orbit         ...  NO
Zero-field splitting spin-spin          ...  NO
Hyperfine couplings                     ...  NO (   0 nuclei)
Quadrupole couplings                    ...  NO (   0 nuclei)
Contact density                         ...  NO (   0 nuclei)

NMR properties:
Chemical shifts                         ...  NO (   0 nuclei)
Spin-rotation constants                 ...  NO (   0 nuclei)
Spin-spin couplings                     ...  NO (   0 nuclei,    0 pairs)

Choice of magnetic origin               ... GIAO
Position of magnetic origin             ...     0.000000     0.000000     0.000000

Properties with geometric perturbations:
SCF Hessian                             ...  NO
IR spectrum                             ...  NO
VCD spectrum                            ...  NO
X-ray spectroscopy properties:
SCF XES/XAS/RIXS spectra                ...  NO


-------------
DIPOLE MOMENT
-------------

Method             : SCF
Type of density    : Electron Density
Multiplicity       :   1
Irrep              :   0
Energy             :  -389.3799626128056275 Eh
Relativity type    : 
Basis              : AO
                                X                 Y                 Z
Electronic contribution:     -4.749292156      -0.613164952      -1.143512687
Nuclear contribution   :      4.768263406       0.619025588       1.111078039
                        -----------------------------------------
Total Dipole Moment    :      0.018971251       0.005860637      -0.032434648
                        -----------------------------------------
Magnitude (a.u.)       :      0.038029749
Magnitude (Debye)      :      0.096663939



--------------------
Rotational spectrum 
--------------------
 
Rotational constants in cm-1:             0.110444             0.025935             0.021649 
Rotational constants in MHz :          3311.018240           777.497495           649.018863 

Dipole components along the rotational axes: 
x,y,z [a.u.] :     0.018586     0.022564    -0.024324 
x,y,z [Debye]:     0.047241     0.057354    -0.061828 

 

Dipole moment calculation done in   0.0 sec 

Maximum memory used throughout the entire PROP-calculation: 17.5 MB

--------------------------------
SUGGESTED CITATIONS FOR THIS RUN
--------------------------------

Below you find a list of papers that are relevant to this ORCA run
We neither can nor want to force you to cite these papers, but we appreciate if you do
You receive ORCA, which is the product of decades of hard work by many enthusiastic individuals, for free
The only thing we kindly ask in return is that you cite our papers,
We deeply appreciate it, if you show your appreciation for ORCA by not just citing the generic ORCA reference.

Please note that relegating all ORCA citations to the supporting information does *not* help us.
SI sections are not indexed - citations you put there will not count into any citation statistics
But we need these citations in order to attract the funding resources that allow us to do what we are doing

Therefore, if you are a happy ORCA user, please consider citing a few of the papers listed below in the main body of your paper

In addition to the list printed below, the program has created the file sp_gas.bibtex that contains the list in bibtex format
You can import this file easily into all common literature databanks and citation aid programs


List of essential papers. We consider these as the minimum necessary citations

  1. Neese,F.
     Software update: the ORCA program system, version 5.0
     WIRES Comput. Molec. Sci., 2022 12(1)e1606
     doi.org/10.1002/wcms.1606
  2. Grimme,S.; Hansen,A.; Ehlert,S.; Mewes,J.
     r2SCAN-3c: A 'Swiss army knife' composite electronic-structure method
     J. Chem. Phys., 2021 154 064103
     doi.org/10.1063/5.0040021

List of papers to cite with high priority. The work reported in these papers was absolutely
necessary for this run to complete.
Our perspective: the developers of density functionals and basis sets usually get cited in chemistry papers
Good! But without the algorithms to do something with them, the functionals or basis sets would not do anything.
Hence, in our opinion, the algorithm design and method developments papers are equally worthy of getting cited

  1. Neese,F.
     An improvement of the resolution of the identity approximation for the formation of the Coulomb matrix
     J. Comp. Chem., 2003 24(14)1740-1747
     doi.org/10.1002/jcc.10318
  2. Neese,F.
     The SHARK Integral Generation and Digestion System
     J. Comp. Chem., 2022  1-16
     doi.org/10.1002/jcc.26942
  3. Lehtola,S.; Steigemann,C.; Oliveira,M.; Marques,M.
     Recent developments in Libxc - A comprehensive library of functionals for density functional theory
     Software X, 2018 7 
     doi.org/10.1016/j.softx.2017.11.002
  4. Caldeweyher,E.; Bannwarth,C.; Grimme,S.
     Extension of the D3 dispersion coefficient model
     J. Chem. Phys., 2017 147 034112-XXXX
     doi.org/10.1063/1.4993215
  5. Caldeweyher,E.; Ehlert,S.; Hansen,A.; Neugebauer,H.; Spicher,S.; Bannwarth,C.; Grimme,S.
     A generally applicable atomic-charge dependent London dispersion correction
     J. Chem. Phys., 2019 150 154122-XXXX
     doi.org/10.1063/1.5090222
  6. Caldeweyher,E.; Mewes,J.; Ehlert,S.; Grimme,S.
     Extension and evaluation of the D4 London-dispersion model for periodic systems
     Phys. Chem. Chem. Phys., 2020 22(16)8499-8512
     doi.org/10.1039/D0CP00502A

List of suggested additional citations. These are papers that are important in the 'surrounding' of 
of this run, or papers that preceded the highly important papers. If you like your results we are grateful for a citation.

  1. Neese,F.
     The ORCA program system
     WIRES Comput. Molec. Sci., 2012 2(1)73-78
     doi.org/10.1002/wcms.81
  2. Neese,F.
     Software update: the ORCA program system, version 4.0
     WIRES Comput. Molec. Sci., 2018 8(1)1-6
     doi.org/10.1002/wcms.1327
  3. Neese,F.; Wennmohs,F.; Becker,U.; Riplinger,C.
     The ORCA quantum chemistry program package
     J. Chem. Phys., 2020 152 Art. No. L224108
     doi.org/10.1063/5.0004608

List of optional additional citations

  1. Neese,F.
     Approximate second-order SCF convergence for spin unrestricted wavefunctions
     Chem. Phys. Lett., 2000 325(1-3)93-98
     doi.org/10.1016/s0009-2614(00)00662-x

Timings for individual modules:

Sum of individual times          ...       27.718 sec (=   0.462 min)
Startup calculation              ...        1.683 sec (=   0.028 min)   6.1 %
SCF iterations                   ...       25.915 sec (=   0.432 min)  93.5 %
Property calculations            ...        0.121 sec (=   0.002 min)   0.4 %
                             ****ORCA TERMINATED NORMALLY****
TOTAL RUN TIME: 0 days 0 hours 0 minutes 28 seconds 523 msec
