      -----------------------------------------------------------      
     |                   =====================                   |     
     |                           x T B                           |     
     |                   =====================                   |     
     |                         S. Grimme                         |     
     |          Mulliken Center for Theoretical Chemistry        |     
     |                    University of Bonn                     |     
      -----------------------------------------------------------      

   * xtb version 6.7.1 (edcfbbe) compiled by 'albert@albert-system' on 2024-07-22

   xtb is free software: you can redistribute it and/or modify it under
   the terms of the GNU Lesser General Public License as published by
   the Free Software Foundation, either version 3 of the License, or
   (at your option) any later version.
   
   xtb is distributed in the hope that it will be useful,
   but WITHOUT ANY WARRANTY; without even the implied warranty of
   MERCHANTABILITY or FITNESS FOR A PARTICULAR PURPOSE.  See the
   GNU Lesser General Public License for more details.
   
   Cite this work as:
   * C. Bannwarth, E. Caldeweyher, S. Ehlert, A. Hansen, P. Pracht,
     J. Seibert, S. Spicher, S. Grimme, WIREs Comput. Mol. Sci., 2020, 11,
     e01493. DOI: 10.1002/wcms.1493
   
   for GFN2-xTB:
   * C. Bannwarth, S. Ehlert and S. Grimme., J. Chem. Theory Comput., 2019,
     15, 1652-1671. DOI: 10.1021/acs.jctc.8b01176
   for GFN1-xTB:
   * S. Grimme, C. Bannwarth, P. Shushkov, J. Chem. Theory Comput., 2017,
     13, 1989-2009. DOI: 10.1021/acs.jctc.7b00118
   for GFN0-xTB:
   * P. Pracht, E. Caldeweyher, S. Ehlert, S. Grimme, ChemRxiv, 2019, preprint.
     DOI: 10.26434/chemrxiv.8326202.v1
   for GFN-FF:
   * S. Spicher and S. Grimme, Angew. Chem. Int. Ed., 2020, 59, 15665-15673.
     DOI: 10.1002/anie.202004239
   
   for ALPB and GBSA implicit solvation:
   * S. Ehlert, M. Stahn, S. Spicher, S. Grimme, J. Chem. Theory Comput.,
     2021, 17, 4250-4261. DOI: 10.1021/acs.jctc.1c00471
   
   for ddCOSMO and CPCM-X implicit solvation:
   * M. Stahn, S. Ehlert, S. Grimme, J. Phys. Chem. A,
     2023, XX, XXXX-XXXX. DOI: 10.1021/acs.jpca.3c04382
   
   for DFT-D4:
   * E. Caldeweyher, C. Bannwarth and S. Grimme, J. Chem. Phys., 2017,
     147, 034112. DOI: 10.1063/1.4993215
   * E. Caldeweyher, S. Ehlert, A. Hansen, H. Neugebauer, S. Spicher,
     C. Bannwarth and S. Grimme, J. Chem. Phys., 2019, 150, 154122.
     DOI: 10.1063/1.5090222
   * E. Caldeweyher, J.-M. Mewes, S. Ehlert and S. Grimme, Phys. Chem. Chem. Phys.
     2020, 22, 8499-8512. DOI: 10.1039/D0CP00502A
   
   for sTDA-xTB:
   * S. Grimme and C. Bannwarth, J. Chem. Phys., 2016, 145, 054103.
     DOI: 10.1063/1.4959605
   
   in the mass-spec context:
   * V. Asgeirsson, C. Bauer and S. Grimme, Chem. Sci., 2017, 8, 4879.
     DOI: 10.1039/c7sc00601b
   * J. Koopman and S. Grimme, ACS Omega 2019, 4, 12, 15120-15133.
     DOI: 10.1021/acsomega.9b02011
   
   for metadynamics refer to:
   * S. Grimme, J. Chem. Theory Comput., 2019, 155, 2847-2862
     DOI: 10.1021/acs.jctc.9b00143
   
   for SPH calculations refer to:
   * S. Spicher and S. Grimme, J. Chem. Theory Comput., 2021, 17, 1701-1714
     DOI: 10.1021/acs.jctc.0c01306
   
   for ONIOM refer to:
   * C. Plett, A. Katbashev, S. Ehlert, S. Grimme, M. Bursch,
     Phys. Chem. Chem. Phys., 2023, 25, 17860-17868. DOI: 10.1039/D3CP02178E
   
   for DIPRO refer to:
   * J. Kohn, N. Gildemeister, S. Grimme, D. Fazzi, A. Hansen,
     J. Chem. Phys., 2023, just accepted.
   
   for PTB refer to:
   * S. Grimme, M. Mueller, A. Hansen, J. Chem. Phys., 2023, 158, 124111.
     DOI: 10.1063/5.0137838
   
   with help from (in alphabetical order)
   P. Atkinson, C. Bannwarth, F. Bohle, G. Brandenburg, E. Caldeweyher
   M. Checinski, S. Dohm, S. Ehlert, S. Ehrlich, I. Gerasimov, C. Hölzer
   A. Katbashev, J. Kohn, J. Koopman, C. Lavigne, S. Lehtola, F. März, M. Müller,
   F. Musil, H. Neugebauer, J. Pisarek, C. Plett, P. Pracht, F. Pultar,
   J. Seibert, P. Shushkov, S. Spicher, M. Stahn, M. Steiner, T. Strunk,
   J. Stückrath, T. Rose, and J. Unsleber
   
 * started run on 2025/04/03 at 21:36:41.679     
   ID    Z sym.   atoms
    1    6 C      1-10
    2    8 O      11
    3    1 H      12-19

           -------------------------------------------------
          |                Calculation Setup                |
           -------------------------------------------------

          program call               : /srv/scratch/z5358697/.xtb/bin/xtb xtb_opt.coord --opt normal --orca -I xtb_opt-xcontrol-inp
          hostname                   : k146
          coordinate file            : xtb_opt.coord
          omp threads                :                     2

           -------------------------------------------------
          |                   Orca driver                   |
           -------------------------------------------------
orca executable           : /apps/z_install_tree/linux-rocky8-ivybridge/gcc-12.2.0/orca-6.0.0-srtngmq3qlimg2qxbl6avaaiffipurdx/bin/orca
orca input file           : xtb_opt.inp
orca input line           : 
orca parallel             : true
orca number of threads    : 2
                         * ORCA takes the control...
  ------------------------------------------------------------------------

                                 *****************
                                 * O   R   C   A *
                                 *****************

                                            #,                                       
                                            ###                                      
                                            ####                                     
                                            #####                                    
                                            ######                                   
                                           ########,                                 
                                     ,,################,,,,,                         
                               ,,#################################,,                 
                          ,,##########################################,,             
                       ,#########################################, ''#####,          
                    ,#############################################,,   '####,        
                  ,##################################################,,,,####,       
                ,###########''''           ''''###############################       
              ,#####''   ,,,,##########,,,,          '''####'''          '####       
            ,##' ,,,,###########################,,,                        '##       
           ' ,,###''''                  '''############,,,                           
         ,,##''                                '''############,,,,        ,,,,,,###''
      ,#''                                            '''#######################'''  
     '                                                          ''''####''''         
             ,#######,   #######,   ,#######,      ##                                
            ,#'     '#,  ##    ##  ,#'     '#,    #''#        ,####,   ,####,        
            ##       ##  ##   ,#'  ##            #'  '#       #'       #'  '#        
            ##       ##  #######   ##           ,######,      #####,   #    #        
            '#,     ,#'  ##    ##  '#,     ,#' ,#      #,     #,   #   #,  ,#        
             '#######'   ##     ##  '#######'  #'      '#     '####' # '####'        



                #########################################################
                #                        -***-                          #
                #          Department of theory and spectroscopy        #
                #                                                       #
                #                      Frank Neese                      #
                #                                                       #
                #     Directorship, Architecture, Infrastructure        #
                #                    SHARK, DRIVERS                     #
                #        Core code/Algorithms in most modules           #
                #                                                       #
                #        Max Planck Institute fuer Kohlenforschung      #
                #                Kaiser Wilhelm Platz 1                 #
                #                 D-45470 Muelheim/Ruhr                 #
                #                      Germany                          #
                #                                                       #
                #                  All rights reserved                  #
                #                        -***-                          #
                #########################################################


                         Program Version 6.0.0  -   RELEASE  -


 With contributions from (in alphabetic order):
   Daniel Aravena         : Magnetic Suceptibility
   Michael Atanasov       : Ab Initio Ligand Field Theory (pilot matlab implementation)
   Alexander A. Auer      : GIAO ZORA, VPT2 properties, NMR spectrum
   Ute Becker             : All parallelization in ORCA, NUMFREQ, NUMCALC
   Giovanni Bistoni       : ED, misc. LED, open-shell LED, HFLD
   Martin Brehm           : Molecular dynamics
   Dmytro Bykov           : pre 5.0 version of the SCF Hessian
   Marcos Casanova-Páez   : Triplet and SCS-CIS(D). UHF-(DLPNO)-IP/EA/STEOM-CCSD. UHF-CVS-IP/STEOM-CCSD
   Vijay G. Chilkuri      : MRCI spin determinant printing, contributions to CSF-ICE
   Pauline Colinet        : FMM embedding
   Dipayan Datta          : RHF DLPNO-CCSD density
   Achintya Kumar Dutta   : EOM-CC, STEOM-CC
   Nicolas Foglia         : Exact transition moments, OPA infrastructure, MCD improvements
   Dmitry Ganyushin       : Spin-Orbit,Spin-Spin,Magnetic field MRCI
   Miquel Garcia          : C-PCM and meta-GGA Hessian, CCSD/C-PCM, Gaussian charge scheme
   Tiago L. C. Gouveia    : GS-ROHF, GS-ROCIS
   Yang Guo               : DLPNO-NEVPT2, F12-NEVPT2, CIM, IAO-localization
   Andreas Hansen         : Spin unrestricted coupled pair/coupled cluster methods
   Ingolf Harden          : AUTO-CI MPn and infrastructure 
   Benjamin Helmich-Paris : MC-RPA, TRAH-(SCF,CASSCF), AVAS, COSX integrals, SCF dyn. polar.
   Lee Huntington         : MR-EOM, pCC
   Robert Izsak           : Overlap fitted RIJCOSX, COSX-SCS-MP3, EOM
   Riya Kayal             : Wick's Theorem for AUTO-CI, AUTO-CI UHF-CCSDT
   Emily Kempfer          : AUTO-CI, RHF CISDT and CCSDT
   Christian Kollmar      : KDIIS, OOCD, Brueckner-CCSD(T), CCSD density, CASPT2, CASPT2-K, improved NEVPT2
   Axel Koslowski         : Symmetry handling
   Simone Kossmann        : Meta GGA functionals, TD-DFT gradient, OOMP2, (MP2 Hessian; deprecated post 5.0)
   Lucas Lang             : DCDCAS
   Marvin Lechner         : AUTO-CI (C++ implementation), FIC-MRCC
   Spencer Leger          : CASSCF response
   Dagmar Lenk            : GEPOL surface, SMD, ORCA-2-JSON
   Dimitrios Liakos       : Extrapolation schemes; Compound Job, initial MDCI parallelization
   Dimitrios Manganas     : Further ROCIS development; embedding schemes. LFT, Crystal Embedding
   Dimitrios Pantazis     : SARC Basis sets
   Anastasios Papadopoulos: AUTO-CI, single reference methods and gradients
   Taras Petrenko         : pre 6.0 DFT Hessian and TD-DFT gradient, (ASA, deprecated), ECA, 1-Electron XAS/XES, NRVS
   Peter Pinski           : DLPNO-MP2, DLPNO-MP2 Gradient
   Christoph Reimann      : Effective Core Potentials
   Marius Retegan         : Local ZFS, SOC
   Christoph Riplinger    : Optimizer, TS searches, QM/MM, DLPNO-CCSD(T), (RO)-DLPNO pert. Triples
   Michael Roemelt        : Original ROCIS implementation
   Masaaki Saitow         : Open-shell DLPNO-CCSD energy and density
   Barbara Sandhoefer     : DKH picture change effects
   Kantharuban Sivalingam : CASSCF convergence/infrastructure, NEVPT2 and variants, FIC-MRCI
   Bernardo de Souza      : ESD, SOC TD-DFT
   Georgi Stoychev        : AutoAux, RI-MP2 NMR, DLPNO-MP2 response, X2C
   Van Anh Tran           : RI-MP2 g-tensors
   Willem Van den Heuvel  : Paramagnetic NMR
   Zikuan Wang            : NOTCH, Electric field optimization 
   Frank Wennmohs         : Technical directorship and infrastructure
   Hang Xu                : AUTO-CI-Response properties 


 We gratefully acknowledge several colleagues who have allowed us to
 interface, adapt or use parts of their codes:
   Stefan Grimme, W. Hujo, H. Kruse, P. Pracht,  : VdW corrections, initial TS optimization,
                  C. Bannwarth, S. Ehlert,         DFT functionals, gCP, sTDA/sTD-DF
                  L. Wittmann, M. Mueller
   Ed Valeev, F. Pavosevic, A. Kumar             : LibInt (2-el integral package), F12 methods
   Garnet Chan, S. Sharma, J. Yang, R. Olivares  : DMRG
   Ulf Ekstrom                                   : XCFun DFT Library
   Mihaly Kallay                                 : mrcc  (arbitrary order and MRCC methods)
   Frank Weinhold                                : gennbo (NPA and NBO analysis)
   Simon Mueller                                 : openCOSMO-RS
   Christopher J. Cramer and Donald G. Truhlar   : smd solvation model
   Lars Goerigk                                  : TD-DFT with DH, B97 family of functionals
   V. Asgeirsson, H. Jonsson                     : NEB implementation
   FAccTs GmbH                                   : IRC, NEB, NEB-TS, DLPNO-Multilevel, CI-OPT
                                                   MM, QMMM, 2- and 3-layer-ONIOM, Crystal-QMMM,
                                                   LR-CPCM, SF, NACMEs, symmetry and pop. for TD-DFT,
                                                   nearIR, NL-DFT gradient (VV10), updates on ESD,
                                                   ML-optimized integration grids, MBIS, APM,
                                                   GOAT, DOCKER, SOLVATOR, interface openCOSMO-RS
   S Lehtola, MJT Oliveira, MAL Marques          : LibXC Library
   Liviu Ungur et al                             : ANISO software


 Your calculation uses the libint2 library for the computation of 2-el integrals
 For citations please refer to: http://libint.valeyev.net

 Your ORCA version has been built with support for libXC version: 6.2.2
 For citations please refer to: https://libxc.gitlab.io

 This ORCA versions uses:
   CBLAS   interface :  Fast vector & matrix operations
   LAPACKE interface :  Fast linear algebra routines
   SCALAPACK package :  Parallel linear algebra routines
   Shared memory     :  Shared parallel matrices
   BLAS/LAPACK       :  OpenBLAS 0.3.27  USE64BITINT DYNAMIC_ARCH NO_AFFINITY SkylakeX SINGLE_THREADED
        Core in use  :  SkylakeX
   Copyright (c) 2011-2014, The OpenBLAS Project




***************************************
The coordinates will be read from file: xtb_opt.xyz
***************************************


Your calculation utilizes the geometrical counterpoise correction gCP
Please cite in your paper:
H.Kruse, S. Grimme J.Chem.Phys., 136, (2012), 154101 
   

Your calculation utilizes the atom-pairwise dispersion correction
based on EEQ partial charges (D4)


Your calculation utilizes the SMD solvation module
Please cite in your paper:
A.V. Marenich, C.J. Cramer, D.G. Truhlar J. Phys. Chem. B, 113, (2009), 6378 

================================================================================

----- Orbital basis set information -----
Your calculation utilizes the basis: def2-mTZVPP
   Stefan Grimme, Andreas Hansen, Sebastian Ehlert, and Jan-Michael Mewes 
   J. Chem. Phys. 154, 064103 (2021). DOI: 10.1063/5.0040021

----- AuxJ basis set information -----
Your calculation utilizes the auxiliary basis: def2/J
   F. Weigend, Phys. Chem. Chem. Phys. 8, 1057 (2006).

================================================================================
                                        WARNINGS
                       Please study these warnings very carefully!
================================================================================

Using LibXC functional ID 497 : Re-regularized SCAN exchange by Furness et al
[ 1]  J. W. Furness, A. D. Kaplan, J. Ning, J. P. Perdew, and J. Sun.,  J. Phys. Chem. Lett. 11, 8208-8215 (2020)
[ 2]  J. W. Furness, A. D. Kaplan, J. Ning, J. P. Perdew, and J. Sun.,  J. Phys. Chem. Lett. 11, 9248-9248 (2020)
Using LibXC functional ID 498 : Re-regularized SCAN correlation by Furness et al
[ 1]  J. W. Furness, A. D. Kaplan, J. Ning, J. P. Perdew, and J. Sun.,  J. Phys. Chem. Lett. 11, 8208-8215 (2020)
[ 2]  J. W. Furness, A. D. Kaplan, J. Ning, J. P. Perdew, and J. Sun.,  J. Phys. Chem. Lett. 11, 9248-9248 (2020)
Using LibXC functional ID 497 : Re-regularized SCAN exchange by Furness et al
[ 1]  J. W. Furness, A. D. Kaplan, J. Ning, J. P. Perdew, and J. Sun.,  J. Phys. Chem. Lett. 11, 8208-8215 (2020)
[ 2]  J. W. Furness, A. D. Kaplan, J. Ning, J. P. Perdew, and J. Sun.,  J. Phys. Chem. Lett. 11, 9248-9248 (2020)
Using LibXC functional ID 498 : Re-regularized SCAN correlation by Furness et al
[ 1]  J. W. Furness, A. D. Kaplan, J. Ning, J. P. Perdew, and J. Sun.,  J. Phys. Chem. Lett. 11, 8208-8215 (2020)
[ 2]  J. W. Furness, A. D. Kaplan, J. Ning, J. P. Perdew, and J. Sun.,  J. Phys. Chem. Lett. 11, 9248-9248 (2020)

================================================================================
                                       INPUT FILE
================================================================================
NAME = xtb_opt.inp
|  1> ! r2scan-3c def2/J RI DEFGRID2 scfconv7 ENGRAD tightSCF miniprint
|  2> %cpcm
|  3>     smd true
|  4>     smdsolvent "water"
|  5> end
|  6> * xyzfile 0 1 xtb_opt.xyz
|  7> 
|  8>                          ****END OF INPUT****
================================================================================

                     *******************************
                     * Energy+Gradient Calculation *
                     *******************************

---------------------------------
CARTESIAN COORDINATES (ANGSTROEM)
---------------------------------
  C     -2.733941   -0.256675   -0.000102
  C     -2.343638    1.090925    0.000114
  C     -1.017384    1.423283    0.000164
  C     -0.027013    0.421188   -0.000000
  C     -0.416046   -0.942571   -0.000030
  C     -1.793077   -1.248532   -0.000152
  C      0.574957   -1.946807    0.000003
  C      1.898445   -1.609319    0.000081
  C      2.295982   -0.265305    0.000078
  C      1.359464    0.738931   -0.000016
  O      1.699578    2.055104   -0.000186
  H     -3.785230   -0.503707    0.000025
  H     -3.098200    1.863096    0.000489
  H     -0.701117    2.455311    0.000418
  H     -2.089975   -2.287376   -0.000155
  H      0.268275   -2.981932    0.000062
  H      2.658162   -2.376384    0.000345
  H      3.349426   -0.024652    0.000254
  H      2.663464    2.155770   -0.000163

----------------------------
CARTESIAN COORDINATES (A.U.)
----------------------------
  NO LB      ZA    FRAG     MASS         X           Y           Z
   0 C     6.0000    0    12.011   -5.166400   -0.485046   -0.000192
   1 C     6.0000    0    12.011   -4.428833    2.061549    0.000216
   2 C     6.0000    0    12.011   -1.922577    2.689615    0.000311
   3 C     6.0000    0    12.011   -0.051047    0.795931   -0.000000
   4 C     6.0000    0    12.011   -0.786212   -1.781200   -0.000056
   5 C     6.0000    0    12.011   -3.388424   -2.359384   -0.000288
   6 C     6.0000    0    12.011    1.086511   -3.678932    0.000006
   7 C     6.0000    0    12.011    3.587542   -3.041172    0.000154
   8 C     6.0000    0    12.011    4.338777   -0.501354    0.000147
   9 C     6.0000    0    12.011    2.569014    1.396377   -0.000030
  10 O     8.0000    0    15.999    3.211737    3.883584   -0.000352
  11 H     1.0000    0     1.008   -7.153048   -0.951868    0.000048
  12 H     1.0000    0     1.008   -5.854749    3.520742    0.000924
  13 H     1.0000    0     1.008   -1.324918    4.639866    0.000789
  14 H     1.0000    0     1.008   -3.949481   -4.322515   -0.000293
  15 H     1.0000    0     1.008    0.506967   -5.635035    0.000117
  16 H     1.0000    0     1.008    5.023199   -4.490716    0.000652
  17 H     1.0000    0     1.008    6.329498   -0.046586    0.000480
  18 H     1.0000    0     1.008    5.033218    4.073814   -0.000309

------------------------------------------------------------------------------
                   ___                                                        
                  /   \      - P O W E R E D   B Y -                         
                 /     \                                                     
                 |  |  |   _    _      __       _____    __    __             
                 |  |  |  | |  | |    /  \     |  _  \  |  |  /  |          
                  \  \/   | |  | |   /    \    | | | |  |  | /  /          
                 / \  \   | |__| |  /  /\  \   | |_| |  |  |/  /          
                |  |  |   |  __  | /  /__\  \  |    /   |      \           
                |  |  |   | |  | | |   __   |  |    \   |  |\   \          
                \     /   | |  | | |  |  |  |  | |\  \  |  | \   \       
                 \___/    |_|  |_| |__|  |__|  |_| \__\ |__|  \__/        
                                                                              
                      - O R C A' S   B I G   F R I E N D -                    
                                      &                                       
                       - I N T E G R A L  F E E D E R -                       
                                                                              
 v1 FN, 2020, v2 2021, v3 2022-2024                                           
------------------------------------------------------------------------------


----------------------
SHARK INTEGRAL PACKAGE
----------------------

Number of atoms                             ...     19
Number of basis functions                   ...    254
Number of shells                            ...    124
Maximum angular momentum                    ...      2
Integral batch strategy                     ... SHARK/LIBINT Hybrid
RI-J (if used) integral strategy            ... SPLIT-RIJ (Revised 2003 algorithm where possible)
Printlevel                                  ...      1
Contraction scheme used                     ... SEGMENTED contraction
Prescreening option                         ... SCHWARTZ
   Thresh                                   ... 3.000e-11
   Tcut                                     ... 1.000e-12
   Tpresel                                  ... 1.000e-12 
Coulomb Range Separation                    ... NOT USED
Exchange Range Separation                   ... NOT USED
Multipole approximations                    ... NOT USED
Finite Nucleus Model                        ... NOT USED
CABS basis                                  ... NOT available
Auxiliary Coulomb fitting basis             ... AVAILABLE
   # of basis functions in Aux-J            ...    627
   # of shells in Aux-J                     ...    205
   Maximum angular momentum in Aux-J        ...      4
Auxiliary J/K fitting basis                 ... NOT available
Auxiliary Correlation fitting basis         ... NOT available
Auxiliary 'external' fitting basis          ... NOT available

Checking pre-screening integrals            ... done (  0.0 sec) Dimension = 124
Check shell pair data                       ... done (  0.0 sec)
Shell pair information
Shell pair cut-off parameter TPreSel        ...   1.0e-12
Total number of shell pairs                 ...      7750
Shell pairs after pre-screening             ...      6868
Total number of primitive shell pairs       ...     28946
Primitive shell pairs kept                  ...     17769
          la=0 lb=0:   2175 shell pairs
          la=1 lb=0:   2614 shell pairs
          la=1 lb=1:    799 shell pairs
          la=2 lb=0:    757 shell pairs
          la=2 lb=1:    449 shell pairs
          la=2 lb=2:     74 shell pairs

Calculating one electron integrals          ... done (  0.0 sec)
Calculating RI/J V-Matrix + Cholesky decomp.... done (  0.1 sec)
Calculating Nuclear repulsion               ... done (  0.0 sec) ENN=    554.539767847849 Eh

Diagonalization of the overlap matrix:
Smallest eigenvalue                        ... 1.613e-05
Time for diagonalization                   ...    0.005 sec
Threshold for overlap eigenvalues          ... 1.000e-07
Number of eigenvalues below threshold      ... 0
Time for construction of square roots      ...    0.015 sec
Total time needed                          ...    0.028 sec

-------------------
DFT GRID GENERATION
-------------------

General Integration Accuracy     IntAcc      ... 4.388
Radial Grid Type                 RadialGrid  ... OptM3 with GC (2021)
Angular Grid (max. ang.)         AngularGrid ... 4 (Lebedev-302)
Angular grid pruning method      GridPruning ... 4 (adaptive)
Weight generation scheme         WeightScheme... mBecke (2022)
Basis function cutoff            BFCut       ... 1.0000e-11
Integration weight cutoff        WCut        ... 1.0000e-14
Partially contracted basis set               ... off
Rotationally invariant grid construction     ... off
Angular grids for H and He will be reduced by one unit
Diffuse basis detected: some atoms will have their outermost
                        angular grid increased by 1.

Total number of grid points                  ...    91918
Total number of batches                      ...     1447
Average number of points per batch           ...       63
Average number of grid points per atom       ...     4838
Initializing property integral containers    ... done (  0.0 sec)

SHARK setup successfully completed in   1.3 seconds

Maximum memory used throughout the entire STARTUP-calculation: 42.6 MB
Occupation numbers will be reassigned to an Aufbau configuration
             **** ENERGY FILE WAS UPDATED (xtb_opt.en.tmp) ****
Finished Guess after   0.4 sec
Maximum memory used throughout the entire GUESS-calculation: 18.6 MB
--------------------
CPCM SOLVATION MODEL
--------------------
CPCM parameters:
  Epsilon                                         ...      78.3550
  Refrac                                          ...       1.3328
  Rsolv                                           ...       1.3000
  Surface type                                    ... GAUSSIAN VDW
  Discretization scheme                           ... Constant charge density
    Threshold for H atoms                         ...       5.0000 (charges/Ang^2)
    Threshold for non-H atoms                     ...       5.0000 (charges/Ang^2)
  Epsilon function type                           ...         CPCM
Solvent:                                          ... WATER
SMD-CDS solvent descriptors:
  Soln                                            ...       1.3328
  Soln25                                          ...       1.3323
  Sola                                            ...       0.0000
  Solb                                            ...       0.0000
  Solg                                            ...       0.0000
  Solc                                            ...       0.0000
  Solh                                            ...       0.0000
Radii:
  Scheme                                          ... Element-dependent radii
  Radius for C  used is    3.4960 Bohr (=   1.8500 Ang.)
  Radius for O  used is    2.8724 Bohr (=   1.5200 Ang.)
  Radius for H  used is    2.2677 Bohr (=   1.2000 Ang.)
Calculating surface                               ...        done! (  0.0s)
Cavity surface points                             ...         1480
Cavity Volume                                     ...     999.1768
Cavity Surface-area                               ...     595.6126
Calculating surface distance matrix               ...        done! (  0.0s)
Performing Cholesky decomposition & store         ...        done! (  0.1s)
Overall time for CPCM initialization              ...                 0.1s

----------------------------------------D-I-I-S--------------------------------------------
Iteration    Energy (Eh)           Delta-E    RMSDP     MaxDP     DIISErr   Damp  Time(sec)
-------------------------------------------------------------------------------------------
               ***  Starting incremental Fock matrix formation  ***
                              *** Initializing SOSCF ***
---------------------------------------S-O-S-C-F--------------------------------------
Iteration    Energy (Eh)           Delta-E    RMSDP     MaxDP     MaxGrad    Time(sec)
--------------------------------------------------------------------------------------
    1    -461.0188013637359745     0.00e+00  1.32e-05  2.66e-04  6.79e-05     4.2
               *** Restarting incremental Fock matrix formation ***
    2    -461.0188014255815006    -6.18e-08  1.73e-05  3.22e-04  9.78e-05     4.0
    3    -461.0188001669835103     1.26e-06  1.09e-05  2.24e-04  2.34e-04     3.1
    4    -461.0188018866722359    -1.72e-06  1.60e-06  3.91e-05  7.91e-06     3.0
                  *** Gradient check signals convergence ***

               *****************************************************
               *                     SUCCESS                       *
               *           SCF CONVERGED AFTER   4 CYCLES          *
               *****************************************************


SMD CDS free energy correction energy :                 3.88521     Kcal/mol
Total Energy after SMD CDS correction =              -461.012610415 Eh
             **** ENERGY FILE WAS UPDATED (xtb_opt.en.tmp) ****

----------------
TOTAL SCF ENERGY
----------------

Total Energy       :       -461.01261041473441 Eh          -12544.79089 eV

Components:
Nuclear Repulsion  :        554.53976784784868 Eh           15089.79423 eV
Electronic Energy  :      -1015.53893160337384 Eh          -27634.21923 eV
One Electron Energy:      -1723.66696351481232 Eh          -46903.36260 eV
Two Electron Energy:        708.12803191143848 Eh           19269.14337 eV
CPCM Dielectric    :         -0.01963813114708 Eh              -0.53438 eV
SMD CDS (Gcds)     :          0.00619147193781 Eh               0.16848 eV

Virial components:
Potential Energy   :       -920.23732545796679 Eh          -25040.93068 eV
Kinetic Energy     :        459.22471504323244 Eh           12496.13979 eV
Virial Ratio       :          2.00389329082894

DFT components:
N(Alpha)           :       38.000064442763 electrons
N(Beta)            :       38.000064442763 electrons
N(Total)           :       76.000128885526 electrons
E(X)               :      -63.271897454548 Eh       
E(C)               :       -2.480803144560 Eh       
E(XC)              :      -65.752700599107 Eh       

CPCM Solvation Model Properties:
Surface-charge          :         -0.04664593238646
Corrected charge        :          0.00000000000000
Outlying charge corr.   :          0.00016121833312 Eh               0.00439 eV
Free-energy (cav+disp)  :          0.00619147193781 Eh               0.16848 eV

---------------
SCF CONVERGENCE
---------------

  Last Energy change         ...    1.7197e-06  Tolerance :   1.0000e-07
  Last MAX-Density change    ...    3.9106e-05  Tolerance :   1.0000e-07
  Last RMS-Density change    ...    1.6049e-06  Tolerance :   5.0000e-09
  Last DIIS Error            ...    2.7654e-04  Tolerance :   1.0000e-07
  Last Orbital Gradient      ...    7.9054e-06  Tolerance :   1.0000e-04
  Last Orbital Rotation      ...    5.8634e-05  Tolerance :   1.0000e-04


----------------
ORBITAL ENERGIES
----------------

  NO   OCC          E(Eh)            E(eV) 
   0   2.0000     -18.986462      -516.6479 
   1   2.0000     -10.101748      -274.8825 
   2   2.0000     -10.047938      -273.4183 
   3   2.0000     -10.046767      -273.3864 
   4   2.0000     -10.036571      -273.1090 
   5   2.0000     -10.036133      -273.0971 
   6   2.0000     -10.035546      -273.0811 
   7   2.0000     -10.034876      -273.0628 
   8   2.0000     -10.034236      -273.0455 
   9   2.0000     -10.030892      -272.9545 
  10   2.0000     -10.027765      -272.8694 
  11   2.0000      -1.030701       -28.0468 
  12   2.0000      -0.846513       -23.0348 
  13   2.0000      -0.793023       -21.5793 
  14   2.0000      -0.741072       -20.1656 
  15   2.0000      -0.715645       -19.4737 
  16   2.0000      -0.686313       -18.6755 
  17   2.0000      -0.603412       -16.4197 
  18   2.0000      -0.590300       -16.0629 
  19   2.0000      -0.570767       -15.5314 
  20   2.0000      -0.512257       -13.9392 
  21   2.0000      -0.486626       -13.2418 
  22   2.0000      -0.470706       -12.8086 
  23   2.0000      -0.447223       -12.1696 
  24   2.0000      -0.419936       -11.4270 
  25   2.0000      -0.397739       -10.8230 
  26   2.0000      -0.396448       -10.7879 
  27   2.0000      -0.393151       -10.6982 
  28   2.0000      -0.372389       -10.1332 
  29   2.0000      -0.355315        -9.6686 
  30   2.0000      -0.346690        -9.4339 
  31   2.0000      -0.338580        -9.2132 
  32   2.0000      -0.307611        -8.3705 
  33   2.0000      -0.304573        -8.2878 
  34   2.0000      -0.300693        -8.1823 
  35   2.0000      -0.253536        -6.8991 
  36   2.0000      -0.237124        -6.4525 
  37   2.0000      -0.192710        -5.2439 
  38   0.0000      -0.064313        -1.7500 
  39   0.0000      -0.039953        -1.0872 
  40   0.0000       0.004867         0.1325 
  41   0.0000       0.066399         1.8068 
  42   0.0000       0.074800         2.0354 
  43   0.0000       0.091349         2.4857 
  44   0.0000       0.111323         3.0292 
  45   0.0000       0.112409         3.0588 
  46   0.0000       0.122077         3.3219 
  47   0.0000       0.147522         4.0143 
  48   0.0000       0.150184         4.0867 
*Only the first 10 virtual orbitals were printed.
Total SCF time: 0 days 0 hours 0 min 14 sec 
Finished LeanSCF after  14.8 sec

Maximum memory used throughout the entire LEANSCF-calculation: 33.5 MB


-------------------------------------------------------------------------------
                          DFT DISPERSION CORRECTION                            
                                                                               
                                DFTD4 V3.4.0                                   
-------------------------------------------------------------------------------
-------------------------   ----------------
Dispersion correction           -0.007502256
-------------------------   ----------------

------------------   -----------------
gCP correction             0.004912990
------------------   -----------------

-------------------------   --------------------
FINAL SINGLE POINT ENERGY      -461.015199680154
-------------------------   --------------------

------------------------------------------------------------------------------
                         ORCA SCF GRADIENT CALCULATION
------------------------------------------------------------------------------

Nuc. rep. gradient        (SHARK) ... done (  0.0 sec)
HCore & Overlap gradient  (SHARK) ... done (  0.4 sec)
Split-RIJ-J gradient      (SHARK) ... done (  2.3 sec)
XC gradient                       ... done (  7.1 sec)
CPCM gradient                     ... done (  1.1 sec)
SMD gradient                      ... done (  0.0 sec)
Dispersion correction             ... done (  0.0 sec)

-------------------
DISPERSION GRADIENT
-------------------

   1   C   :   -0.000122522   -0.000004059   -0.000000005
   2   C   :   -0.000110210    0.000061263    0.000000007
   3   C   :   -0.000062006    0.000096421    0.000000009
   4   C   :    0.000003252    0.000034553   -0.000000003
   5   C   :   -0.000022096   -0.000053818   -0.000000005
   6   C   :   -0.000099050   -0.000064689   -0.000000011
   7   C   :    0.000042221   -0.000114830   -0.000000001
   8   C   :    0.000097377   -0.000082965    0.000000006
   9   C   :    0.000118096   -0.000006323    0.000000003
  10   C   :    0.000089851    0.000053422   -0.000000004
  11   O   :    0.000087528    0.000095325   -0.000000008
  12   H   :   -0.000043564   -0.000006040   -0.000000001
  13   H   :   -0.000035901    0.000028301    0.000000007
  14   H   :   -0.000009546    0.000052245    0.000000007
  15   H   :   -0.000035581   -0.000039790   -0.000000005
  16   H   :    0.000008154   -0.000053633    0.000000001
  17   H   :    0.000033674   -0.000032828    0.000000005
  18   H   :    0.000044919    0.000003465    0.000000003
  19   H   :    0.000015404    0.000033981   -0.000000005

Difference to translation invariance:
           :    0.0000000000   -0.0000000000    0.0000000000

Difference to rotation invariance:
           :    0.0000000000   -0.0000000000    0.0000000000

Norm of the Dispersion gradient    ...    0.0003923267
RMS gradient                       ...    0.0000519649
MAX gradient                       ...    0.0001225222
gCP correction                   ... done

------------------
CARTESIAN GRADIENT
------------------

   1   C   :    0.003905043    0.000293935   -0.000012727
   2   C   :    0.003197351   -0.002502683   -0.000012784
   3   C   :   -0.004350563   -0.003450269    0.000002926
   4   C   :   -0.002696387   -0.008392603   -0.000000602
   5   C   :   -0.001602793    0.003764070    0.000014093
   6   C   :   -0.000580481    0.003275739   -0.000005799
   7   C   :    0.003788435    0.004713483   -0.000001747
   8   C   :   -0.001494038    0.000108001   -0.000016032
   9   C   :   -0.004696229   -0.000743894   -0.000004541
  10   C   :   -0.000227734    0.006943911    0.000005919
  11   O   :    0.000058259   -0.009421331   -0.000005258
  12   H   :    0.003767104    0.001411696    0.000007745
  13   H   :    0.002538660   -0.003224394    0.000008790
  14   H   :    0.001073238   -0.003904577    0.000002244
  15   H   :    0.001130743    0.004025928    0.000002592
  16   H   :    0.001302913    0.004262494    0.000002256
  17   H   :   -0.002749977    0.003018381    0.000007762
  18   H   :   -0.003897553   -0.002582775    0.000005409
  19   H   :    0.001534008    0.002404888   -0.000000246

Difference to translation invariance:
           :   -0.0000000000   -0.0000000000   -0.0000000000

Difference to rotation invariance:
           :    0.0000015163   -0.0000006082   -0.0012636890

Norm of the Cartesian gradient     ...    0.0223622232
RMS gradient                       ...    0.0029619488
MAX gradient                       ...    0.0094213307

-------
TIMINGS
-------

Total SCF gradient time     ....       11.915 sec

Densities                   ....       0.001 sec  (  0.0%)
One electron gradient       ....       0.368 sec  (  3.1%)
RI-J Coulomb gradient       ....       2.331 sec  ( 19.6%)
XC gradient                 ....       7.145 sec  ( 60.0%)
CPCM gradient               ....       1.140 sec  (  9.6%)
   A-Matrix (El+Nuc)        ....       0.073 sec  (  0.6%)
   Potential                ....       1.067 sec  (  9.0%)
SMD gradient                ....       0.010 sec  (  0.1%)

Maximum memory used throughout the entire SCFGRAD-calculation: 38.9 MB

------------------------------------------------------------------------------
                              ORCA PROPERTY CALCULATIONS
------------------------------------------------------------------------------

GBWName                                 ... xtb_opt.gbw
Number of atoms                         ...     19
Number of basis functions               ...    254
Max core memory                         ...   1024 MB

Electric properties:
Dipole moment                           ... YES
Quadrupole moment                       ...  NO
Static polarizability (Dipole/Dipole)   ...  NO
Static polarizability (Dipole/Quad.)    ...  NO
Static polarizability (Quad./Quad.)     ...  NO
Static polarizability (Velocity)        ...  NO

Atomic electric properties:
Dipole moment                           ...  NO
Quadrupole moment                       ...  NO
Static polarizability                   ...  NO

Choice of electric origin               ... Center of mass
Position of electric origin             ...    -0.000010    -0.000013     0.000000

General magnetic properties:
Magnetizability                         ...  NO

EPR properties:
g-Tensor (aka g-matrix)                 ...  NO
Zero-Field splitting spin-orbit         ...  NO
Zero-field splitting spin-spin          ...  NO
Hyperfine couplings                     ...  NO (   0 nuclei)
Quadrupole couplings                    ...  NO (   0 nuclei)
Contact density                         ...  NO (   0 nuclei)

NMR properties:
Chemical shifts                         ...  NO (   0 nuclei)
Spin-rotation constants                 ...  NO (   0 nuclei)
Spin-spin couplings                     ...  NO (   0 nuclei,    0 pairs)

Choice of magnetic origin               ... GIAO
Position of magnetic origin             ...     0.000000     0.000000     0.000000

Properties with geometric perturbations:
SCF Hessian                             ...  NO
IR spectrum                             ...  NO
VCD spectrum                            ...  NO
X-ray spectroscopy properties:
SCF XES/XAS/RIXS spectra                ...  NO


-------------
DIPOLE MOMENT
-------------

Method             : SCF
Type of density    : Electron Density
Multiplicity       :   1
Irrep              :   0
Energy             :  -461.0126104147344108 Eh
Relativity type    : 
Basis              : AO
                                X                 Y                 Z
Electronic contribution:      1.422357351       1.508224153      -0.000695727
Nuclear contribution   :     -0.664566182      -1.564336487       0.001193083
                        -----------------------------------------
Total Dipole Moment    :      0.757791169      -0.056112335       0.000497356
                        -----------------------------------------
Magnitude (a.u.)       :      0.759865974
Magnitude (Debye)      :      1.931425812



--------------------
Rotational spectrum 
--------------------
 
Rotational constants in cm-1:             0.065596             0.038093             0.024098 
Rotational constants in MHz :          1966.516787          1141.989441           722.450353 

Dipole components along the rotational axes: 
x,y,z [a.u.] :     0.757792    -0.056106     0.000497 
x,y,z [Debye]:     1.926153    -0.142609     0.001264 

 

Dipole moment calculation done in   0.0 sec 

Maximum memory used throughout the entire PROP-calculation: 17.6 MB

--------------------------------
SUGGESTED CITATIONS FOR THIS RUN
--------------------------------

Below you find a list of papers that are relevant to this ORCA run
We neither can nor want to force you to cite these papers, but we appreciate if you do
You receive ORCA, which is the product of decades of hard work by many enthusiastic individuals, for free
The only thing we kindly ask in return is that you cite our papers,
We deeply appreciate it, if you show your appreciation for ORCA by not just citing the generic ORCA reference.

Please note that relegating all ORCA citations to the supporting information does *not* help us.
SI sections are not indexed - citations you put there will not count into any citation statistics
But we need these citations in order to attract the funding resources that allow us to do what we are doing

Therefore, if you are a happy ORCA user, please consider citing a few of the papers listed below in the main body of your paper

In addition to the list printed below, the program has created the file xtb_opt.bibtex that contains the list in bibtex format
You can import this file easily into all common literature databanks and citation aid programs


List of essential papers. We consider these as the minimum necessary citations

  1. Neese,F.
     Software update: the ORCA program system, version 5.0
     WIRES Comput. Molec. Sci., 2022 12(1)e1606
     doi.org/10.1002/wcms.1606
  2. Grimme,S.; Hansen,A.; Ehlert,S.; Mewes,J.
     r2SCAN-3c: A 'Swiss army knife' composite electronic-structure method
     J. Chem. Phys., 2021 154 064103
     doi.org/10.1063/5.0040021

List of papers to cite with high priority. The work reported in these papers was absolutely
necessary for this run to complete.
Our perspective: the developers of density functionals and basis sets usually get cited in chemistry papers
Good! But without the algorithms to do something with them, the functionals or basis sets would not do anything.
Hence, in our opinion, the algorithm design and method developments papers are equally worthy of getting cited

  1. Neese,F.
     An improvement of the resolution of the identity approximation for the formation of the Coulomb matrix
     J. Comp. Chem., 2003 24(14)1740-1747
     doi.org/10.1002/jcc.10318
  2. Garcia-Rates,M.; Neese,F.
     Effect of the Solute Cavity on the Solvation Energy and its Derivatives within the Framework of the Gaussian Charge Scheme
     J. Comput. Chem., 2020 41 922-939
     doi.org/10.1002/jcc.26139
  3. Neese,F.
     The SHARK Integral Generation and Digestion System
     J. Comp. Chem., 2022  1-16
     doi.org/10.1002/jcc.26942
  4. Lehtola,S.; Steigemann,C.; Oliveira,M.; Marques,M.
     Recent developments in Libxc - A comprehensive library of functionals for density functional theory
     Software X, 2018 7 
     doi.org/10.1016/j.softx.2017.11.002
  5. Caldeweyher,E.; Bannwarth,C.; Grimme,S.
     Extension of the D3 dispersion coefficient model
     J. Chem. Phys., 2017 147 034112-XXXX
     doi.org/10.1063/1.4993215
  6. Caldeweyher,E.; Ehlert,S.; Hansen,A.; Neugebauer,H.; Spicher,S.; Bannwarth,C.; Grimme,S.
     A generally applicable atomic-charge dependent London dispersion correction
     J. Chem. Phys., 2019 150 154122-XXXX
     doi.org/10.1063/1.5090222
  7. Caldeweyher,E.; Mewes,J.; Ehlert,S.; Grimme,S.
     Extension and evaluation of the D4 London-dispersion model for periodic systems
     Phys. Chem. Chem. Phys., 2020 22(16)8499-8512
     doi.org/10.1039/D0CP00502A

List of suggested additional citations. These are papers that are important in the 'surrounding' of 
of this run, or papers that preceded the highly important papers. If you like your results we are grateful for a citation.

  1. Neese,F.
     The ORCA program system
     WIRES Comput. Molec. Sci., 2012 2(1)73-78
     doi.org/10.1002/wcms.81
  2. Neese,F.
     Software update: the ORCA program system, version 4.0
     WIRES Comput. Molec. Sci., 2018 8(1)1-6
     doi.org/10.1002/wcms.1327
  3. Neese,F.; Wennmohs,F.; Becker,U.; Riplinger,C.
     The ORCA quantum chemistry program package
     J. Chem. Phys., 2020 152 Art. No. L224108
     doi.org/10.1063/5.0004608

List of optional additional citations

  1. Neese,F.
     Approximate second-order SCF convergence for spin unrestricted wavefunctions
     Chem. Phys. Lett., 2000 325(1-3)93-98
     doi.org/10.1016/s0009-2614(00)00662-x

Timings for individual modules:

Sum of individual times          ...       28.637 sec (=   0.477 min)
Startup calculation              ...        1.284 sec (=   0.021 min)   4.5 %
SCF iterations                   ...       15.234 sec (=   0.254 min)  53.2 %
Property calculations            ...        0.104 sec (=   0.002 min)   0.4 %
SCF Gradient evaluation          ...       12.015 sec (=   0.200 min)  42.0 %
                             ****ORCA TERMINATED NORMALLY****
TOTAL RUN TIME: 0 days 0 hours 0 minutes 29 seconds 612 msec
  ------------------------------------------------------------------------
          * successful ORCA run, taking over control again...

         :::::::::::::::::::::::::::::::::::::::::::::::::::::
         ::                  ORCA SUMMARY                   ::
         :::::::::::::::::::::::::::::::::::::::::::::::::::::
         :: total energy            -461.015199680154 Eh    ::
         :: gradient norm              0.022362223211 Eh/a0 ::
         :: HOMO-LUMO gap              0.000000000000 eV    ::
         :::::::::::::::::::::::::::::::::::::::::::::::::::::

      ----------------------------------------------------------- 
     |                       L-ANC optimizer                     |
      ----------------------------------------------------------- 
          low memory version by Sebastian Ehlert

          ...................................................
          :                      SETUP                      :
          :.................................................:
          :   energy convergence        0.5000000E-05 Eh    :
          :   grad. convergence         0.1000000E-02 Eh/a0 :
          :   optimization log               true           :
          :   writing optlog all                1     steps :
          :   Hessian reset                     8     steps :
          :   maximium step len.        1.0000000     a0    :
          :   LBFGS images                      8           :
          ...................................................
 * calculating model hessian...
Using Lindh-Hessian (1995)
 Shifting diagonal of input Hessian by   1.000000000000000E-002
 Lowest  eigenvalues of input Hessian
    0.000000    0.000000    0.000000    0.000000    0.000000    0.000000
    0.014257    0.016427    0.020304    0.027302    0.031111    0.031469
    0.033113    0.046780    0.052264    0.052753    0.079471    0.080047
 Highest eigenvalues
    1.828886    1.830821    1.914181    1.991826    2.102885    2.130672
 

........................................................................
.............................. CYCLE    1 ..............................
........................................................................
                         * ORCA takes the control...
  ------------------------------------------------------------------------

                                 *****************
                                 * O   R   C   A *
                                 *****************

                                            #,                                       
                                            ###                                      
                                            ####                                     
                                            #####                                    
                                            ######                                   
                                           ########,                                 
                                     ,,################,,,,,                         
                               ,,#################################,,                 
                          ,,##########################################,,             
                       ,#########################################, ''#####,          
                    ,#############################################,,   '####,        
                  ,##################################################,,,,####,       
                ,###########''''           ''''###############################       
              ,#####''   ,,,,##########,,,,          '''####'''          '####       
            ,##' ,,,,###########################,,,                        '##       
           ' ,,###''''                  '''############,,,                           
         ,,##''                                '''############,,,,        ,,,,,,###''
      ,#''                                            '''#######################'''  
     '                                                          ''''####''''         
             ,#######,   #######,   ,#######,      ##                                
            ,#'     '#,  ##    ##  ,#'     '#,    #''#        ,####,   ,####,        
            ##       ##  ##   ,#'  ##            #'  '#       #'       #'  '#        
            ##       ##  #######   ##           ,######,      #####,   #    #        
            '#,     ,#'  ##    ##  '#,     ,#' ,#      #,     #,   #   #,  ,#        
             '#######'   ##     ##  '#######'  #'      '#     '####' # '####'        



                #########################################################
                #                        -***-                          #
                #          Department of theory and spectroscopy        #
                #                                                       #
                #                      Frank Neese                      #
                #                                                       #
                #     Directorship, Architecture, Infrastructure        #
                #                    SHARK, DRIVERS                     #
                #        Core code/Algorithms in most modules           #
                #                                                       #
                #        Max Planck Institute fuer Kohlenforschung      #
                #                Kaiser Wilhelm Platz 1                 #
                #                 D-45470 Muelheim/Ruhr                 #
                #                      Germany                          #
                #                                                       #
                #                  All rights reserved                  #
                #                        -***-                          #
                #########################################################


                         Program Version 6.0.0  -   RELEASE  -


 With contributions from (in alphabetic order):
   Daniel Aravena         : Magnetic Suceptibility
   Michael Atanasov       : Ab Initio Ligand Field Theory (pilot matlab implementation)
   Alexander A. Auer      : GIAO ZORA, VPT2 properties, NMR spectrum
   Ute Becker             : All parallelization in ORCA, NUMFREQ, NUMCALC
   Giovanni Bistoni       : ED, misc. LED, open-shell LED, HFLD
   Martin Brehm           : Molecular dynamics
   Dmytro Bykov           : pre 5.0 version of the SCF Hessian
   Marcos Casanova-Páez   : Triplet and SCS-CIS(D). UHF-(DLPNO)-IP/EA/STEOM-CCSD. UHF-CVS-IP/STEOM-CCSD
   Vijay G. Chilkuri      : MRCI spin determinant printing, contributions to CSF-ICE
   Pauline Colinet        : FMM embedding
   Dipayan Datta          : RHF DLPNO-CCSD density
   Achintya Kumar Dutta   : EOM-CC, STEOM-CC
   Nicolas Foglia         : Exact transition moments, OPA infrastructure, MCD improvements
   Dmitry Ganyushin       : Spin-Orbit,Spin-Spin,Magnetic field MRCI
   Miquel Garcia          : C-PCM and meta-GGA Hessian, CCSD/C-PCM, Gaussian charge scheme
   Tiago L. C. Gouveia    : GS-ROHF, GS-ROCIS
   Yang Guo               : DLPNO-NEVPT2, F12-NEVPT2, CIM, IAO-localization
   Andreas Hansen         : Spin unrestricted coupled pair/coupled cluster methods
   Ingolf Harden          : AUTO-CI MPn and infrastructure 
   Benjamin Helmich-Paris : MC-RPA, TRAH-(SCF,CASSCF), AVAS, COSX integrals, SCF dyn. polar.
   Lee Huntington         : MR-EOM, pCC
   Robert Izsak           : Overlap fitted RIJCOSX, COSX-SCS-MP3, EOM
   Riya Kayal             : Wick's Theorem for AUTO-CI, AUTO-CI UHF-CCSDT
   Emily Kempfer          : AUTO-CI, RHF CISDT and CCSDT
   Christian Kollmar      : KDIIS, OOCD, Brueckner-CCSD(T), CCSD density, CASPT2, CASPT2-K, improved NEVPT2
   Axel Koslowski         : Symmetry handling
   Simone Kossmann        : Meta GGA functionals, TD-DFT gradient, OOMP2, (MP2 Hessian; deprecated post 5.0)
   Lucas Lang             : DCDCAS
   Marvin Lechner         : AUTO-CI (C++ implementation), FIC-MRCC
   Spencer Leger          : CASSCF response
   Dagmar Lenk            : GEPOL surface, SMD, ORCA-2-JSON
   Dimitrios Liakos       : Extrapolation schemes; Compound Job, initial MDCI parallelization
   Dimitrios Manganas     : Further ROCIS development; embedding schemes. LFT, Crystal Embedding
   Dimitrios Pantazis     : SARC Basis sets
   Anastasios Papadopoulos: AUTO-CI, single reference methods and gradients
   Taras Petrenko         : pre 6.0 DFT Hessian and TD-DFT gradient, (ASA, deprecated), ECA, 1-Electron XAS/XES, NRVS
   Peter Pinski           : DLPNO-MP2, DLPNO-MP2 Gradient
   Christoph Reimann      : Effective Core Potentials
   Marius Retegan         : Local ZFS, SOC
   Christoph Riplinger    : Optimizer, TS searches, QM/MM, DLPNO-CCSD(T), (RO)-DLPNO pert. Triples
   Michael Roemelt        : Original ROCIS implementation
   Masaaki Saitow         : Open-shell DLPNO-CCSD energy and density
   Barbara Sandhoefer     : DKH picture change effects
   Kantharuban Sivalingam : CASSCF convergence/infrastructure, NEVPT2 and variants, FIC-MRCI
   Bernardo de Souza      : ESD, SOC TD-DFT
   Georgi Stoychev        : AutoAux, RI-MP2 NMR, DLPNO-MP2 response, X2C
   Van Anh Tran           : RI-MP2 g-tensors
   Willem Van den Heuvel  : Paramagnetic NMR
   Zikuan Wang            : NOTCH, Electric field optimization 
   Frank Wennmohs         : Technical directorship and infrastructure
   Hang Xu                : AUTO-CI-Response properties 


 We gratefully acknowledge several colleagues who have allowed us to
 interface, adapt or use parts of their codes:
   Stefan Grimme, W. Hujo, H. Kruse, P. Pracht,  : VdW corrections, initial TS optimization,
                  C. Bannwarth, S. Ehlert,         DFT functionals, gCP, sTDA/sTD-DF
                  L. Wittmann, M. Mueller
   Ed Valeev, F. Pavosevic, A. Kumar             : LibInt (2-el integral package), F12 methods
   Garnet Chan, S. Sharma, J. Yang, R. Olivares  : DMRG
   Ulf Ekstrom                                   : XCFun DFT Library
   Mihaly Kallay                                 : mrcc  (arbitrary order and MRCC methods)
   Frank Weinhold                                : gennbo (NPA and NBO analysis)
   Simon Mueller                                 : openCOSMO-RS
   Christopher J. Cramer and Donald G. Truhlar   : smd solvation model
   Lars Goerigk                                  : TD-DFT with DH, B97 family of functionals
   V. Asgeirsson, H. Jonsson                     : NEB implementation
   FAccTs GmbH                                   : IRC, NEB, NEB-TS, DLPNO-Multilevel, CI-OPT
                                                   MM, QMMM, 2- and 3-layer-ONIOM, Crystal-QMMM,
                                                   LR-CPCM, SF, NACMEs, symmetry and pop. for TD-DFT,
                                                   nearIR, NL-DFT gradient (VV10), updates on ESD,
                                                   ML-optimized integration grids, MBIS, APM,
                                                   GOAT, DOCKER, SOLVATOR, interface openCOSMO-RS
   S Lehtola, MJT Oliveira, MAL Marques          : LibXC Library
   Liviu Ungur et al                             : ANISO software


 Your calculation uses the libint2 library for the computation of 2-el integrals
 For citations please refer to: http://libint.valeyev.net

 Your ORCA version has been built with support for libXC version: 6.2.2
 For citations please refer to: https://libxc.gitlab.io

 This ORCA versions uses:
   CBLAS   interface :  Fast vector & matrix operations
   LAPACKE interface :  Fast linear algebra routines
   SCALAPACK package :  Parallel linear algebra routines
   Shared memory     :  Shared parallel matrices
   BLAS/LAPACK       :  OpenBLAS 0.3.27  USE64BITINT DYNAMIC_ARCH NO_AFFINITY SkylakeX SINGLE_THREADED
        Core in use  :  SkylakeX
   Copyright (c) 2011-2014, The OpenBLAS Project




***************************************
The coordinates will be read from file: xtb_opt.xyz
***************************************


Your calculation utilizes the geometrical counterpoise correction gCP
Please cite in your paper:
H.Kruse, S. Grimme J.Chem.Phys., 136, (2012), 154101 
   

Your calculation utilizes the atom-pairwise dispersion correction
based on EEQ partial charges (D4)


Your calculation utilizes the SMD solvation module
Please cite in your paper:
A.V. Marenich, C.J. Cramer, D.G. Truhlar J. Phys. Chem. B, 113, (2009), 6378 

================================================================================

----- Orbital basis set information -----
Your calculation utilizes the basis: def2-mTZVPP
   Stefan Grimme, Andreas Hansen, Sebastian Ehlert, and Jan-Michael Mewes 
   J. Chem. Phys. 154, 064103 (2021). DOI: 10.1063/5.0040021

----- AuxJ basis set information -----
Your calculation utilizes the auxiliary basis: def2/J
   F. Weigend, Phys. Chem. Chem. Phys. 8, 1057 (2006).

================================================================================
                                        WARNINGS
                       Please study these warnings very carefully!
================================================================================

WARNING: Old DensityContainer found on disk!
         Will remove this file - 
         If you want to keep old densities, please start your calculation with a different basename. 

Using LibXC functional ID 497 : Re-regularized SCAN exchange by Furness et al
[ 1]  J. W. Furness, A. D. Kaplan, J. Ning, J. P. Perdew, and J. Sun.,  J. Phys. Chem. Lett. 11, 8208-8215 (2020)
[ 2]  J. W. Furness, A. D. Kaplan, J. Ning, J. P. Perdew, and J. Sun.,  J. Phys. Chem. Lett. 11, 9248-9248 (2020)
Using LibXC functional ID 498 : Re-regularized SCAN correlation by Furness et al
[ 1]  J. W. Furness, A. D. Kaplan, J. Ning, J. P. Perdew, and J. Sun.,  J. Phys. Chem. Lett. 11, 8208-8215 (2020)
[ 2]  J. W. Furness, A. D. Kaplan, J. Ning, J. P. Perdew, and J. Sun.,  J. Phys. Chem. Lett. 11, 9248-9248 (2020)
Using LibXC functional ID 497 : Re-regularized SCAN exchange by Furness et al
[ 1]  J. W. Furness, A. D. Kaplan, J. Ning, J. P. Perdew, and J. Sun.,  J. Phys. Chem. Lett. 11, 8208-8215 (2020)
[ 2]  J. W. Furness, A. D. Kaplan, J. Ning, J. P. Perdew, and J. Sun.,  J. Phys. Chem. Lett. 11, 9248-9248 (2020)
Using LibXC functional ID 498 : Re-regularized SCAN correlation by Furness et al
[ 1]  J. W. Furness, A. D. Kaplan, J. Ning, J. P. Perdew, and J. Sun.,  J. Phys. Chem. Lett. 11, 8208-8215 (2020)
[ 2]  J. W. Furness, A. D. Kaplan, J. Ning, J. P. Perdew, and J. Sun.,  J. Phys. Chem. Lett. 11, 9248-9248 (2020)

================================================================================
                                       INPUT FILE
================================================================================
NAME = xtb_opt.inp
|  1> ! r2scan-3c def2/J RI DEFGRID2 scfconv7 ENGRAD tightSCF miniprint
|  2> %cpcm
|  3>     smd true
|  4>     smdsolvent "water"
|  5> end
|  6> * xyzfile 0 1 xtb_opt.xyz
|  7> 
|  8>                          ****END OF INPUT****
================================================================================

                     *******************************
                     * Energy+Gradient Calculation *
                     *******************************

---------------------------------
CARTESIAN COORDINATES (ANGSTROEM)
---------------------------------
  C     -2.741423   -0.256446    0.000019
  C     -2.350188    1.097767    0.000195
  C     -1.018420    1.433884    0.000175
  C     -0.024614    0.427612    0.000017
  C     -0.414349   -0.945348   -0.000036
  C     -1.796140   -1.252382   -0.000083
  C      0.576070   -1.956660    0.000028
  C      1.905567   -1.615929    0.000154
  C      2.307729   -0.266824    0.000103
  C      1.365286    0.737268   -0.000008
  O      1.699730    2.060289   -0.000127
  H     -3.796305   -0.507286   -0.000040
  H     -3.107242    1.873695    0.000349
  H     -0.710339    2.472236    0.000331
  H     -2.094004   -2.295800   -0.000168
  H      0.266441   -2.995974    0.000024
  H      2.667522   -2.386987    0.000242
  H      3.363950   -0.017073    0.000169
  H      2.662861    2.154307   -0.000113

----------------------------
CARTESIAN COORDINATES (A.U.)
----------------------------
  NO LB      ZA    FRAG     MASS         X           Y           Z
   0 C     6.0000    0    12.011   -5.180538   -0.484613    0.000035
   1 C     6.0000    0    12.011   -4.441212    2.074479    0.000368
   2 C     6.0000    0    12.011   -1.924535    2.709649    0.000330
   3 C     6.0000    0    12.011   -0.046513    0.808070    0.000032
   4 C     6.0000    0    12.011   -0.783005   -1.786448   -0.000067
   5 C     6.0000    0    12.011   -3.394212   -2.366659   -0.000157
   6 C     6.0000    0    12.011    1.088615   -3.697552    0.000053
   7 C     6.0000    0    12.011    3.601000   -3.053663    0.000290
   8 C     6.0000    0    12.011    4.360975   -0.504224    0.000194
   9 C     6.0000    0    12.011    2.580017    1.393234   -0.000016
  10 O     8.0000    0    15.999    3.212025    3.893381   -0.000239
  11 H     1.0000    0     1.008   -7.173976   -0.958632   -0.000075
  12 H     1.0000    0     1.008   -5.871835    3.540770    0.000660
  13 H     1.0000    0     1.008   -1.342346    4.671848    0.000626
  14 H     1.0000    0     1.008   -3.957094   -4.338434   -0.000318
  15 H     1.0000    0     1.008    0.503501   -5.661570    0.000046
  16 H     1.0000    0     1.008    5.040886   -4.510753    0.000457
  17 H     1.0000    0     1.008    6.356944   -0.032264    0.000319
  18 H     1.0000    0     1.008    5.032078    4.071050   -0.000214

------------------------------------------------------------------------------
                   ___                                                        
                  /   \      - P O W E R E D   B Y -                         
                 /     \                                                     
                 |  |  |   _    _      __       _____    __    __             
                 |  |  |  | |  | |    /  \     |  _  \  |  |  /  |          
                  \  \/   | |  | |   /    \    | | | |  |  | /  /          
                 / \  \   | |__| |  /  /\  \   | |_| |  |  |/  /          
                |  |  |   |  __  | /  /__\  \  |    /   |      \           
                |  |  |   | |  | | |   __   |  |    \   |  |\   \          
                \     /   | |  | | |  |  |  |  | |\  \  |  | \   \       
                 \___/    |_|  |_| |__|  |__|  |_| \__\ |__|  \__/        
                                                                              
                      - O R C A' S   B I G   F R I E N D -                    
                                      &                                       
                       - I N T E G R A L  F E E D E R -                       
                                                                              
 v1 FN, 2020, v2 2021, v3 2022-2024                                           
------------------------------------------------------------------------------


----------------------
SHARK INTEGRAL PACKAGE
----------------------

Number of atoms                             ...     19
Number of basis functions                   ...    254
Number of shells                            ...    124
Maximum angular momentum                    ...      2
Integral batch strategy                     ... SHARK/LIBINT Hybrid
RI-J (if used) integral strategy            ... SPLIT-RIJ (Revised 2003 algorithm where possible)
Printlevel                                  ...      1
Contraction scheme used                     ... SEGMENTED contraction
Prescreening option                         ... SCHWARTZ
   Thresh                                   ... 3.000e-11
   Tcut                                     ... 1.000e-12
   Tpresel                                  ... 1.000e-12 
Coulomb Range Separation                    ... NOT USED
Exchange Range Separation                   ... NOT USED
Multipole approximations                    ... NOT USED
Finite Nucleus Model                        ... NOT USED
CABS basis                                  ... NOT available
Auxiliary Coulomb fitting basis             ... AVAILABLE
   # of basis functions in Aux-J            ...    627
   # of shells in Aux-J                     ...    205
   Maximum angular momentum in Aux-J        ...      4
Auxiliary J/K fitting basis                 ... NOT available
Auxiliary Correlation fitting basis         ... NOT available
Auxiliary 'external' fitting basis          ... NOT available

Checking pre-screening integrals            ... done (  0.0 sec) Dimension = 124
Check shell pair data                       ... done (  0.0 sec)
Shell pair information
Shell pair cut-off parameter TPreSel        ...   1.0e-12
Total number of shell pairs                 ...      7750
Shell pairs after pre-screening             ...      6862
Total number of primitive shell pairs       ...     28946
Primitive shell pairs kept                  ...     17743
          la=0 lb=0:   2175 shell pairs
          la=1 lb=0:   2614 shell pairs
          la=1 lb=1:    799 shell pairs
          la=2 lb=0:    751 shell pairs
          la=2 lb=1:    449 shell pairs
          la=2 lb=2:     74 shell pairs

Calculating one electron integrals          ... done (  0.0 sec)
Calculating RI/J V-Matrix + Cholesky decomp.... done (  0.1 sec)
Calculating Nuclear repulsion               ... done (  0.0 sec) ENN=    552.550794008358 Eh

Diagonalization of the overlap matrix:
Smallest eigenvalue                        ... 1.683e-05
Time for diagonalization                   ...    0.006 sec
Threshold for overlap eigenvalues          ... 1.000e-07
Number of eigenvalues below threshold      ... 0
Time for construction of square roots      ...    0.017 sec
Total time needed                          ...    0.031 sec

-------------------
DFT GRID GENERATION
-------------------

General Integration Accuracy     IntAcc      ... 4.388
Radial Grid Type                 RadialGrid  ... OptM3 with GC (2021)
Angular Grid (max. ang.)         AngularGrid ... 4 (Lebedev-302)
Angular grid pruning method      GridPruning ... 4 (adaptive)
Weight generation scheme         WeightScheme... mBecke (2022)
Basis function cutoff            BFCut       ... 1.0000e-11
Integration weight cutoff        WCut        ... 1.0000e-14
Partially contracted basis set               ... off
Rotationally invariant grid construction     ... off
Angular grids for H and He will be reduced by one unit
Diffuse basis detected: some atoms will have their outermost
                        angular grid increased by 1.

Total number of grid points                  ...    91938
Total number of batches                      ...     1445
Average number of points per batch           ...       63
Average number of grid points per atom       ...     4839
Initializing property integral containers    ... done (  0.0 sec)

SHARK setup successfully completed in   1.3 seconds

Maximum memory used throughout the entire STARTUP-calculation: 42.6 MB
Occupation numbers will be reassigned to an Aufbau configuration
             **** ENERGY FILE WAS UPDATED (xtb_opt.en.tmp) ****
Finished Guess after   0.3 sec
Maximum memory used throughout the entire GUESS-calculation: 18.5 MB
--------------------
CPCM SOLVATION MODEL
--------------------
CPCM parameters:
  Epsilon                                         ...      78.3550
  Refrac                                          ...       1.3328
  Rsolv                                           ...       1.3000
  Surface type                                    ... GAUSSIAN VDW
  Discretization scheme                           ... Constant charge density
    Threshold for H atoms                         ...       5.0000 (charges/Ang^2)
    Threshold for non-H atoms                     ...       5.0000 (charges/Ang^2)
  Epsilon function type                           ...         CPCM
Solvent:                                          ... WATER
SMD-CDS solvent descriptors:
  Soln                                            ...       1.3328
  Soln25                                          ...       1.3323
  Sola                                            ...       0.0000
  Solb                                            ...       0.0000
  Solg                                            ...       0.0000
  Solc                                            ...       0.0000
  Solh                                            ...       0.0000
Radii:
  Scheme                                          ... Element-dependent radii
  Radius for C  used is    3.4960 Bohr (=   1.8500 Ang.)
  Radius for O  used is    2.8724 Bohr (=   1.5200 Ang.)
  Radius for H  used is    2.2677 Bohr (=   1.2000 Ang.)
Calculating surface                               ...        done! (  0.0s)
Cavity surface points                             ...         1481
Cavity Volume                                     ...    1003.2591
Cavity Surface-area                               ...     597.7993
Calculating surface distance matrix               ...        done! (  0.0s)
Performing Cholesky decomposition & store         ...        done! (  0.1s)
Overall time for CPCM initialization              ...                 0.1s

----------------------------------------D-I-I-S--------------------------------------------
Iteration    Energy (Eh)           Delta-E    RMSDP     MaxDP     DIISErr   Damp  Time(sec)
-------------------------------------------------------------------------------------------
               ***  Starting incremental Fock matrix formation  ***
                              *** Initializing SOSCF ***
---------------------------------------S-O-S-C-F--------------------------------------
Iteration    Energy (Eh)           Delta-E    RMSDP     MaxDP     MaxGrad    Time(sec)
--------------------------------------------------------------------------------------
    1    -461.0195868568531523     0.00e+00  3.96e-04  1.48e-02  2.80e-04     3.9
               *** Restarting incremental Fock matrix formation ***
    2    -461.0197234878359041    -1.37e-04  9.33e-05  2.99e-03  3.45e-04     4.1
    3    -461.0197236222298898    -1.34e-07  3.87e-05  1.27e-03  3.84e-04     3.4
    4    -461.0197338335531185    -1.02e-05  3.39e-05  1.46e-03  1.81e-04     3.3
    5    -461.0197330889355953     7.45e-07  1.71e-05  5.59e-04  2.00e-04     3.2
    6    -461.0197347102789536    -1.62e-06  5.22e-06  2.15e-04  2.27e-05     3.1
                  *** Gradient check signals convergence ***

               *****************************************************
               *                     SUCCESS                       *
               *           SCF CONVERGED AFTER   6 CYCLES          *
               *****************************************************


SMD CDS free energy correction energy :                 3.90215     Kcal/mol
Total Energy after SMD CDS correction =              -461.013516244 Eh
             **** ENERGY FILE WAS UPDATED (xtb_opt.en.tmp) ****

----------------
TOTAL SCF ENERGY
----------------

Total Energy       :       -461.01351624444027 Eh          -12544.81554 eV

Components:
Nuclear Repulsion  :        552.55079400835837 Eh           15035.67150 eV
Electronic Energy  :      -1013.55060474870595 Eh          -27580.11410 eV
One Electron Energy:      -1719.72414611167028 Eh          -46796.07308 eV
Two Electron Energy:        706.17354136296433 Eh           19215.95898 eV
CPCM Dielectric    :         -0.01992396993134 Eh              -0.54216 eV
SMD CDS (Gcds)     :          0.00621846583867 Eh               0.16921 eV

Virial components:
Potential Energy   :       -920.03768102827553 Eh          -25035.49808 eV
Kinetic Energy     :        459.02416478383520 Eh           12490.68254 eV
Virial Ratio       :          2.00433387087920

DFT components:
N(Alpha)           :       38.000062320195 electrons
N(Beta)            :       38.000062320195 electrons
N(Total)           :       76.000124640389 electrons
E(X)               :      -63.224772879270 Eh       
E(C)               :       -2.478362495910 Eh       
E(XC)              :      -65.703135375180 Eh       

CPCM Solvation Model Properties:
Surface-charge          :         -0.04684578422950
Corrected charge        :          0.00000000000000
Outlying charge corr.   :          0.00016229848211 Eh               0.00442 eV
Free-energy (cav+disp)  :          0.00621846583867 Eh               0.16921 eV

---------------
SCF CONVERGENCE
---------------

  Last Energy change         ...    1.6213e-06  Tolerance :   1.0000e-07
  Last MAX-Density change    ...    2.1501e-04  Tolerance :   1.0000e-07
  Last RMS-Density change    ...    5.2164e-06  Tolerance :   5.0000e-09
  Last DIIS Error            ...    2.7856e-03  Tolerance :   1.0000e-07
  Last Orbital Gradient      ...    2.2655e-05  Tolerance :   1.0000e-04
  Last Orbital Rotation      ...    9.0346e-05  Tolerance :   1.0000e-04


----------------
ORBITAL ENERGIES
----------------

  NO   OCC          E(Eh)            E(eV) 
   0   2.0000     -18.986498      -516.6489 
   1   2.0000     -10.103127      -274.9201 
   2   2.0000     -10.050553      -273.4894 
   3   2.0000     -10.049235      -273.4536 
   4   2.0000     -10.039126      -273.1785 
   5   2.0000     -10.038909      -273.1726 
   6   2.0000     -10.037950      -273.1465 
   7   2.0000     -10.037344      -273.1300 
   8   2.0000     -10.036798      -273.1151 
   9   2.0000     -10.033769      -273.0327 
  10   2.0000     -10.030732      -272.9501 
  11   2.0000      -1.029572       -28.0161 
  12   2.0000      -0.843956       -22.9652 
  13   2.0000      -0.790939       -21.5225 
  14   2.0000      -0.740099       -20.1391 
  15   2.0000      -0.714267       -19.4362 
  16   2.0000      -0.685636       -18.6571 
  17   2.0000      -0.602491       -16.3946 
  18   2.0000      -0.589332       -16.0365 
  19   2.0000      -0.569402       -15.4942 
  20   2.0000      -0.510814       -13.9000 
  21   2.0000      -0.485736       -13.2175 
  22   2.0000      -0.469670       -12.7804 
  23   2.0000      -0.446288       -12.1441 
  24   2.0000      -0.418898       -11.3988 
  25   2.0000      -0.397277       -10.8105 
  26   2.0000      -0.395078       -10.7506 
  27   2.0000      -0.392929       -10.6922 
  28   2.0000      -0.372349       -10.1321 
  29   2.0000      -0.355748        -9.6804 
  30   2.0000      -0.345315        -9.3965 
  31   2.0000      -0.339117        -9.2278 
  32   2.0000      -0.307732        -8.3738 
  33   2.0000      -0.303679        -8.2635 
  34   2.0000      -0.301697        -8.2096 
  35   2.0000      -0.253380        -6.8948 
  36   2.0000      -0.236654        -6.4397 
  37   2.0000      -0.193220        -5.2578 
  38   0.0000      -0.065715        -1.7882 
  39   0.0000      -0.041820        -1.1380 
  40   0.0000       0.003430         0.0933 
  41   0.0000       0.063646         1.7319 
  42   0.0000       0.074748         2.0340 
  43   0.0000       0.090534         2.4635 
  44   0.0000       0.110323         3.0020 
  45   0.0000       0.111997         3.0476 
  46   0.0000       0.121772         3.3136 
  47   0.0000       0.146952         3.9988 
  48   0.0000       0.149132         4.0581 
*Only the first 10 virtual orbitals were printed.
Total SCF time: 0 days 0 hours 0 min 21 sec 
Finished LeanSCF after  21.6 sec

Maximum memory used throughout the entire LEANSCF-calculation: 33.5 MB


-------------------------------------------------------------------------------
                          DFT DISPERSION CORRECTION                            
                                                                               
                                DFTD4 V3.4.0                                   
-------------------------------------------------------------------------------
-------------------------   ----------------
[...]
   1   2.0000     -10.103479      -274.9296 
   2   2.0000     -10.051778      -273.5228 
   3   2.0000     -10.050485      -273.4876 
   4   2.0000     -10.040121      -273.2056 
   5   2.0000     -10.040020      -273.2028 
   6   2.0000     -10.038655      -273.1657 
   7   2.0000     -10.038114      -273.1510 
   8   2.0000     -10.037609      -273.1372 
   9   2.0000     -10.035030      -273.0671 
  10   2.0000     -10.031715      -272.9768 
  11   2.0000      -1.027076       -27.9482 
  12   2.0000      -0.843328       -22.9481 
  13   2.0000      -0.790615       -21.5137 
  14   2.0000      -0.739924       -20.1344 
  15   2.0000      -0.714132       -19.4325 
  16   2.0000      -0.685572       -18.6554 
  17   2.0000      -0.602043       -16.3824 
  18   2.0000      -0.589098       -16.0302 
  19   2.0000      -0.568376       -15.4663 
  20   2.0000      -0.509435       -13.8624 
  21   2.0000      -0.485732       -13.2175 
  22   2.0000      -0.469396       -12.7729 
  23   2.0000      -0.445921       -12.1341 
  24   2.0000      -0.418528       -11.3887 
  25   2.0000      -0.397177       -10.8077 
  26   2.0000      -0.394024       -10.7219 
  27   2.0000      -0.393193       -10.6993 
  28   2.0000      -0.372471       -10.1355 
  29   2.0000      -0.356530        -9.7017 
  30   2.0000      -0.344368        -9.3707 
  31   2.0000      -0.339417        -9.2360 
  32   2.0000      -0.307917        -8.3788 
  33   2.0000      -0.303500        -8.2586 
  34   2.0000      -0.302440        -8.2298 
  35   2.0000      -0.253571        -6.9000 
  36   2.0000      -0.236724        -6.4416 
  37   2.0000      -0.193638        -5.2691 
  38   0.0000      -0.066505        -1.8097 
  39   0.0000      -0.042683        -1.1615 
  40   0.0000       0.003009         0.0819 
  41   0.0000       0.062617         1.7039 
  42   0.0000       0.074417         2.0250 
  43   0.0000       0.090093         2.4515 
  44   0.0000       0.109789         2.9875 
  45   0.0000       0.111388         3.0310 
  46   0.0000       0.121629         3.3097 
  47   0.0000       0.146461         3.9854 
  48   0.0000       0.148732         4.0472 
*Only the first 10 virtual orbitals were printed.
Total SCF time: 0 days 0 hours 0 min 8 sec 
Finished LeanSCF after   8.5 sec

Maximum memory used throughout the entire LEANSCF-calculation: 33.5 MB


-------------------------------------------------------------------------------
                          DFT DISPERSION CORRECTION                            
                                                                               
                                DFTD4 V3.4.0                                   
-------------------------------------------------------------------------------
-------------------------   ----------------
Dispersion correction           -0.007467510
-------------------------   ----------------

------------------   -----------------
gCP correction             0.004853466
------------------   -----------------

-------------------------   --------------------
FINAL SINGLE POINT ENERGY      -461.016245064032
-------------------------   --------------------

------------------------------------------------------------------------------
                         ORCA SCF GRADIENT CALCULATION
------------------------------------------------------------------------------

Nuc. rep. gradient        (SHARK) ... done (  0.0 sec)
HCore & Overlap gradient  (SHARK) ... done (  0.4 sec)
Split-RIJ-J gradient      (SHARK) ... done (  2.3 sec)
XC gradient                       ... done (  6.9 sec)
CPCM gradient                     ... done (  1.1 sec)
SMD gradient                      ... done (  0.0 sec)
Dispersion correction             ... done (  0.0 sec)

-------------------
DISPERSION GRADIENT
-------------------

   1   C   :   -0.000122010   -0.000004117   -0.000000001
   2   C   :   -0.000109735    0.000061280    0.000000002
   3   C   :   -0.000061909    0.000097044    0.000000003
   4   C   :    0.000003577    0.000035708    0.000000001
   5   C   :   -0.000022074   -0.000054427   -0.000000002
   6   C   :   -0.000098998   -0.000065026   -0.000000003
   7   C   :    0.000042015   -0.000115065   -0.000000002
   8   C   :    0.000096885   -0.000082818   -0.000000001
   9   C   :    0.000117814   -0.000006211    0.000000000
  10   C   :    0.000090133    0.000053286    0.000000001
  11   O   :    0.000087257    0.000094314    0.000000000
  12   H   :   -0.000043422   -0.000006236   -0.000000000
  13   H   :   -0.000035588    0.000028286    0.000000001
  14   H   :   -0.000009905    0.000052083    0.000000002
  15   H   :   -0.000035349   -0.000039766   -0.000000002
  16   H   :    0.000007901   -0.000053461   -0.000000001
  17   H   :    0.000033406   -0.000032734   -0.000000000
  18   H   :    0.000044719    0.000003725    0.000000000
  19   H   :    0.000015282    0.000034134    0.000000001

Difference to translation invariance:
           :    0.0000000000    0.0000000000   -0.0000000000

Difference to rotation invariance:
           :    0.0000000000    0.0000000000    0.0000000000

Norm of the Dispersion gradient    ...    0.0003918056
RMS gradient                       ...    0.0000518959
MAX gradient                       ...    0.0001220102
gCP correction                   ... done

------------------
CARTESIAN GRADIENT
------------------

   1   C   :   -0.000012606    0.000058147    0.000000259
   2   C   :    0.000021941   -0.000036639   -0.000000491
   3   C   :    0.000179636   -0.000037873    0.000000123
   4   C   :    0.000064675    0.000194586    0.000000124
   5   C   :   -0.000059954   -0.000093824   -0.000000180
   6   C   :    0.000014346    0.000038617    0.000000189
   7   C   :    0.000032275    0.000069554    0.000000374
   8   C   :   -0.000104243    0.000034056   -0.000000565
   9   C   :    0.000125490   -0.000144798   -0.000000157
  10   C   :   -0.000175231   -0.000272248    0.000000004
  11   O   :    0.000102406    0.000300413    0.000000180
  12   H   :    0.000021833    0.000006843   -0.000000081
  13   H   :    0.000049234   -0.000002565    0.000000338
  14   H   :   -0.000144274   -0.000041221    0.000000123
  15   H   :   -0.000038016    0.000020886   -0.000000470
  16   H   :    0.000007837    0.000016698   -0.000000006
  17   H   :   -0.000003691   -0.000026448    0.000000506
  18   H   :   -0.000052671    0.000033258    0.000000183
  19   H   :   -0.000028987   -0.000117441   -0.000000453

Difference to translation invariance:
           :    0.0000000000    0.0000000000    0.0000000000

Difference to rotation invariance:
           :    0.0000001049   -0.0000000729   -0.0013238380

Norm of the Cartesian gradient     ...    0.0006342758
RMS gradient                       ...    0.0000840119
MAX gradient                       ...    0.0003004125

-------
TIMINGS
-------

Total SCF gradient time     ....       11.490 sec

Densities                   ....       0.001 sec  (  0.0%)
One electron gradient       ....       0.360 sec  (  3.1%)
RI-J Coulomb gradient       ....       2.258 sec  ( 19.7%)
XC gradient                 ....       6.906 sec  ( 60.1%)
CPCM gradient               ....       1.088 sec  (  9.5%)
   A-Matrix (El+Nuc)        ....       0.067 sec  (  0.6%)
   Potential                ....       1.022 sec  (  8.9%)
SMD gradient                ....       0.011 sec  (  0.1%)

Maximum memory used throughout the entire SCFGRAD-calculation: 38.9 MB

------------------------------------------------------------------------------
                              ORCA PROPERTY CALCULATIONS
------------------------------------------------------------------------------

GBWName                                 ... xtb_opt.gbw
Number of atoms                         ...     19
Number of basis functions               ...    254
Max core memory                         ...   1024 MB

Electric properties:
Dipole moment                           ... YES
Quadrupole moment                       ...  NO
Static polarizability (Dipole/Dipole)   ...  NO
Static polarizability (Dipole/Quad.)    ...  NO
Static polarizability (Quad./Quad.)     ...  NO
Static polarizability (Velocity)        ...  NO

Atomic electric properties:
Dipole moment                           ...  NO
Quadrupole moment                       ...  NO
Static polarizability                   ...  NO

Choice of electric origin               ... Center of mass
Position of electric origin             ...     0.003197     0.001731     0.000127

General magnetic properties:
Magnetizability                         ...  NO

EPR properties:
g-Tensor (aka g-matrix)                 ...  NO
Zero-Field splitting spin-orbit         ...  NO
Zero-field splitting spin-spin          ...  NO
Hyperfine couplings                     ...  NO (   0 nuclei)
Quadrupole couplings                    ...  NO (   0 nuclei)
Contact density                         ...  NO (   0 nuclei)

NMR properties:
Chemical shifts                         ...  NO (   0 nuclei)
Spin-rotation constants                 ...  NO (   0 nuclei)
Spin-spin couplings                     ...  NO (   0 nuclei,    0 pairs)

Choice of magnetic origin               ... GIAO
Position of magnetic origin             ...     0.000000     0.000000     0.000000

Properties with geometric perturbations:
SCF Hessian                             ...  NO
IR spectrum                             ...  NO
VCD spectrum                            ...  NO
X-ray spectroscopy properties:
SCF XES/XAS/RIXS spectra                ...  NO


-------------
DIPOLE MOMENT
-------------

Method             : SCF
Type of density    : Electron Density
Multiplicity       :   1
Irrep              :   0
Energy             :  -461.0136310199085869 Eh
Relativity type    : 
Basis              : AO
                                X                 Y                 Z
Electronic contribution:      1.425749447       1.466013416       0.000010734
Nuclear contribution   :     -0.696290217      -1.579238133      -0.000036694
                        -----------------------------------------
Total Dipole Moment    :      0.729459230      -0.113224717      -0.000025960
                        -----------------------------------------
Magnitude (a.u.)       :      0.738194152
Magnitude (Debye)      :      1.876340418



--------------------
Rotational spectrum 
--------------------
 
Rotational constants in cm-1:             0.064907             0.037757             0.023871 
Rotational constants in MHz :          1945.853131          1131.925727           715.633358 

Dipole components along the rotational axes: 
x,y,z [a.u.] :     0.729837    -0.110766    -0.000024 
x,y,z [Debye]:     1.855097    -0.281544    -0.000061 

 

Dipole moment calculation done in   0.0 sec 

Maximum memory used throughout the entire PROP-calculation: 17.6 MB

--------------------------------
SUGGESTED CITATIONS FOR THIS RUN
--------------------------------

Below you find a list of papers that are relevant to this ORCA run
We neither can nor want to force you to cite these papers, but we appreciate if you do
You receive ORCA, which is the product of decades of hard work by many enthusiastic individuals, for free
The only thing we kindly ask in return is that you cite our papers,
We deeply appreciate it, if you show your appreciation for ORCA by not just citing the generic ORCA reference.

Please note that relegating all ORCA citations to the supporting information does *not* help us.
SI sections are not indexed - citations you put there will not count into any citation statistics
But we need these citations in order to attract the funding resources that allow us to do what we are doing

Therefore, if you are a happy ORCA user, please consider citing a few of the papers listed below in the main body of your paper

In addition to the list printed below, the program has created the file xtb_opt.bibtex that contains the list in bibtex format
You can import this file easily into all common literature databanks and citation aid programs


List of essential papers. We consider these as the minimum necessary citations

  1. Neese,F.
     Software update: the ORCA program system, version 5.0
     WIRES Comput. Molec. Sci., 2022 12(1)e1606
     doi.org/10.1002/wcms.1606
  2. Grimme,S.; Hansen,A.; Ehlert,S.; Mewes,J.
     r2SCAN-3c: A 'Swiss army knife' composite electronic-structure method
     J. Chem. Phys., 2021 154 064103
     doi.org/10.1063/5.0040021

List of papers to cite with high priority. The work reported in these papers was absolutely
necessary for this run to complete.
Our perspective: the developers of density functionals and basis sets usually get cited in chemistry papers
Good! But without the algorithms to do something with them, the functionals or basis sets would not do anything.
Hence, in our opinion, the algorithm design and method developments papers are equally worthy of getting cited

  1. Neese,F.
     An improvement of the resolution of the identity approximation for the formation of the Coulomb matrix
     J. Comp. Chem., 2003 24(14)1740-1747
     doi.org/10.1002/jcc.10318
  2. Garcia-Rates,M.; Neese,F.
     Effect of the Solute Cavity on the Solvation Energy and its Derivatives within the Framework of the Gaussian Charge Scheme
     J. Comput. Chem., 2020 41 922-939
     doi.org/10.1002/jcc.26139
  3. Neese,F.
     The SHARK Integral Generation and Digestion System
     J. Comp. Chem., 2022  1-16
     doi.org/10.1002/jcc.26942
  4. Lehtola,S.; Steigemann,C.; Oliveira,M.; Marques,M.
     Recent developments in Libxc - A comprehensive library of functionals for density functional theory
     Software X, 2018 7 
     doi.org/10.1016/j.softx.2017.11.002
  5. Caldeweyher,E.; Bannwarth,C.; Grimme,S.
     Extension of the D3 dispersion coefficient model
     J. Chem. Phys., 2017 147 034112-XXXX
     doi.org/10.1063/1.4993215
  6. Caldeweyher,E.; Ehlert,S.; Hansen,A.; Neugebauer,H.; Spicher,S.; Bannwarth,C.; Grimme,S.
     A generally applicable atomic-charge dependent London dispersion correction
     J. Chem. Phys., 2019 150 154122-XXXX
     doi.org/10.1063/1.5090222
  7. Caldeweyher,E.; Mewes,J.; Ehlert,S.; Grimme,S.
     Extension and evaluation of the D4 London-dispersion model for periodic systems
     Phys. Chem. Chem. Phys., 2020 22(16)8499-8512
     doi.org/10.1039/D0CP00502A

List of suggested additional citations. These are papers that are important in the 'surrounding' of 
of this run, or papers that preceded the highly important papers. If you like your results we are grateful for a citation.

  1. Neese,F.
     The ORCA program system
     WIRES Comput. Molec. Sci., 2012 2(1)73-78
     doi.org/10.1002/wcms.81
  2. Neese,F.
     Software update: the ORCA program system, version 4.0
     WIRES Comput. Molec. Sci., 2018 8(1)1-6
     doi.org/10.1002/wcms.1327
  3. Neese,F.; Wennmohs,F.; Becker,U.; Riplinger,C.
     The ORCA quantum chemistry program package
     J. Chem. Phys., 2020 152 Art. No. L224108
     doi.org/10.1063/5.0004608

List of optional additional citations

  1. Neese,F.
     Approximate second-order SCF convergence for spin unrestricted wavefunctions
     Chem. Phys. Lett., 2000 325(1-3)93-98
     doi.org/10.1016/s0009-2614(00)00662-x

Timings for individual modules:

Sum of individual times          ...       21.719 sec (=   0.362 min)
Startup calculation              ...        1.249 sec (=   0.021 min)   5.8 %
SCF iterations                   ...        8.772 sec (=   0.146 min)  40.4 %
Property calculations            ...        0.113 sec (=   0.002 min)   0.5 %
SCF Gradient evaluation          ...       11.584 sec (=   0.193 min)  53.3 %
                             ****ORCA TERMINATED NORMALLY****
TOTAL RUN TIME: 0 days 0 hours 0 minutes 22 seconds 579 msec
  ------------------------------------------------------------------------
          * successful ORCA run, taking over control again...

         :::::::::::::::::::::::::::::::::::::::::::::::::::::
         ::                  ORCA SUMMARY                   ::
         :::::::::::::::::::::::::::::::::::::::::::::::::::::
         :: total energy            -461.016245064032 Eh    ::
         :: gradient norm              0.000634275822 Eh/a0 ::
         :: HOMO-LUMO gap              0.000000000000 eV    ::
         :::::::::::::::::::::::::::::::::::::::::::::::::::::

           -------------------------------------------------
          |                Property Printout                |
           -------------------------------------------------
           -------------------------------------------------
          |                Geometry Summary                 |
           -------------------------------------------------

      molecular mass/u    :      144.1702899
   center of mass at/Å    :        0.0017009       0.0009271       0.0000672
  moments of inertia/u·Å² :        0.2597176E+03   0.4464680E+03   0.7061856E+03
rotational constants/cm⁻¹ :        0.6490755E-01   0.3775776E-01   0.2387139E-01

 * 20 selected distances

     #   Z          #   Z                                           value/Å
     1   6 C        2   6 C                                       1.4108799
     2   6 C        3   6 C                                       1.3759277
     3   6 C        4   6 C                                       1.4151592
     4   6 C        5   6 C                                       1.4320072 (max)
     1   6 C        6   6 C                                       1.3748870
     5   6 C        6   6 C                                       1.4169579
     5   6 C        7   6 C                                       1.4167883
     7   6 C        8   6 C                                       1.3745794
     8   6 C        9   6 C                                       1.4091102
     4   6 C       10   6 C                                       1.4228674
     9   6 C       10   6 C                                       1.3781788
    10   6 C       11   8 O                                       1.3726544
     1   6 C       12   1 H                                       1.0854613
     2   6 C       13   1 H                                       1.0852955
     3   6 C       14   1 H                                       1.0839685
     6   6 C       15   1 H                                       1.0863721
     7   6 C       16   1 H                                       1.0855774
     8   6 C       17   1 H                                       1.0855498
     9   6 C       18   1 H                                       1.0864591
    11   8 O       19   1 H                                       0.9676681 (min)

 * 4 distinct bonds (by element types)

   Z      Z             #   av. dist./Å        max./Å        min./Å
   1 H    6 C           7     1.0855262     1.0864591     1.0839685
   6 C    6 C          11     1.4024857     1.4320072     1.3745794
   1 H    8 O           1     0.9676681     0.9676681     0.9676681
   6 C    8 O           1     1.3726544     1.3726544     1.3726544


optimized geometry written to: xtbopt.coord


           -------------------------------------------------
          | TOTAL ENERGY             -461.016245064032 Eh   |
          | GRADIENT NORM               0.000634275822 Eh/α |
           -------------------------------------------------

------------------------------------------------------------------------
 * finished run on 2025/04/03 at 21:39:46.014     
------------------------------------------------------------------------
 total:
 * wall-time:     0 d,  0 h,  3 min,  4.334 sec
 *  cpu-time:     0 d,  0 h,  0 min,  0.408 sec
 * ratio c/w:     0.002 speedup
 SCF:
 * wall-time:     0 d,  0 h,  0 min, 29.652 sec
 *  cpu-time:     0 d,  0 h,  0 min,  0.198 sec
 * ratio c/w:     0.007 speedup
 ANC optimizer:
 * wall-time:     0 d,  0 h,  2 min, 34.660 sec
 *  cpu-time:     0 d,  0 h,  0 min,  0.207 sec
 * ratio c/w:     0.001 speedup

