24
 energy: -43.384001153736 gnorm: 0.058939250321 xtb: 6.7.1 (edcfbbe)
C           -2.55245782932062       -0.94120272235251        0.36482247666366
C           -1.13930133394868       -0.44775146958697        0.60761865053451
H           -0.98180236265740       -0.38010351962268        1.69822012085096
C           -0.84227111453226        0.91336957978631       -0.02841845945570
H           -1.05095840266254        0.86753105465710       -1.10271108764475
C            0.62559794827814        1.26628881748847        0.18858431372227
H            0.79767623166553        1.40107792335376        1.27006098291990
C            1.53248432001366        0.15129502850786       -0.31071233724822
H            1.41585598819630        0.04925979518428       -1.40261350218846
C            1.12884591891315       -1.17005450349015        0.33798254028007
H            1.27861079346754       -1.13043840439002        1.42715738702001
O           -0.24781586033610       -1.43322527975954        0.04964954381199
O            1.88074538539238       -2.25620086925434       -0.13169914129127
O            2.89887014652141        0.39706771875543        0.02891414113374
O            0.99412528273455        2.45778295736495       -0.51545128192086
O           -1.69227489200888        1.93749738745291        0.49765308395015
O           -2.88947370534091       -1.02078933339689       -1.02501558032926
H           -3.25718801924385       -0.24131629515099        0.82083667760409
H           -2.67363402411122       -1.91904858124726        0.85001617233383
H            1.89710650550150       -2.21790613161175       -1.10005366272024
H            3.13560180446152        1.25633376211603       -0.34587664876845
H            0.46416397854070        3.17969115718072       -0.15083614527321
H           -1.53387251989049        1.98855240572666        1.45187914009111
H           -2.30351597477123       -1.67522260635455       -1.42781615988313
24
 energy: -43.386947786457 gnorm: 0.030142224258 xtb: 6.7.1 (edcfbbe)
C           -2.55467204043536       -0.93826816709590        0.35878495504932
C           -1.12937961505535       -0.45420908122706        0.60873684107383
H           -0.96471149176725       -0.39516075317230        1.69694956222312
C           -0.84342358596375        0.91713311030451       -0.01989343626884
H           -1.06663366619512        0.88115211375202       -1.09086749520043
C            0.63089821577397        1.27406073592647        0.19271362276183
H            0.81607961348560        1.41268906741177        1.27036141577928
C            1.53661215874761        0.15215878422379       -0.30873884726364
H            1.42294313706278        0.06625511270731       -1.39997145913418
C            1.12511035071328       -1.17546888773214        0.33229930462029
H            1.28552792767999       -1.13448763562448        1.41889801934940
O           -0.24614695256319       -1.43431276699254        0.05746886077847
O            1.86537700284221       -2.25582385224181       -0.12342986808731
O            2.88994029953236        0.39891333009679        0.02292550270556
O            0.99565318359684        2.45382069090387       -0.50857985431949
O           -1.68298728154858        1.93040326138957        0.50696741061959
O           -2.87339147968547       -1.02137387533868       -1.01801273318228
H           -3.26308859151787       -0.22872337955857        0.79134911726386
H           -2.68159279965038       -1.91715400969293        0.83552557224867
H            1.87747495218658       -2.24512129266777       -1.09346359410442
H            3.12809508746334        1.26348152243746       -0.34426246400140
H            0.44554540791961        3.18070361151721       -0.18127531515422
H           -1.54011072515638        1.98222869362280        1.46372415151705
H           -2.28800084260325       -1.68040846159257       -1.41601804508135
24
 energy: -43.388203936692 gnorm: 0.007988970924 xtb: 6.7.1 (edcfbbe)
C           -2.55360186211196       -0.93560466331573        0.34513537104406
C           -1.11839374067993       -0.45880064394633        0.61434961068397
H           -0.95459471624143       -0.40758181903900        1.70266624734713
C           -0.84617549583003        0.92600249736960       -0.00091084049647
H           -1.07943590536546        0.89832674247547       -1.06992437503625
C            0.63671583033907        1.28252251415929        0.19571772697631
H            0.83134200089128        1.41972490083403        1.27205779599285
C            1.54312294739097        0.15451933526448       -0.31060781853273
H            1.42403260265160        0.08076321189854       -1.40209685024456
C            1.12214314137952       -1.17951093620056        0.32541209269825
H            1.29405738810306       -1.13070974501974        1.41205590107633
O           -0.24454114541922       -1.42802522201915        0.06187928577716
O            1.84951229232325       -2.25340901948269       -0.12008845825061
O            2.88374394477120        0.39457246649818        0.01902391948910
O            0.99774646980254        2.44809879451044       -0.50531467333497
O           -1.67610647496916        1.92443071015646        0.53165853832907
O           -2.84497214056162       -1.02601453428132       -1.02243709742025
H           -3.25843694939364       -0.21049036409086        0.75527134899128
H           -2.68992200555612       -1.90714925273325        0.83225410391525
H            1.84491680387552       -2.28397564908208       -1.09214822356910
H            3.12835827552439        1.26553130956174       -0.33376347723062
H            0.41070512919063        3.17689546210979       -0.23664376921436
H           -1.55520863423680        1.97307527104879        1.49221150151253
H           -2.25988949101544       -1.69070349531929       -1.41356663631071
24
 energy: -43.388449421245 gnorm: 0.008380061785 xtb: 6.7.1 (edcfbbe)
C           -2.55314878651626       -0.93263863769622        0.33713432408078
C           -1.11707353124193       -0.45828710699174        0.61784619049322
H           -0.95922881705167       -0.41023158476869        1.70770097460820
C           -0.84630126217867        0.93051773861770        0.00977612862602
H           -1.08387330367248        0.90577221274116       -1.05890567223422
C            0.63906112784949        1.28599820353008        0.19646858289383
H            0.83912638698993        1.42183286227348        1.27318116686049
C            1.54433767204195        0.15653490552799       -0.31322003054999
H            1.41976975444995        0.08387627731779       -1.40494862467601
C            1.12241450202756       -1.17943730320099        0.32300838301613
H            1.29697414840148       -1.12588780322708        1.41023365787523
O           -0.24474749110402       -1.42382801759049        0.06215371028289
O            1.84645022608375       -2.25477210973506       -0.12131505175332
O            2.88448105271987        0.39240147217884        0.01642513222546
O            0.99506792123151        2.44906040437439       -0.50825979850399
O           -1.67157238776255        1.92552077691410        0.55196271410731
O           -2.82546176808214       -1.03401729773384       -1.03279309971898
H           -3.25724224225485       -0.19933838710858        0.73471928218492
H           -2.69882163305312       -1.89769754934752        0.83602348976004
H            1.82608734837421       -2.30346239686971       -1.09278576657745
H            3.13208930716955        1.26528748770850       -0.32932188690639
H            0.39078163603463        3.17181944361420       -0.26311991358380
H           -1.55685327808272        1.96580758014089        1.51368472368030
H           -2.23719831751126       -1.70234329931236       -1.41345739199808
24
 energy: -43.388739126381 gnorm: 0.007705888962 xtb: 6.7.1 (edcfbbe)
C           -2.55230890799466       -0.92536937367675        0.32185432883004
C           -1.11722524139801       -0.45627517227307        0.62347262612471
H           -0.97133331628890       -0.41599456864183        1.71623645963841
C           -0.84489356803176        0.93775517932669        0.02895096083992
H           -1.09262987750275        0.92066980028058       -1.03857114878109
C            0.64344080447720        1.29028889207989        0.19758246843282
H            0.85476722153737        1.42614875974645        1.27403588681054
C            1.54558589930227        0.16006745684744       -0.31879355272676
H            1.41349949333460        0.08783588780731       -1.41069462101709
C            1.12288789996763       -1.17685410796567        0.32059982486658
H            1.30053124976119       -1.11810423462483        1.40820001280473
O           -0.24577777390214       -1.41733939295072        0.06196689556676
O            1.84401211417356       -2.25550773996000       -0.12370518513998
O            2.88792624022833        0.38966971022696        0.00951503755444
O            0.98874733943710        2.45299594211256       -0.51304983196144
O           -1.66023912908959        1.93037006479040        0.59192309778673
O           -2.78983321186860       -1.05431102948289       -1.05373774742648
H           -3.25665925454078       -0.17582678882018        0.69043723077503
H           -2.72035671816657       -1.87670702422637        0.84340413184921
H            1.78905570925908       -2.33350470779087       -1.09220717490299
H            3.13934579218864        1.26496095838531       -0.32535636934729
H            0.35158559714734        3.15785585095833       -0.30657625809348
H           -1.55221748766524        1.94977096860797        1.55507925436151
H           -2.19279260950309       -1.73010745939991       -1.40837510265232
24
 energy: -43.388863379486 gnorm: 0.005564916462 xtb: 6.7.1 (edcfbbe)
C           -2.55169300981848       -0.91981677013175        0.31237705225802
C           -1.11825676915236       -0.45533389859917        0.62555900940842
H           -0.97849783094545       -0.42179080669540        1.71942484666583
C           -0.84276031980703        0.94089942517529        0.03970790858652
H           -1.09868425948125        0.93120938404663       -1.02626668760519
C            0.64619141199972        1.29163433080092        0.19863838392868
H            0.86484097984652        1.42941403757659        1.27371280736675
C            1.54546616953144        0.16164987331189       -0.32155937137570
H            1.41121865861912        0.08896737340789       -1.41304233037164
C            1.12304443741794       -1.17433675508739        0.32053102162629
H            1.30157257832900       -1.11475246618439        1.40755480350970
O           -0.24602576420805       -1.41504692446336        0.06183197840736
O            1.84433196560721       -2.25450697556254       -0.12352126777632
O            2.89008978810649        0.38899780977195        0.00338452159197
O            0.98423231090676        2.45661331416963       -0.51379938472723
O           -1.65104116261111        1.93359721654965        0.61595976964942
O           -2.77066602445998       -1.06787076080515       -1.06505399590123
H           -3.25615243925567       -0.16004686535403        0.65954806797677
H           -2.73589840416771       -1.86211777061764        0.84508679482690
H            1.76734061449459       -2.34668774358474       -1.08832793200349
H            3.14186197477042        1.26494788313823       -0.32789048739686
H            0.32475874026955        3.14585433107222       -0.32966948830849
H           -1.54332965000358        1.93830809832011        1.57922673087225
H           -2.16682573112586       -1.74729746889864       -1.40122152701631
24
 energy: -43.388942925379 gnorm: 0.002063867196 xtb: 6.7.1 (edcfbbe)
C           -2.55124812782452       -0.91470706640578        0.30506506136779
C           -1.11949010110660       -0.45535402781123        0.62615177429049
H           -0.98288950218633       -0.42814578423013        1.72005590329643
C           -0.84025964628279        0.94183061493503        0.04681586171847
H           -1.10323700135824        0.93983438191114       -1.01726429829551
C            0.64815053283250        1.29133382010273        0.20033911179735
H            0.87251005875669        1.43128154849894        1.27334903401215
C            1.54463210656470        0.16234928103182       -0.32315380695121
H            1.40977539519571        0.08888077104479       -1.41386359668359
C            1.12332467814967       -1.17166573496978        0.32164703748327
H            1.30201574339840       -1.11241500886153        1.40766494568197
O           -0.24531070901966       -1.41514484147593        0.06230803454349
O            1.84633986803388       -2.25233361554641       -0.12135793265407
O            2.89152031621825        0.38952658665118       -0.00341665192586
O            0.97997813857624        2.46028010691410       -0.51118826820516
O           -1.64320863979123        1.93500707307639        0.63256865782869
O           -2.75829664570824       -1.07783990157284       -1.07219778273354
H           -3.25455695810956       -0.14672062222750        0.63356057655440
H           -2.74935393760410       -1.84959134199248        0.84360787994087
H            1.75131791794931       -2.35360658471261       -1.08199445403602
H            3.14135335670804        1.26552855754891       -0.33518841902291
H            0.30183840166016        3.13313221119049       -0.34324318440100
H           -1.53154496029079        1.92939284059571        1.59496482223277
H           -2.14824201989924       -1.75836539233822       -1.39303908164689
24
 energy: -43.388958443139 gnorm: 0.001559526263 xtb: 6.7.1 (edcfbbe)
C           -2.55129594639283       -0.91230585900074        0.30231910366446
C           -1.11963092405237       -0.45593532548596        0.62642518932747
H           -0.98348299100486       -0.43082986201352        1.71999243737593
C           -0.83900326409768        0.94150077481597        0.04891020925031
H           -1.10362221084958        0.94253784554652       -1.01442361204687
C            0.64893849609988        1.29076366483517        0.20254399318542
H            0.87465751422490        1.43023909865251        1.27474727746855
C            1.54416860330701        0.16253016805609       -0.32336655778358
H            1.40817776025318        0.08934327794317       -1.41365572664667
C            1.12377614229046       -1.17074547848601        0.32221562420605
H            1.30315414463294       -1.11140823875958        1.40776085214402
O           -0.24431478469114       -1.41615696001125        0.06349470498456
O            1.84747208406710       -2.25111615079588       -0.12014098038295
O            2.89180145193208        0.39023065631615       -0.00731323739708
O            0.97901911998394        2.46214311251615       -0.50648147139888
O           -1.64111410194889        1.93410572277623        0.63668114927462
O           -2.75338574030044       -1.08104860889117       -1.07472159623329
H           -3.25306555554807       -0.14010871677866        0.62286040475770
H           -2.75531742722996       -1.84406938747040        0.84287689688712
H            1.74439404573305       -2.35666746191587       -1.07937410571552
H            3.13969206521351        1.26621961590082       -0.34118915499967
H            0.29074887785286        3.12734101085117       -0.34711908081528
H           -1.52573331238533        1.92770837574901        1.59842066145335
H           -2.14091578222752       -1.76178340299314       -1.38927175636742
24
 energy: -43.388963710013 gnorm: 0.001867124325 xtb: 6.7.1 (edcfbbe)
C           -2.55152267380011       -0.91098451035591        0.30104756782193
C           -1.11975515912191       -0.45657416679850        0.62672730697842
H           -0.98352972179434       -0.43155552757722        1.71990867332861
C           -0.83849389239467        0.94062814248255        0.04894151357932
H           -1.10173238676214        0.94195343853525       -1.01434178832283
C            0.64878387121153        1.28989305209928        0.20527146246569
H            0.87468079445088        1.42644428725714        1.27738576507485
C            1.54300465377383        0.16253014893328       -0.32360266197783
H            1.40432717011951        0.08967958363932       -1.41346111542893
C            1.12429270645659       -1.17040638265593        0.32282411039728
H            1.30461813360773       -1.11062454297472        1.40816846379410
O           -0.24330830493075       -1.41769243664317        0.06523439688799
O            1.84849062771496       -2.25044534116115       -0.11930152973248
O            2.89139919636357        0.39122697475746       -0.01182507260950
O            0.97827755539526        2.46427091405836       -0.49968480407651
O           -1.64217202606665        1.93266238730925        0.63502374445538
O           -2.75044399043532       -1.08342924721267       -1.07610075599745
H           -3.25136658981897       -0.13557391372947        0.61659594741200
H           -2.75953729736161       -1.84051511736713        0.84304435942492
H            1.74216520835397       -2.35721844062838       -1.07754436475872
H            3.13679375606125        1.26682064714470       -0.34963262293276
H            0.28775416239642        3.12429113214722       -0.34215129208495
H           -1.52105109516107        1.93146127022372        1.59602423563884
H           -2.13655643339570       -1.76435448012652       -1.38636031514505
24
 energy: -43.388969327415 gnorm: 0.001549105803 xtb: 6.7.1 (edcfbbe)
C           -2.55157327962025       -0.91011169093863        0.29992828751982
C           -1.11950996334491       -0.45679961045653        0.62729203853483
H           -0.98401484886212       -0.43169038487851        1.72053932237740
C           -0.83787584400811        0.94063087988764        0.04952532451108
H           -1.09905800681400        0.94125813141654       -1.01427147279019
C            0.64920042630821        1.28968008395372        0.20854506931231
H            0.87400865659936        1.42257990964312        1.28134549619314
C            1.54262165074739        0.16286730579344       -0.32354479076145
H            1.40065295242963        0.09097066723246       -1.41316456358374
C            1.12464405980307       -1.17060535604623        0.32275486127853
H            1.30619087202152       -1.11059231955596        1.40809174835738
O           -0.24287010214881       -1.41812758909888        0.06637556363366
O            1.84852266611276       -2.25032958631838       -0.11995515255123
O            2.89152085139666        0.39139741284601       -0.01510578303958
O            0.98003482552270        2.46598975406477       -0.49224398321616
O           -1.64309104355753        1.93201395671151        0.63393280859615
O           -2.74728524561931       -1.08570654158089       -1.07739025241085
H           -3.25022048513319       -0.13209576048963        0.61184698072507
H           -2.76271648453580       -1.83780606248134        0.84404090635090
H            1.73993904641319       -2.35876903253855       -1.07793209396441
H            3.13587162221950        1.26663089143988       -0.35520916616113
H            0.28120033424384        3.12260483929351       -0.34346717781987
H           -1.51832424306465        1.93604664267169        1.59477698283470
H           -2.13275015224691       -1.76754866921399       -1.38451972973401
24
 energy: -43.388973340571 gnorm: 0.000702998523 xtb: 6.7.1 (edcfbbe)
C           -2.55149605276544       -0.91126547038261        0.30083484519929
C           -1.11959904018470       -0.45654493020881        0.62739935257101
H           -0.98462181412525       -0.43019371509523        1.72093276245118
C           -0.83822732423101        0.94071095901142        0.04851467303188
H           -1.09696801754011        0.93876557054372       -1.01619775808234
C            0.64879097918653        1.28971469346673        0.20935736192204
H            0.87224631752480        1.42010797714720        1.28317000125180
C            1.54231609614044        0.16310140648262       -0.32377933200571
H            1.39875665836799        0.09133928244641       -1.41333625004660
C            1.12456443331330       -1.17091999258315        0.32250922990768
H            1.30638429362759       -1.11088085150318        1.40796935649251
O           -0.24336495964227       -1.41770239412175        0.06649962333179
O            1.84829316289004       -2.25058110640740       -0.12085656665893
O            2.89135212954778        0.39114936994252       -0.01579751527937
O            0.98149191743306        2.46637593344332       -0.48940341400730
O           -1.64489476414259        1.93267825844805        0.62988778586607
O           -2.74866506671486       -1.08610661761831       -1.07632818669471
H           -3.25078808152289       -0.13460202401757        0.61490605931228
H           -2.76083057078076       -1.83949398841843        0.84499567790572
H            1.74288087245093       -2.35765808226951       -1.07962738798488
H            3.13635711152305        1.26609345892177       -0.35573375279461
H            0.28572643666071        3.12517678913520       -0.33951194033664
H           -1.51950204565112        1.94150213143924        1.59087882252978
H           -2.13508440650299       -1.76827878644547       -1.38509222368959
24
 energy: -43.388974507220 gnorm: 0.000461385106 xtb: 6.7.1 (edcfbbe)
C           -2.55151807053760       -0.91117276360350        0.30079416885460
C           -1.11979519464723       -0.45638247673878        0.62740654189963
H           -0.98522210670845       -0.42989532131902        1.72099044966855
C           -0.83792845207015        0.94069674502143        0.04827976009644
H           -1.09582618807118        0.93812563191292       -1.01671760229449
C            0.64883988604862        1.28943162884930        0.21045640219910
H            0.87177636288432        1.41796467011872        1.28468043110010
C            1.54193503906609        0.16321348647525       -0.32398207842754
H            1.39724192393944        0.09171337884064       -1.41334834860892
C            1.12453683470549       -1.17090755334727        0.32239257480289
H            1.30653427667416       -1.11128378821406        1.40771201518721
O           -0.24361286654826       -1.41763267839471        0.06666433017938
O            1.84824763807477       -2.25048244297841       -0.12145832636370
O            2.89139651184056        0.39089370258104       -0.01750419323907
O            0.98215842369014        2.46735080839460       -0.48583578918364
O           -1.64504429644082        1.93319848136901        0.62823284745012
O           -2.74820890586708       -1.08772618277668       -1.07619711567411
H           -3.25106969315393       -0.13409871453128        0.61365778227969
H           -2.76114945784953       -1.83872082463558        0.84607082331095
H            1.74349001282951       -2.35672029002550       -1.08013055485051
H            3.13638165344614        1.26596914669969       -0.35694562672858
H            0.28502729981279        3.12489886086083       -0.33817669859964
H           -1.51841766649231        1.94451131023571        1.58905320126018
H           -2.13465469976323       -1.77045694343759       -1.38390377012628
24
 energy: -43.388975226469 gnorm: 0.000223966244 xtb: 6.7.1 (edcfbbe)
C           -2.55150068768398       -0.91103094881556        0.30080385927184
C           -1.11985796862806       -0.45606508674377        0.62736767134324
H           -0.98537636139249       -0.42940850474124        1.72093605467334
C           -0.83751442139296        0.94079795387980        0.04792326457055
H           -1.09465059080327        0.93779423118256       -1.01725192653033
C            0.64907774668516        1.28911476718260        0.21147291519684
H            0.87147544576826        1.41581519895227        1.28606629635507
C            1.54171580961924        0.16331870850545       -0.32431756443183
H            1.39613457682167        0.09210293221812       -1.41355475224636
C            1.12457938904338       -1.17077607137187        0.32212205029620
H            1.30684396348116       -1.11136545364807        1.40730494441266
O           -0.24382113899889       -1.41751597495042        0.06685201276018
O            1.84805763473968       -2.25035962106934       -0.12202784569493
O            2.89149096684696        0.39048757839363       -0.01905489208677
O            0.98295251008378        2.46828457223498       -0.48230211156903
O           -1.64491587260410        1.93386609792075        0.62655091543501
O           -2.74800050816533       -1.08928392571578       -1.07586737821593
H           -3.25129159765074       -0.13377598571554        0.61258572322850
H           -2.76124651986185       -1.83792606970309        0.84716075604715
H            1.74337281131831       -2.35623819534993       -1.08101796851719
H            3.13630890742078        1.26627968969953       -0.35667835097963
H            0.28389578810319        3.12418943312534       -0.33753465801820
H           -1.51797443681032        1.94675495980993        1.58727662374213
H           -2.13463718107733       -1.77257241392360       -1.38262441485014
24
 energy: -43.388975742472 gnorm: 0.000336077269 xtb: 6.7.1 (edcfbbe)
C           -2.55161294852914       -0.91073254132008        0.30111166195304
C           -1.11987072223883       -0.45572803412009        0.62725023988509
H           -0.98514311067721       -0.42888132632616        1.72076778069770
C           -0.83716066591676        0.94091103891266        0.04752218605998
H           -1.09381892845440        0.93773658258389       -1.01771961167711
C            0.64938629945840        1.28886522022932        0.21195382872643
H            0.87135857825742        1.41449413467229        1.28674803010013
C            1.54171779867368        0.16321229539361       -0.32443617326451
H            1.39583931749125        0.09235170240279       -1.41367457926954
C            1.12452090383140       -1.17095316986900        0.32171949258602
H            1.30690103798529       -1.11191461868129        1.40687540010961
O           -0.24406339988701       -1.41741070401560        0.06668605625456
O            1.84753719155345       -2.25061950298376       -0.12287743653215
O            2.89165148839002        0.39001293648123       -0.01969316422095
O            0.98369404653578        2.46880218997075       -0.48030457906780
O           -1.64455521781529        1.93442029083086        0.62546328529638
O           -2.74805578011392       -1.09014600996340       -1.07538869897944
H           -3.25137628431263       -0.13317663278001        0.61222210961562
H           -2.76133694248009       -1.83718134762355        0.84830272259160
H            1.74421439653746       -2.35485867468101       -1.08192047470678
H            3.13601073384680        1.26681410332191       -0.35500169392210
H            0.28268713909108        3.12323748927766       -0.33821236690497
H           -1.51840307236250        1.94724174005356        1.58624883085513
H           -2.13500359400199       -1.77400929040979       -1.38145162199358
24
 energy: -43.388975754536 gnorm: 0.000625508812 xtb: 6.7.1 (edcfbbe)
C           -2.55172520937431       -0.91043413382460        0.30141946463424
C           -1.11988347584960       -0.45539098149641        0.62713280842693
H           -0.98490985996193       -0.42835414791108        1.72059950672205
C           -0.83680691044056        0.94102412394553        0.04712110754940
H           -1.09298726610552        0.93767893398521       -1.01818729682389
C            0.64969485223164        1.28861567327604        0.21243474225603
H            0.87124171074658        1.41317307039230        1.28742976384519
C            1.54171978772812        0.16310588228176       -0.32455478209720
H            1.39554405816083        0.09260047258746       -1.41379440629271
C            1.12446241861942       -1.17113026836613        0.32131693487585
H            1.30695811248943       -1.11246378371452        1.40644585580656
O           -0.24430566077513       -1.41730543308079        0.06652009974894
O            1.84701674836721       -2.25087938489819       -0.12372702736937
O            2.89181200993307        0.38953829456883       -0.02033143635512
O            0.98443558298778        2.46931980770652       -0.47830704656657
O           -1.64419456302647        1.93497448374097        0.62437565515775
O           -2.74811105206251       -1.09100809421103       -1.07491001974294
H           -3.25146097097453       -0.13257727984448        0.61185849600274
H           -2.76142736509834       -1.83643662554401        0.84944468913605
H            1.74505598175660       -2.35347915401209       -1.08282298089637
H            3.13571256027283        1.26734851694429       -0.35332503686457
H            0.28147849007897        3.12228554542998       -0.33889007579175
H           -1.51883170791469        1.94772852029719        1.58522103796813
H           -2.13537000692664       -1.77544616689598       -1.38027882913702
24
 energy: -43.388976167762 gnorm: 0.000182941282 xtb: 6.7.1 (edcfbbe)
C           -2.55171898764062       -0.91030357598392        0.30154200214307
C           -1.11975014582158       -0.45544986179736        0.62719333599126
H           -0.98459821004368       -0.42842813153945        1.72065526023244
C           -0.83686739049207        0.94098365261985        0.04718653841995
H           -1.09315608538543        0.93766175081030       -1.01811098508014
C            0.64970784903526        1.28867312458880        0.21217159873359
H            0.87137465067548        1.41379449605433        1.28707066384989
C            1.54193324980105        0.16307413748128       -0.32448194052642
H            1.39615613403857        0.09255551246231       -1.41380121485744