
                                 *****************
                                 * O   R   C   A *
                                 *****************

                                            #,                                       
                                            ###                                      
                                            ####                                     
                                            #####                                    
                                            ######                                   
                                           ########,                                 
                                     ,,################,,,,,                         
                               ,,#################################,,                 
                          ,,##########################################,,             
                       ,#########################################, ''#####,          
                    ,#############################################,,   '####,        
                  ,##################################################,,,,####,       
                ,###########''''           ''''###############################       
              ,#####''   ,,,,##########,,,,          '''####'''          '####       
            ,##' ,,,,###########################,,,                        '##       
           ' ,,###''''                  '''############,,,                           
         ,,##''                                '''############,,,,        ,,,,,,###''
      ,#''                                            '''#######################'''  
     '                                                          ''''####''''         
             ,#######,   #######,   ,#######,      ##                                
            ,#'     '#,  ##    ##  ,#'     '#,    #''#        ,####,   ,####,        
            ##       ##  ##   ,#'  ##            #'  '#       #'       #'  '#        
            ##       ##  #######   ##           ,######,      #####,   #    #        
            '#,     ,#'  ##    ##  '#,     ,#' ,#      #,     #,   #   #,  ,#        
             '#######'   ##     ##  '#######'  #'      '#     '####' # '####'        



                #########################################################
                #                        -***-                          #
                #          Department of theory and spectroscopy        #
                #                                                       #
                #                      Frank Neese                      #
                #                                                       #
                #     Directorship, Architecture, Infrastructure        #
                #                    SHARK, DRIVERS                     #
                #        Core code/Algorithms in most modules           #
                #                                                       #
                #        Max Planck Institute fuer Kohlenforschung      #
                #                Kaiser Wilhelm Platz 1                 #
                #                 D-45470 Muelheim/Ruhr                 #
                #                      Germany                          #
                #                                                       #
                #                  All rights reserved                  #
                #                        -***-                          #
                #########################################################


                         Program Version 6.0.0  -   RELEASE  -


 With contributions from (in alphabetic order):
   Daniel Aravena         : Magnetic Suceptibility
   Michael Atanasov       : Ab Initio Ligand Field Theory (pilot matlab implementation)
   Alexander A. Auer      : GIAO ZORA, VPT2 properties, NMR spectrum
   Ute Becker             : All parallelization in ORCA, NUMFREQ, NUMCALC
   Giovanni Bistoni       : ED, misc. LED, open-shell LED, HFLD
   Martin Brehm           : Molecular dynamics
   Dmytro Bykov           : pre 5.0 version of the SCF Hessian
   Marcos Casanova-Páez   : Triplet and SCS-CIS(D). UHF-(DLPNO)-IP/EA/STEOM-CCSD. UHF-CVS-IP/STEOM-CCSD
   Vijay G. Chilkuri      : MRCI spin determinant printing, contributions to CSF-ICE
   Pauline Colinet        : FMM embedding
   Dipayan Datta          : RHF DLPNO-CCSD density
   Achintya Kumar Dutta   : EOM-CC, STEOM-CC
   Nicolas Foglia         : Exact transition moments, OPA infrastructure, MCD improvements
   Dmitry Ganyushin       : Spin-Orbit,Spin-Spin,Magnetic field MRCI
   Miquel Garcia          : C-PCM and meta-GGA Hessian, CCSD/C-PCM, Gaussian charge scheme
   Tiago L. C. Gouveia    : GS-ROHF, GS-ROCIS
   Yang Guo               : DLPNO-NEVPT2, F12-NEVPT2, CIM, IAO-localization
   Andreas Hansen         : Spin unrestricted coupled pair/coupled cluster methods
   Ingolf Harden          : AUTO-CI MPn and infrastructure 
   Benjamin Helmich-Paris : MC-RPA, TRAH-(SCF,CASSCF), AVAS, COSX integrals, SCF dyn. polar.
   Lee Huntington         : MR-EOM, pCC
   Robert Izsak           : Overlap fitted RIJCOSX, COSX-SCS-MP3, EOM
   Riya Kayal             : Wick's Theorem for AUTO-CI, AUTO-CI UHF-CCSDT
   Emily Kempfer          : AUTO-CI, RHF CISDT and CCSDT
   Christian Kollmar      : KDIIS, OOCD, Brueckner-CCSD(T), CCSD density, CASPT2, CASPT2-K, improved NEVPT2
   Axel Koslowski         : Symmetry handling
   Simone Kossmann        : Meta GGA functionals, TD-DFT gradient, OOMP2, (MP2 Hessian; deprecated post 5.0)
   Lucas Lang             : DCDCAS
   Marvin Lechner         : AUTO-CI (C++ implementation), FIC-MRCC
   Spencer Leger          : CASSCF response
   Dagmar Lenk            : GEPOL surface, SMD, ORCA-2-JSON
   Dimitrios Liakos       : Extrapolation schemes; Compound Job, initial MDCI parallelization
   Dimitrios Manganas     : Further ROCIS development; embedding schemes. LFT, Crystal Embedding
   Dimitrios Pantazis     : SARC Basis sets
   Anastasios Papadopoulos: AUTO-CI, single reference methods and gradients
   Taras Petrenko         : pre 6.0 DFT Hessian and TD-DFT gradient, (ASA, deprecated), ECA, 1-Electron XAS/XES, NRVS
   Peter Pinski           : DLPNO-MP2, DLPNO-MP2 Gradient
   Christoph Reimann      : Effective Core Potentials
   Marius Retegan         : Local ZFS, SOC
   Christoph Riplinger    : Optimizer, TS searches, QM/MM, DLPNO-CCSD(T), (RO)-DLPNO pert. Triples
   Michael Roemelt        : Original ROCIS implementation
   Masaaki Saitow         : Open-shell DLPNO-CCSD energy and density
   Barbara Sandhoefer     : DKH picture change effects
   Kantharuban Sivalingam : CASSCF convergence/infrastructure, NEVPT2 and variants, FIC-MRCI
   Bernardo de Souza      : ESD, SOC TD-DFT
   Georgi Stoychev        : AutoAux, RI-MP2 NMR, DLPNO-MP2 response, X2C
   Van Anh Tran           : RI-MP2 g-tensors
   Willem Van den Heuvel  : Paramagnetic NMR
   Zikuan Wang            : NOTCH, Electric field optimization 
   Frank Wennmohs         : Technical directorship and infrastructure
   Hang Xu                : AUTO-CI-Response properties 


 We gratefully acknowledge several colleagues who have allowed us to
 interface, adapt or use parts of their codes:
   Stefan Grimme, W. Hujo, H. Kruse, P. Pracht,  : VdW corrections, initial TS optimization,
                  C. Bannwarth, S. Ehlert,         DFT functionals, gCP, sTDA/sTD-DF
                  L. Wittmann, M. Mueller
   Ed Valeev, F. Pavosevic, A. Kumar             : LibInt (2-el integral package), F12 methods
   Garnet Chan, S. Sharma, J. Yang, R. Olivares  : DMRG
   Ulf Ekstrom                                   : XCFun DFT Library
   Mihaly Kallay                                 : mrcc  (arbitrary order and MRCC methods)
   Frank Weinhold                                : gennbo (NPA and NBO analysis)
   Simon Mueller                                 : openCOSMO-RS
   Christopher J. Cramer and Donald G. Truhlar   : smd solvation model
   Lars Goerigk                                  : TD-DFT with DH, B97 family of functionals
   V. Asgeirsson, H. Jonsson                     : NEB implementation
   FAccTs GmbH                                   : IRC, NEB, NEB-TS, DLPNO-Multilevel, CI-OPT
                                                   MM, QMMM, 2- and 3-layer-ONIOM, Crystal-QMMM,
                                                   LR-CPCM, SF, NACMEs, symmetry and pop. for TD-DFT,
                                                   nearIR, NL-DFT gradient (VV10), updates on ESD,
                                                   ML-optimized integration grids, MBIS, APM,
                                                   GOAT, DOCKER, SOLVATOR, interface openCOSMO-RS
   S Lehtola, MJT Oliveira, MAL Marques          : LibXC Library
   Liviu Ungur et al                             : ANISO software


 Your calculation uses the libint2 library for the computation of 2-el integrals
 For citations please refer to: http://libint.valeyev.net

 Your ORCA version has been built with support for libXC version: 6.2.2
 For citations please refer to: https://libxc.gitlab.io

 This ORCA versions uses:
   CBLAS   interface :  Fast vector & matrix operations
   LAPACKE interface :  Fast linear algebra routines
   SCALAPACK package :  Parallel linear algebra routines
   Shared memory     :  Shared parallel matrices
   BLAS/LAPACK       :  OpenBLAS 0.3.27  USE64BITINT DYNAMIC_ARCH NO_AFFINITY SkylakeX SINGLE_THREADED
        Core in use  :  SkylakeX
   Copyright (c) 2011-2014, The OpenBLAS Project


Your calculation utilizes the geometrical counterpoise correction gCP
Please cite in your paper:
H.Kruse, S. Grimme J.Chem.Phys., 136, (2012), 154101 
   

Your calculation utilizes the atom-pairwise dispersion correction
based on EEQ partial charges (D4)


================================================================================

----- Orbital basis set information -----
Your calculation utilizes the basis: def2-mTZVPP
   Stefan Grimme, Andreas Hansen, Sebastian Ehlert, and Jan-Michael Mewes 
   J. Chem. Phys. 154, 064103 (2021). DOI: 10.1063/5.0040021

----- AuxJ basis set information -----
Your calculation utilizes the auxiliary basis: def2/J
   F. Weigend, Phys. Chem. Chem. Phys. 8, 1057 (2006).

================================================================================
                                        WARNINGS
                       Please study these warnings very carefully!
================================================================================

Using LibXC functional ID 497 : Re-regularized SCAN exchange by Furness et al
[ 1]  J. W. Furness, A. D. Kaplan, J. Ning, J. P. Perdew, and J. Sun.,  J. Phys. Chem. Lett. 11, 8208-8215 (2020)
[ 2]  J. W. Furness, A. D. Kaplan, J. Ning, J. P. Perdew, and J. Sun.,  J. Phys. Chem. Lett. 11, 9248-9248 (2020)
Using LibXC functional ID 498 : Re-regularized SCAN correlation by Furness et al
[ 1]  J. W. Furness, A. D. Kaplan, J. Ning, J. P. Perdew, and J. Sun.,  J. Phys. Chem. Lett. 11, 8208-8215 (2020)
[ 2]  J. W. Furness, A. D. Kaplan, J. Ning, J. P. Perdew, and J. Sun.,  J. Phys. Chem. Lett. 11, 9248-9248 (2020)
Using LibXC functional ID 497 : Re-regularized SCAN exchange by Furness et al
[ 1]  J. W. Furness, A. D. Kaplan, J. Ning, J. P. Perdew, and J. Sun.,  J. Phys. Chem. Lett. 11, 8208-8215 (2020)
[ 2]  J. W. Furness, A. D. Kaplan, J. Ning, J. P. Perdew, and J. Sun.,  J. Phys. Chem. Lett. 11, 9248-9248 (2020)
Using LibXC functional ID 498 : Re-regularized SCAN correlation by Furness et al
[ 1]  J. W. Furness, A. D. Kaplan, J. Ning, J. P. Perdew, and J. Sun.,  J. Phys. Chem. Lett. 11, 8208-8215 (2020)
[ 2]  J. W. Furness, A. D. Kaplan, J. Ning, J. P. Perdew, and J. Sun.,  J. Phys. Chem. Lett. 11, 9248-9248 (2020)

================================================================================
                                       INPUT FILE
================================================================================
NAME = sp_gas.inp
|  1> ! r2scan-3c def2/J RI DEFGRID2 scfconv6 printgap
|  2> %output
|  3>     printlevel normal
|  4> end
|  5> * xyz 0 1
|  6> C 1.9018587212 -1.049086855 0.0796413067
|  7> C 1.1020733428 0.1862205297 0.4829844312
|  8> C -0.3656707688 0.2020300659 0.0046267851
|  9> C -1.0281292849 1.5005567621 0.4750355909
| 10> C -1.1468587805 -0.999739902 0.5461954068
| 11> O -0.4305191114 0.2305593166 -1.4191844668
| 12> H 2.9268864639 -0.9451744917 0.4271123358
| 13> H 1.9270513919 -1.1620880995 -1.0018110023
| 14> H 1.4867912305 -1.9511542735 0.5209800567
| 15> H 1.5906567367 1.0714641515 0.0694334271
| 16> H 1.1045975536 0.278392463 1.5699093798
| 17> H -0.4870223002 2.3546945815 0.0767386631
| 18> H -2.0496784443 1.5426146247 0.1067661948
| 19> H -1.0341859541 1.5525898611 1.5590512033
| 20> H -2.1890618935 -0.9221174599 0.2455084052
| 21> H -0.7474033729 -1.9324700483 0.1561400816
| 22> H -1.0946825504 -1.0218461144 1.63069515
| 23> H -0.1206512039 -0.6178744615 -1.7621268394
| 24> *
| 25> 
| 26>                          ****END OF INPUT****
================================================================================

                       ****************************
                       * Single Point Calculation *
                       ****************************

---------------------------------
CARTESIAN COORDINATES (ANGSTROEM)
---------------------------------
  C      1.901859   -1.049087    0.079641
  C      1.102073    0.186221    0.482984
  C     -0.365671    0.202030    0.004627
  C     -1.028129    1.500557    0.475036
  C     -1.146859   -0.999740    0.546195
  O     -0.430519    0.230559   -1.419184
  H      2.926886   -0.945174    0.427112
  H      1.927051   -1.162088   -1.001811
  H      1.486791   -1.951154    0.520980
  H      1.590657    1.071464    0.069433
  H      1.104598    0.278392    1.569909
  H     -0.487022    2.354695    0.076739
  H     -2.049678    1.542615    0.106766
  H     -1.034186    1.552590    1.559051
  H     -2.189062   -0.922117    0.245508
  H     -0.747403   -1.932470    0.156140
  H     -1.094683   -1.021846    1.630695
  H     -0.120651   -0.617874   -1.762127

----------------------------
CARTESIAN COORDINATES (A.U.)
----------------------------
  NO LB      ZA    FRAG     MASS         X           Y           Z
   0 C     6.0000    0    12.011    3.593992   -1.982487    0.150500
   1 C     6.0000    0    12.011    2.082617    0.351906    0.912708
   2 C     6.0000    0    12.011   -0.691018    0.381781    0.008743
   3 C     6.0000    0    12.011   -1.942883    2.835641    0.897687
   4 C     6.0000    0    12.011   -2.167249   -1.889235    1.032160
   5 O     8.0000    0    15.999   -0.813563    0.435694   -2.681870
   6 H     1.0000    0     1.008    5.531014   -1.786121    0.807125
   7 H     1.0000    0     1.008    3.641599   -2.196028   -1.893148
   8 H     1.0000    0     1.008    2.809628   -3.687147    0.984510
   9 H     1.0000    0     1.008    3.005906    2.024774    0.131210
  10 H     1.0000    0     1.008    2.087387    0.526086    2.966699
  11 H     1.0000    0     1.008   -0.920339    4.449728    0.145015
  12 H     1.0000    0     1.008   -3.873331    2.915119    0.201759
  13 H     1.0000    0     1.008   -1.954328    2.933970    2.946180
  14 H     1.0000    0     1.008   -4.136727   -1.742549    0.463944
  15 H     1.0000    0     1.008   -1.412388   -3.651839    0.295062
  16 H     1.0000    0     1.008   -2.068650   -1.931009    3.081567
  17 H     1.0000    0     1.008   -0.227998   -1.167614   -3.329937

--------------------------------
INTERNAL COORDINATES (ANGSTROEM)
--------------------------------
 C      0   0   0     0.000000000000     0.00000000     0.00000000
 C      1   0   0     1.525885533806     0.00000000     0.00000000
 C      2   1   0     1.543809818648   115.13198745     0.00000000
 C      3   2   1     1.531766075767   108.94711696   180.42442836
 C      3   2   1     1.532254005503   111.54059902    59.27547917
 O      3   2   1     1.425572764443   110.66634807   296.18969189
 H      1   2   3     1.087297460962   109.40742318   177.69651716
 H      1   2   3     1.087631853412   111.04394954    58.81533474
 H      1   2   3     1.086640023930   111.37612860   297.06612564
 H      2   1   3     1.092425940613   108.75618123   239.41598594
 H      2   1   3     1.090828987888   109.30404463   121.81835248
 H      4   3   2     1.086733005901   109.77904977    58.75522259
 H      4   3   2     1.086717027096   109.58971863   177.54084726
 H      4   3   2     1.085280597155   110.47519414   298.09480174
 H      5   3   2     1.087485744824   109.56588321   176.26605820
 H      5   3   2     1.087057176599   111.02656161   295.86046392
 H      5   3   2     1.085979160304   110.14730013    56.51508473
 H      6   3   2     0.966161201272   108.80520305    68.98030833

---------------------------
INTERNAL COORDINATES (A.U.)
---------------------------
 C      0   0   0     0.000000000000     0.00000000     0.00000000
 C      1   0   0     2.883505770605     0.00000000     0.00000000
 C      2   1   0     2.917377760103   115.13198745     0.00000000
 C      3   2   1     2.894618384432   108.94711696   180.42442836
 C      3   2   1     2.895540438005   111.54059902    59.27547917
 O      3   2   1     2.693942108774   110.66634807   296.18969189
 H      1   2   3     2.054694427327   109.40742318   177.69651716
 H      1   2   3     2.055326337478   111.04394954    58.81533474
 H      1   2   3     2.053452051386   111.37612860   297.06612564
 H      2   1   3     2.064385849350   108.75618123   239.41598594
 H      2   1   3     2.061368046051   109.30404463   121.81835248
 H      4   3   2     2.053627761847   109.77904977    58.75522259
 H      4   3   2     2.053597566281   109.58971863   177.54084726
 H      4   3   2     2.050883107081   110.47519414   298.09480174
 H      5   3   2     2.055050232261   109.56588321   176.26605820
 H      5   3   2     2.054240355685   111.02656161   295.86046392
 H      5   3   2     2.052203200121   110.14730013    56.51508473
 H      6   3   2     1.825780071625   108.80520305    68.98030833

---------------------
BASIS SET INFORMATION
---------------------
There are 3 groups of distinct atoms

 Group   1 Type C   : 11s6p1d contracted to 5s3p1d pattern {62111/411/1}
 Group   2 Type O   : 11s6p2d contracted to 5s3p2d pattern {62111/411/11}
 Group   3 Type H   : 4s1p contracted to 2s1p pattern {31/1}

Atom   0C    basis set group =>   1
Atom   1C    basis set group =>   1
Atom   2C    basis set group =>   1
Atom   3C    basis set group =>   1
Atom   4C    basis set group =>   1
Atom   5O    basis set group =>   2
Atom   6H    basis set group =>   3
Atom   7H    basis set group =>   3
Atom   8H    basis set group =>   3
Atom   9H    basis set group =>   3
Atom  10H    basis set group =>   3
Atom  11H    basis set group =>   3
Atom  12H    basis set group =>   3
Atom  13H    basis set group =>   3
Atom  14H    basis set group =>   3
Atom  15H    basis set group =>   3
Atom  16H    basis set group =>   3
Atom  17H    basis set group =>   3
---------------------------------
AUXILIARY/J BASIS SET INFORMATION
---------------------------------
There are 3 groups of distinct atoms

 Group   1 Type C   : 12s5p4d2f1g contracted to 6s4p3d1f1g pattern {711111/2111/211/2/1}
 Group   2 Type O   : 12s5p4d2f1g contracted to 6s4p3d1f1g pattern {711111/2111/211/2/1}
 Group   3 Type H   : 5s2p1d contracted to 3s1p1d pattern {311/2/1}

Atom   0C    basis set group =>   1
Atom   1C    basis set group =>   1
Atom   2C    basis set group =>   1
Atom   3C    basis set group =>   1
Atom   4C    basis set group =>   1
Atom   5O    basis set group =>   2
Atom   6H    basis set group =>   3
Atom   7H    basis set group =>   3
Atom   8H    basis set group =>   3
Atom   9H    basis set group =>   3
Atom  10H    basis set group =>   3
Atom  11H    basis set group =>   3
Atom  12H    basis set group =>   3
Atom  13H    basis set group =>   3
Atom  14H    basis set group =>   3
Atom  15H    basis set group =>   3
Atom  16H    basis set group =>   3
Atom  17H    basis set group =>   3

Checking for AutoStart:
The File: sp_gas.gbw exists
Trying to determine its content:
     ... Fine, the file contains calculation information
     ... Fine, the calculation information was read
     ... Fine, the file contains a basis set
     ... Fine, the basis set was read
     ... Fine, the file contains a geometry
     ... Fine, the geometry was read
     ... Fine, the file contains a set of orbitals
     ... Fine, the orbitals can be read
     => possible old guess file was deleted
     => GBW file was renamed to GES file
     => GES file is set as startup file
     => Guess is set to MORead
     ... now leaving AutoStart

------------------------------------------------------------------------------
                             ORCA STARTUP CALCULATIONS
                           -- RI-GTO INTEGRALS CHOSEN --
------------------------------------------------------------------------------
------------------------------------------------------------------------------
                   ___                                                        
                  /   \      - P O W E R E D   B Y -                         
                 /     \                                                     
                 |  |  |   _    _      __       _____    __    __             
                 |  |  |  | |  | |    /  \     |  _  \  |  |  /  |          
                  \  \/   | |  | |   /    \    | | | |  |  | /  /          
                 / \  \   | |__| |  /  /\  \   | |_| |  |  |/  /          
                |  |  |   |  __  | /  /__\  \  |    /   |      \           
                |  |  |   | |  | | |   __   |  |    \   |  |\   \          
                \     /   | |  | | |  |  |  |  | |\  \  |  | \   \       
                 \___/    |_|  |_| |__|  |__|  |_| \__\ |__|  \__/        
                                                                              
                      - O R C A' S   B I G   F R I E N D -                    
                                      &                                       
                       - I N T E G R A L  F E E D E R -                       
                                                                              
 v1 FN, 2020, v2 2021, v3 2022-2024                                           
------------------------------------------------------------------------------


----------------------
SHARK INTEGRAL PACKAGE
----------------------

Number of atoms                             ...     18
Number of basis functions                   ...    179
Number of shells                            ...     91
Maximum angular momentum                    ...      2
Integral batch strategy                     ... SHARK/LIBINT Hybrid
RI-J (if used) integral strategy            ... SPLIT-RIJ (Revised 2003 algorithm where possible)
Printlevel                                  ...      1
Contraction scheme used                     ... SEGMENTED contraction
Prescreening option                         ... SCHWARTZ
   Thresh                                   ... 1.000e-10
   Tcut                                     ... 1.000e-11
   Tpresel                                  ... 1.000e-11 
Coulomb Range Separation                    ... NOT USED
Exchange Range Separation                   ... NOT USED
Multipole approximations                    ... NOT USED
Finite Nucleus Model                        ... NOT USED
CABS basis                                  ... NOT available
Auxiliary Coulomb fitting basis             ... AVAILABLE
   # of basis functions in Aux-J            ...    426
   # of shells in Aux-J                     ...    150
   Maximum angular momentum in Aux-J        ...      4
Auxiliary J/K fitting basis                 ... NOT available
Auxiliary Correlation fitting basis         ... NOT available
Auxiliary 'external' fitting basis          ... NOT available

Checking pre-screening integrals            ... done (  0.0 sec) Dimension = 91
Check shell pair data                       ... done (  0.0 sec)
Shell pair information
Shell pair cut-off parameter TPreSel        ...   1.0e-11
Total number of shell pairs                 ...      4186
Shell pairs after pre-screening             ...      3983
Total number of primitive shell pairs       ...     14533
Primitive shell pairs kept                  ...     10270
          la=0 lb=0:   1394 shell pairs
          la=1 lb=0:   1537 shell pairs
          la=1 lb=1:    445 shell pairs
          la=2 lb=0:    372 shell pairs
          la=2 lb=1:    207 shell pairs
          la=2 lb=2:     28 shell pairs

Calculating one electron integrals          ... done (  0.0 sec)
Calculating RI/J V-Matrix + Cholesky decomp.... done (  0.1 sec)
Calculating Nuclear repulsion               ... done (  0.0 sec) ENN=    268.321271836996 Eh

Diagonalization of the overlap matrix:
Smallest eigenvalue                        ... 2.120e-04
Time for diagonalization                   ...    0.003 sec
Threshold for overlap eigenvalues          ... 1.000e-07
Number of eigenvalues below threshold      ... 0
Time for construction of square roots      ...    0.012 sec
Total time needed                          ...    0.023 sec

-------------------
DFT GRID GENERATION
-------------------

General Integration Accuracy     IntAcc      ... 4.388
Radial Grid Type                 RadialGrid  ... OptM3 with GC (2021)
Angular Grid (max. ang.)         AngularGrid ... 4 (Lebedev-302)
Angular grid pruning method      GridPruning ... 4 (adaptive)
Weight generation scheme         WeightScheme... mBecke (2022)
Basis function cutoff            BFCut       ... 1.0000e-10
Integration weight cutoff        WCut        ... 1.0000e-14
Partially contracted basis set               ... off
Rotationally invariant grid construction     ... off
Angular grids for H and He will be reduced by one unit
Diffuse basis detected: some atoms will have their outermost
                        angular grid increased by 1.

Total number of grid points                  ...    74712
Total number of batches                      ...     1178
Average number of points per batch           ...       63
Average number of grid points per atom       ...     4151
Initializing property integral containers    ... done (  0.0 sec)

SHARK setup successfully completed in   0.9 seconds

Maximum memory used throughout the entire STARTUP-calculation: 32.7 MB
-------------------------------------------------------------------------------
                                 ORCA GUESS
                   Start orbitals & Density for SCF / CASSCF
-------------------------------------------------------------------------------

------------
SCF SETTINGS
------------
Hamiltonian:
 Density Functional     Method          .... DFT(GTOs)
  Functional kind                       .... Exchange
  Functional name                       .... Re-regularized SCAN exchange by Furness et al
  Functional family                     .... MGGA
  Functional refs                              
    [ 0] J. W. Furness, A. D. Kaplan, J. Ning, J. P. Perdew, and J. Sun.,  J. Phys. Chem. Lett. 11, 8208-8215 (2020), doi: 10.1021/acs.jpclett.0c02405
    [ 1] J. W. Furness, A. D. Kaplan, J. Ning, J. P. Perdew, and J. Sun.,  J. Phys. Chem. Lett. 11, 9248-9248 (2020), doi: 10.1021/acs.jpclett.0c03077
  Functional external parameters        .... 6
    Parameter  0 _c1        =  6.670000e-01 : c1 parameter        
    Parameter  1 _c2        =  8.000000e-01 : c2 parameter        
    Parameter  2 _d         =  1.240000e+00 : d parameter         
    Parameter  3 _k1        =  6.500000e-02 : k1 parameter        
    Parameter  4 _eta       =  1.000000e-03 : eta parameter       
    Parameter  5 _dp2       =  3.610000e-01 : dp2 parameter       
  Functional kind                       .... Correlation
  Functional name                       .... Re-regularized SCAN correlation by Furness et al
  Functional family                     .... MGGA
  Functional refs                              
    [ 0] J. W. Furness, A. D. Kaplan, J. Ning, J. P. Perdew, and J. Sun.,  J. Phys. Chem. Lett. 11, 8208-8215 (2020), doi: 10.1021/acs.jpclett.0c02405
    [ 1] J. W. Furness, A. D. Kaplan, J. Ning, J. P. Perdew, and J. Sun.,  J. Phys. Chem. Lett. 11, 9248-9248 (2020), doi: 10.1021/acs.jpclett.0c03077
  Functional external parameters        .... 1
    Parameter  0 _eta       =  1.000000e-03 : Regularization parameter
 Gradients option       PostSCFGGA      .... off
 RI-approximation to the Coulomb term is turned on
   Number of AuxJ basis functions       .... 426


General Settings:
 Integral files         IntName         .... sp_gas
 Hartree-Fock type      HFTyp           .... RHF
 Total Charge           Charge          ....    0
 Multiplicity           Mult            ....    1
 Number of Electrons    NEL             ....   50
 Basis Dimension        Dim             ....  179
 Nuclear Repulsion      ENuc            ....    268.3212718370 Eh

Convergence Acceleration:
 AO-DIIS                CNVDIIS         .... on
   Start iteration      DIISMaxIt       ....    12
   Startup error        DIISStart       ....  0.200000
   # of expansion vecs  DIISMaxEq       ....     5
   Bias factor          DIISBfac        ....   1.050
   Max. coefficient     DIISMaxC        ....  10.000
 MO-DIIS                CNVKDIIS        .... off
 Trust-Rad. Augm. Hess. CNVTRAH         .... auto
   Auto Start mean grad. ratio tolernc. ....  1.125000
   Auto Start start iteration           ....     1
   Auto Start num. interpolation iter.  ....    10
   Max. Number of Micro iterations      ....    24
   Max. Number of Macro iterations      .... Maxiter - #DIIS iter
   Number of Davidson start vectors     ....     2
   Converg. threshold    (grad. norm)   ....   3.330e-04
   Grad. Scal. Fac. for Micro threshold ....   0.100
   Minimum threshold for Micro iter.    ....   1.000e-02
   NR start threshold (gradient norm)   ....   1.000e-04
   Initial trust radius                 ....   0.400
   Minimum AH scaling param. (alpha)    ....   1.000
   Maximum AH scaling param. (alpha)    .... 1000.000
   Quad. conv. algorithm                .... NR
   White noise on init. David. guess    .... on
   Maximum white noise                  ....   0.010
   Pseudo random numbers                .... off
   Inactive MOs                         .... canonical
   Orbital update algorithm             .... Taylor
   Preconditioner                       .... Diag
   Full preconditioner red. dimension   ....   250
   COSX micro iterations for RIJONX calc.... off
 SOSCF                  CNVSOSCF        .... on
   Start iteration      SOSCFMaxIt      ....   150
   Startup grad/error   SOSCFStart      ....  0.003300
   Hessian update       SOSCFHessUp     .... L-BFGS
 Level Shifting         CNVShift        .... on
   Level shift para.    LevelShift      ....    0.2500
   Turn off err/grad.   ShiftErr        ....    0.0010
 Zerner damping         CNVZerner       .... off
 Static damping         CNVDamp         .... on
   Fraction old density DampFac         ....    0.7000
   Max. Damping (<1)    DampMax         ....    0.9800
   Min. Damping (>=0)   DampMin         ....    0.0000
   Turn off err/grad.   DampErr         ....    0.1000

SCF Procedure:
 Maximum # iterations   MaxIter         ....   125
 SCF integral mode      SCFMode         .... Direct
   Integral package                     .... SHARK and LIBINT hybrid scheme
 Reset frequency        DirectResetFreq ....    20
 Integral Threshold     Thresh          ....  1.000e-10 Eh
 Primitive CutOff       TCut            ....  1.000e-11 Eh

Convergence Tolerance:
 Convergence Check Mode ConvCheckMode   .... Total+1el-Energy
 Convergence forced     ConvForced      .... 0
 Energy Change          TolE            ....  1.000e-06 Eh
 1-El. energy change                    ....  1.000e-03 Eh
 Orbital Gradient       TolG            ....  3.330e-04
 Orbital Rotation angle TolX            ....  3.330e-04
 DIIS Error             TolErr          ....  1.000e-06

---------------------
INITIAL GUESS: MOREAD
---------------------
Guess MOs are being read from file: sp_gas.ges
Input Geometry matches current geometry (good)
Atom 0: N(Shells)= 9 and 6 - projection required
Input basis set needs projection
NBasis(read)= 108
NBasis(calc)= 179
Basis set overlap was calculated
Using GuessMode=FMatrix for the initial guess
C*T matrix was formed
Effective Fockian was calculated
Effective Fockian was diagonalized
Initial density was built
                      ------------------
                      INITIAL GUESS DONE (   0.0 sec)
                      ------------------
             **** ENERGY FILE WAS UPDATED (sp_gas.en.tmp) ****
Finished Guess after   0.2 sec
Maximum memory used throughout the entire GUESS-calculation: 12.4 MB

-------------------------------------------------------------------------------------------
                                      ORCA LEAN-SCF
                              memory conserving SCF solver
-------------------------------------------------------------------------------------------

----------------------------------------D-I-I-S--------------------------------------------
Iteration    Energy (Eh)           Delta-E    RMSDP     MaxDP     DIISErr   Damp  Time(sec)
-------------------------------------------------------------------------------------------
               ***  Starting incremental Fock matrix formation  ***
    1    -272.7572353175376634     0.00e+00  3.60e-03  8.80e-02  6.29e-01  0.700   1.9
    2    -272.8036684640546241    -4.64e-02  2.98e-03  7.16e-02  4.42e-01  0.700   1.8
    3    -272.8365779929534369    -3.29e-02  2.20e-03  5.25e-02  3.10e-01  0.700   1.8
    4    -272.8596968781753844    -2.31e-02  1.58e-03  3.73e-02  2.17e-01  0.700   1.7
                               ***Turning on AO-DIIS***
    5    -272.8759219052536196    -1.62e-02  1.15e-03  2.64e-02  1.52e-01  0.700   1.7
    6    -272.8873015184394148    -1.14e-02  8.23e-04  1.86e-02  1.06e-01  0.700   1.6
    7    -272.8952813824292321    -7.98e-03  5.83e-04  1.31e-02  7.44e-02  0.700   1.7
    8    -272.9008744919045171    -5.59e-03  1.37e-03  3.07e-02  5.21e-02  0.000   1.6
                              *** Initializing SOSCF ***
---------------------------------------S-O-S-C-F--------------------------------------
Iteration    Energy (Eh)           Delta-E    RMSDP     MaxDP     MaxGrad    Time(sec)
--------------------------------------------------------------------------------------
    9    -272.9139483422313219    -1.31e-02  1.08e-05  2.27e-04  1.53e-04     1.6
               *** Restarting incremental Fock matrix formation ***
   10    -272.9139484335963175    -9.14e-08  7.83e-06  2.29e-04  2.42e-05     2.0
                  *** Gradient check signals convergence ***

               *****************************************************
               *                     SUCCESS                       *
               *           SCF CONVERGED AFTER  10 CYCLES          *
               *****************************************************

             **** ENERGY FILE WAS UPDATED (sp_gas.en.tmp) ****

----------------
TOTAL SCF ENERGY
----------------

Total Energy       :       -272.91394843359632 Eh           -7426.36609 eV

Components:
Nuclear Repulsion  :        268.32127183699566 Eh            7301.39300 eV
Electronic Energy  :       -541.23522027059198 Eh          -14727.75909 eV
One Electron Energy:       -900.40740123076432 Eh          -24501.33101 eV
Two Electron Energy:        359.17218096017234 Eh            9773.57192 eV

Virial components:
Potential Energy   :       -544.59868323462240 Eh          -14819.28357 eV
Kinetic Energy     :        271.68473480102608 Eh            7392.91748 eV
Virial Ratio       :          2.00452441184622

DFT components:
N(Alpha)           :       24.999977899712 electrons
N(Beta)            :       24.999977899712 electrons
N(Total)           :       49.999955799424 electrons
E(X)               :      -38.579495482609 Eh       
E(C)               :       -1.563579374601 Eh       
E(XC)              :      -40.143074857210 Eh       

---------------
SCF CONVERGENCE
---------------

  Last Energy change         ...    9.1365e-08  Tolerance :   1.0000e-06
  Last MAX-Density change    ...    2.2925e-04  Tolerance :   1.0000e-05
  Last RMS-Density change    ...    7.8314e-06  Tolerance :   1.0000e-06
  Last DIIS Error            ...    1.5312e-04  Tolerance :   1.0000e-06
  Last Orbital Gradient      ...    2.4174e-05  Tolerance :   3.3300e-04
  Last Orbital Rotation      ...    3.8395e-05  Tolerance :   3.3300e-04


----------------
ORBITAL ENERGIES
----------------

  NO   OCC          E(Eh)            E(eV) 
   0   2.0000     -18.941995      -515.4379 
   1   2.0000     -10.086656      -274.4719 
   2   2.0000     -10.024209      -272.7726 
   3   2.0000     -10.022230      -272.7188 
   4   2.0000     -10.018359      -272.6134 
   5   2.0000     -10.013092      -272.4701 
   6   2.0000      -0.981490       -26.7077 
   7   2.0000      -0.762651       -20.7528 
   8   2.0000      -0.705591       -19.2001 
   9   2.0000      -0.657863       -17.9014 
  10   2.0000      -0.596431       -16.2297 
  11   2.0000      -0.531609       -14.4658 
  12   2.0000      -0.460497       -12.5308 
  13   2.0000      -0.429874       -11.6975 
  14   2.0000      -0.410406       -11.1677 
  15   2.0000      -0.406995       -11.0749 
  16   2.0000      -0.371525       -10.1097 
  17   2.0000      -0.358929        -9.7669 
  18   2.0000      -0.349646        -9.5144 
  19   2.0000      -0.335785        -9.1372 
  20   2.0000      -0.324024        -8.8171 
  21   2.0000      -0.315743        -8.5918 
  22   2.0000      -0.304164        -8.2767 
  23   2.0000      -0.279882        -7.6160 
  24   2.0000      -0.232017        -6.3135 
  25   0.0000       0.059360         1.6153 
  26   0.0000       0.103204         2.8083 
  27   0.0000       0.110682         3.0118 
  28   0.0000       0.119139         3.2419 
  29   0.0000       0.136169         3.7054 
  30   0.0000       0.144485         3.9316 
  31   0.0000       0.145188         3.9508 
  32   0.0000       0.155441         4.2298 
  33   0.0000       0.156746         4.2653 
  34   0.0000       0.165517         4.5039 
  35   0.0000       0.183790         5.0012 
*Only the first 10 virtual orbitals were printed.

                    ********************************
                    * MULLIKEN POPULATION ANALYSIS *
                    ********************************

-----------------------
MULLIKEN ATOMIC CHARGES
-----------------------
   0 C :   -0.536451
   1 C :   -0.186363
   2 C :    0.149071
   3 C :   -0.471131
   4 C :   -0.488519
   5 O :   -0.411565
   6 H :    0.153212
   7 H :    0.145145
   8 H :    0.155671
   9 H :    0.153727
  10 H :    0.137345
  11 H :    0.153449
  12 H :    0.156933
  13 H :    0.145709
  14 H :    0.159634
  15 H :    0.145648
  16 H :    0.152874
  17 H :    0.285611
Sum of atomic charges:   -0.0000000

--------------------------------
MULLIKEN REDUCED ORBITAL CHARGES
--------------------------------
  0 C s       :     3.365697  s :     3.365697
      pz      :     1.069720  p :     3.143603
      px      :     1.087841
      py      :     0.986041
      dz2     :     0.007612  d :     0.027152
      dxz     :     0.002513
      dyz     :     0.004226
      dx2y2   :     0.007341
      dxy     :     0.005460

  1 C s       :     3.185185  s :     3.185185
      pz      :     1.041196  p :     2.965477
      px      :     0.941995
      py      :     0.982287
      dz2     :     0.009494  d :     0.035701
      dxz     :     0.004175
      dyz     :     0.004101
      dx2y2   :     0.008534
      dxy     :     0.009397

  2 C s       :     3.125289  s :     3.125289
      pz      :     0.734695  p :     2.649928
      px      :     0.964923
      py      :     0.950310
      dz2     :     0.021763  d :     0.075711
      dxz     :     0.016585
      dyz     :     0.013503
      dx2y2   :     0.012133
      dxy     :     0.011727

  3 C s       :     3.338707  s :     3.338707
      pz      :     1.056015  p :     3.106629
      px      :     1.077190
      py      :     0.973425
      dz2     :     0.007347  d :     0.025794
      dxz     :     0.002442
      dyz     :     0.003266
      dx2y2   :     0.006780
      dxy     :     0.005961

  4 C s       :     3.335076  s :     3.335076
      pz      :     1.061023  p :     3.127500
      px      :     1.073617
      py      :     0.992860
      dz2     :     0.007580  d :     0.025943
      dxz     :     0.002246
      dyz     :     0.003434
      dx2y2   :     0.007610
      dxy     :     0.005074

  5 O s       :     3.767573  s :     3.767573
      pz      :     1.270170  p :     4.638115
      px      :     1.855114
      py      :     1.512831
      dz2     :     0.001362  d :     0.005877
      dxz     :    -0.001850
      dyz     :    -0.004794
      dx2y2   :     0.005044
      dxy     :     0.006114

  6 H s       :     0.828439  s :     0.828439
      pz      :     0.004447  p :     0.018349
      px      :     0.010171
      py      :     0.003732

  7 H s       :     0.836483  s :     0.836483
      pz      :     0.010784  p :     0.018372
      px      :     0.003837
      py      :     0.003750

  8 H s       :     0.825952  s :     0.825952
      pz      :     0.004812  p :     0.018377
      px      :     0.004831
      py      :     0.008734

  9 H s       :     0.828495  s :     0.828495
      pz      :     0.004515  p :     0.017778
      px      :     0.004827
      py      :     0.008437

 10 H s       :     0.844628  s :     0.844628
      pz      :     0.010925  p :     0.018028
      px      :     0.003488
      py      :     0.003615

 11 H s       :     0.828271  s :     0.828271
      pz      :     0.004628  p :     0.018279
      px      :     0.005385
      py      :     0.008266

 12 H s       :     0.824817  s :     0.824817
      pz      :     0.004494  p :     0.018250
      px      :     0.010242
      py      :     0.003514

 13 H s       :     0.835899  s :     0.835899
      pz      :     0.011009  p :     0.018392
      px      :     0.003740
      py      :     0.003643

 14 H s       :     0.822173  s :     0.822173
      pz      :     0.004156  p :     0.018193
      px      :     0.010479
      py      :     0.003558

 15 H s       :     0.835778  s :     0.835778
      pz      :     0.004522  p :     0.018574
      px      :     0.004749
      py      :     0.009303

 16 H s       :     0.828739  s :     0.828739
      pz      :     0.011006  p :     0.018388
      px      :     0.003722
      py      :     0.003660

 17 H s       :     0.670978  s :     0.670978
      pz      :     0.009616  p :     0.043411
      px      :     0.013976
      py      :     0.019819


------------------------
MULLIKEN OVERLAP CHARGES
------------------------
B(  0-C ,  1-C ) :   0.2513 B(  0-C ,  2-C ) :  -0.1402 B(  0-C ,  6-H ) :   0.7939 
B(  0-C ,  7-H ) :   0.8545 B(  0-C ,  8-H ) :   0.8647 B(  0-C , 10-H ) :  -0.0536 
B(  1-C ,  2-C ) :   0.4085 B(  1-C ,  3-C ) :  -0.1947 B(  1-C ,  4-C ) :  -0.2964 
B(  1-C ,  5-O ) :  -0.1718 B(  1-C ,  6-H ) :  -0.0661 B(  1-C ,  7-H ) :  -0.1044 
B(  1-C ,  8-H ) :  -0.1019 B(  1-C ,  9-H ) :   0.8309 B(  1-C , 10-H ) :   0.7993 
B(  2-C ,  3-C ) :   0.5779 B(  2-C ,  4-C ) :   0.5616 B(  2-C ,  5-O ) :   0.2747 
B(  2-C ,  9-H ) :  -0.0870 B(  2-C , 10-H ) :  -0.0640 B(  2-C , 11-H ) :  -0.0736 
B(  2-C , 12-H ) :  -0.0731 B(  2-C , 13-H ) :  -0.0872 B(  2-C , 14-H ) :  -0.0803 
B(  2-C , 16-H ) :  -0.0930 B(  2-C , 17-H ) :  -0.0961 B(  3-C ,  4-C ) :  -0.2046 
B(  3-C ,  5-O ) :  -0.0605 B(  3-C , 11-H ) :   0.8126 B(  3-C , 12-H ) :   0.8199 
B(  3-C , 13-H ) :   0.8624 B(  4-C ,  5-O ) :  -0.1577 B(  4-C , 14-H ) :   0.8089 
B(  4-C , 15-H ) :   0.8099 B(  4-C , 16-H ) :   0.8229 B(  5-O , 17-H ) :   0.5957 
B(  7-H ,  8-H ) :  -0.0564 


                     *******************************
                     * LOEWDIN POPULATION ANALYSIS *
                     *******************************

----------------------
LOEWDIN ATOMIC CHARGES
----------------------
   0 C :   -0.423409
   1 C :   -0.287528
   2 C :    0.055355
   3 C :   -0.372102
   4 C :   -0.389203
   5 O :   -0.600489
   6 H :    0.155276
   7 H :    0.148788
   8 H :    0.151318
   9 H :    0.165906
  10 H :    0.159307
  11 H :    0.164836
  12 H :    0.164156
  13 H :    0.158169
  14 H :    0.164424
  15 H :    0.155264
  16 H :    0.160777
  17 H :    0.269157

-------------------------------
LOEWDIN REDUCED ORBITAL CHARGES
-------------------------------
  0 C s       :     2.969784  s :     2.969784
      pz      :     1.147929  p :     3.390244
      px      :     1.133911
      py      :     1.108404
      dz2     :     0.018927  d :     0.063380
      dxz     :     0.005783
      dyz     :     0.009442
      dx2y2   :     0.016557
      dxy     :     0.012671

  1 C s       :     2.937506  s :     2.937506
      pz      :     1.118325  p :     3.272210
      px      :     1.055241
      py      :     1.098644
      dz2     :     0.022650  d :     0.077812
      dxz     :     0.008368
      dyz     :     0.008508
      dx2y2   :     0.017895
      dxy     :     0.020392

  2 C s       :     2.814046  s :     2.814046
      pz      :     0.874090  p :     2.973983
      px      :     1.048516
      py      :     1.051377
      dz2     :     0.047079  d :     0.156616
      dxz     :     0.034390
      dyz     :     0.028212
      dx2y2   :     0.024248
      dxy     :     0.022686

  3 C s       :     2.965274  s :     2.965274
      pz      :     1.129461  p :     3.345828
      px      :     1.137282
      py      :     1.079085
      dz2     :     0.019073  d :     0.061000
      dxz     :     0.005723
      dyz     :     0.006974
      dx2y2   :     0.015555
      dxy     :     0.013675

  4 C s       :     2.967841  s :     2.967841
      pz      :     1.132287  p :     3.359514
      px      :     1.132031
      py      :     1.095195
      dz2     :     0.019386  d :     0.061849
      dxz     :     0.005128
      dyz     :     0.007820
      dx2y2   :     0.017683
      dxy     :     0.011832

  5 O s       :     3.511921  s :     3.511921
      pz      :     1.407760  p :     4.792511
      px      :     1.825209
      py      :     1.559542
      dz2     :     0.084116  d :     0.296056
      dxz     :     0.072398
      dyz     :     0.089887
      dx2y2   :     0.025490
      dxy     :     0.024165

  6 H s       :     0.800996  s :     0.800996
      pz      :     0.010080  p :     0.043728
      px      :     0.025181
      py      :     0.008467

  7 H s       :     0.807465  s :     0.807465
      pz      :     0.027009  p :     0.043747
      px      :     0.008475
      py      :     0.008263

  8 H s       :     0.804699  s :     0.804699
      pz      :     0.011333  p :     0.043983
      px      :     0.011233
      py      :     0.021417

  9 H s       :     0.790908  s :     0.790908
      pz      :     0.010627  p :     0.043186
      px      :     0.011862
      py      :     0.020697

 10 H s       :     0.796804  s :     0.796804
      pz      :     0.027105  p :     0.043889
      px      :     0.008493
      py      :     0.008291

 11 H s       :     0.791615  s :     0.791615
      pz      :     0.010651  p :     0.043549
      px      :     0.012808
      py      :     0.020090

 12 H s       :     0.792317  s :     0.792317
      pz      :     0.010253  p :     0.043527
      px      :     0.025337
      py      :     0.007938

 13 H s       :     0.797899  s :     0.797899
      pz      :     0.027263  p :     0.043932
      px      :     0.008351
      py      :     0.008318

 14 H s       :     0.791784  s :     0.791784
      pz      :     0.009362  p :     0.043792
      px      :     0.026231
      py      :     0.008198

 15 H s       :     0.800713  s :     0.800713
      pz      :     0.010419  p :     0.044023
      px      :     0.011092
      py      :     0.022511

 16 H s       :     0.795043  s :     0.795043
      pz      :     0.027599  p :     0.044180
      px      :     0.008281
      py      :     0.008300

 17 H s       :     0.607120  s :     0.607120
      pz      :     0.026082  p :     0.123723
      px      :     0.037377
      py      :     0.060264


---------------------------------
LOEWDIN BOND ORDERS (THRESH 0.050000)
---------------------------------
B(  0-C ,  1-C ) :   1.1325 B(  0-C ,  2-C ) :   0.0608 B(  0-C ,  6-H ) :   0.9254 
B(  0-C ,  7-H ) :   0.9251 B(  0-C ,  8-H ) :   0.9261 B(  1-C ,  2-C ) :   0.9855 
B(  1-C ,  3-C ) :   0.0788 B(  1-C ,  4-C ) :   0.0662 B(  1-C ,  5-O ) :   0.1577 
B(  1-C ,  9-H ) :   0.8809 B(  1-C , 10-H ) :   0.8807 B(  2-C ,  3-C ) :   1.0186 
B(  2-C ,  4-C ) :   1.0217 B(  2-C ,  5-O ) :   1.3674 B(  3-C ,  4-C ) :   0.0734 
B(  3-C ,  5-O ) :   0.1753 B(  3-C , 11-H ) :   0.9114 B(  3-C , 12-H ) :   0.9115 
B(  3-C , 13-H ) :   0.9140 B(  4-C ,  5-O ) :   0.1623 B(  4-C , 14-H ) :   0.9135 
B(  4-C , 15-H ) :   0.9124 B(  4-C , 16-H ) :   0.9123 B(  5-O , 17-H ) :   0.9648 


------------------------------------------
LOEWDIN REDUCED ORBITAL POPULATIONS PER MO
-------------------------------------------
THRESHOLD FOR PRINTING IS 0.1%%
                      0         1         2         3         4         5   
                 -18.94199 -10.08666 -10.02421 -10.02223 -10.01836 -10.01309
                   2.00000   2.00000   2.00000   2.00000   2.00000   2.00000
                  --------  --------  --------  --------  --------  --------
 0 C  s               0.0       0.0       0.1      99.6       0.0       0.0
 1 C  s               0.0       0.0      99.6       0.1       0.0       0.0
 2 C  s               0.0      99.3       0.0       0.0       0.0       0.0
 3 C  s               0.0       0.0       0.0       0.0       0.0      99.7
 4 C  s               0.0       0.0       0.0       0.0      99.7       0.0
 5 O  s              99.9       0.0       0.0       0.0       0.0       0.0
 5 O  pz              0.0       0.1       0.0       0.0       0.0       0.0
 5 O  dz2             0.0       0.3       0.0       0.0       0.0       0.0

                      6         7         8         9        10        11   
                  -0.98149  -0.76265  -0.70559  -0.65786  -0.59643  -0.53161
                   2.00000   2.00000   2.00000   2.00000   2.00000   2.00000
                  --------  --------  --------  --------  --------  --------
 0 C  s               0.1       8.6      22.5       0.0      15.0       1.3
 0 C  pz              0.0       0.2       0.0       0.0       0.4       0.5
 0 C  px              0.2       0.8       0.1       0.1       1.7       0.3
 0 C  py              0.1       1.1       0.5       0.1       4.3       1.9
 1 C  s               0.9      17.8       9.6       0.6      10.6       3.5
 1 C  pz              0.6       0.0       0.1       0.0       0.3       2.4
 1 C  px              1.0       0.6       4.7       0.0       2.5       1.1
 1 C  py              0.0       0.3       2.3       1.2       4.3       1.0
 2 C  s               9.8      13.8       3.2       0.0       2.1       7.4
 2 C  pz              7.9       5.7       0.7       0.1       0.1       4.5
 2 C  px              0.0       0.4       7.7       0.6       7.8       0.5
 2 C  py              0.0       0.0       0.4      16.4       0.1       0.1
 2 C  dz2             0.7       0.2       0.0       0.0       0.0       0.1
 2 C  dyz             0.0       0.0       0.0       0.1       0.0       0.1
 2 C  dx2y2           0.0       0.0       0.1       0.0       0.1       0.0
 2 C  dxy             0.0       0.0       0.0       0.2       0.0       0.0
 3 C  s               0.9       8.2       9.6      16.7       7.7       3.1
 3 C  pz              0.6       0.0       0.0       0.0       0.1       3.3
 3 C  px              0.2       0.5       0.1       0.1       1.8       0.4
 3 C  py              0.8       1.4       0.4       0.7       0.8       3.3
 4 C  s               0.9       8.6       6.7      26.2       1.0       1.4
 4 C  pz              0.7       0.0       0.0       0.0       0.0       1.4
 4 C  px              0.3       0.7       0.2       0.0       0.7       0.4
 4 C  py              0.7       1.1       0.5       1.0       0.2       1.8
 5 O  s              57.9       5.4       0.5       0.0       0.2       0.5
 5 O  pz              1.3       3.3       1.2       0.1       1.1      24.8
 5 O  px              0.2       0.0       0.3       0.0       0.3       0.9
 5 O  py              1.2       0.5       0.3       1.1       0.1       6.9
 5 O  dz2             0.3       1.2       0.4       0.0       0.2       1.0
 5 O  dxz             0.0       0.0       0.3       0.0       0.5       0.0
 5 O  dyz             0.0       0.0       0.0       0.9       0.0       0.1
 6 H  s               0.0       1.2       4.3       0.0       5.4       0.5
 6 H  px              0.0       0.1       0.3       0.0       0.3       0.0
 7 H  s               0.0       1.1       4.1       0.0       5.4       0.8
 7 H  pz              0.0       0.1       0.4       0.0       0.4       0.1
 8 H  s               0.0       1.2       3.9       0.1       5.5       0.8
 8 H  py              0.0       0.1       0.2       0.0       0.2       0.0
 9 H  s               0.0       2.4       1.7       0.3       3.5       1.8
 9 H  px              0.0       0.0       0.0       0.0       0.1       0.0
 9 H  py              0.0       0.1       0.1       0.0       0.2       0.1
10 H  s               0.0       2.7       1.5       0.1       3.5       3.4
10 H  pz              0.0       0.2       0.1       0.0       0.3       0.2
11 H  s               0.0       1.1       1.5       4.3       2.0       1.5
11 H  py              0.0       0.1       0.1       0.2       0.1       0.0
12 H  s               0.0       1.1       1.8       3.4       3.3       1.0
12 H  px              0.0       0.1       0.2       0.3       0.2       0.0
13 H  s               0.1       1.3       1.8       3.7       2.3       3.4
13 H  pz              0.0       0.1       0.2       0.3       0.2       0.2
14 H  s               0.1       1.1       1.4       5.8       0.7       0.6
14 H  px              0.0       0.1       0.1       0.5       0.0       0.0
15 H  s               0.1       1.2       0.9       6.9       0.4       0.8
15 H  py              0.0       0.1       0.1       0.4       0.0       0.0
16 H  s               0.1       1.3       1.3       6.0       0.3       1.6
16 H  pz              0.0       0.1       0.1       0.5       0.0       0.1
17 H  s              10.1       1.8       0.5       0.2       0.2       7.5
17 H  pz              0.4       0.0       0.0       0.0       0.0       0.0
17 H  px              0.2       0.0       0.0       0.0       0.0       0.1
17 H  py              1.6       0.3       0.1       0.0       0.0       0.6

                     12        13        14        15        16        17   
                  -0.46050  -0.42987  -0.41041  -0.40699  -0.37152  -0.35893
                   2.00000   2.00000   2.00000   2.00000   2.00000   2.00000
                  --------  --------  --------  --------  --------  --------
 0 C  s               0.0       0.0       0.0       0.2       0.1       0.0
 0 C  pz              0.6      10.9      14.7       0.4       1.7       1.0
 0 C  px              2.1       2.6       5.7       2.3      15.1      11.1
 0 C  py              4.2       0.0       5.2       4.6       1.6       8.6
 0 C  dx2y2           0.0       0.0       0.0       0.0       0.1       0.1
 1 C  s               1.2       0.1       0.0       0.7       0.5       0.3
 1 C  pz              0.0      17.1       8.4       0.0       1.6       0.4
 1 C  px             12.2       0.9       1.4       3.1       0.2       1.3
 1 C  py              3.9       0.3       4.7       2.7       6.7       0.6
 1 C  dx2y2           0.1       0.0       0.0       0.0       0.0       0.1
 2 C  s               3.0       0.1       0.5       0.0       0.5       0.0
 2 C  pz              7.9       2.3       1.6       2.3       0.1       1.5
 2 C  px              1.1       9.7       1.4       1.7       0.1       0.1
 2 C  py              3.3       0.0       0.1       9.7       0.0       3.3
 2 C  dz2             0.1       0.0       0.1       0.0       0.0       0.3
 2 C  dxz             0.0       0.0       0.1       0.0       0.0       0.0
 2 C  dyz             0.1       0.0       0.1       0.0       0.2       0.0
 2 C  dx2y2           0.0       0.0       0.0       0.0       0.1       0.0
 2 C  dxy             0.0       0.0       0.0       0.0       0.1       0.0
 3 C  s               0.0       0.4       0.1       0.3       0.0       0.0
 3 C  pz              3.7       0.1       0.7       0.1       0.5       8.5
 3 C  px              0.3       1.2       0.1      13.3      14.6       0.6
 3 C  py              1.1       8.9       5.5       1.1       0.6       0.9
 3 C  dz2             0.0       0.0       0.0       0.0       0.0       0.2
 4 C  s               1.5       0.3       0.0       0.2       0.0       0.0
 4 C  pz              0.0       0.3       0.0      20.2      16.1       6.2
 4 C  px              9.4       0.6       4.6       0.2       0.0      13.2
 4 C  py              4.2      10.9       8.3       0.3       1.7       0.2
 4 C  dz2             0.0       0.0       0.0       0.1       0.2       0.2
 4 C  dxy             0.2       0.1       0.0       0.0       0.0       0.0
 5 O  s               1.3       0.9       0.6       2.0       0.8       0.1
 5 O  pz              2.6       1.1       1.1       3.4       0.2       4.6
 5 O  px              2.0       5.4       0.3       0.8       0.0       0.2
 5 O  py             11.5       0.1       3.4       8.3       5.0       0.0
 5 O  dz2             0.2       0.1       0.0       0.0       0.0       0.0
 5 O  dxz             0.0       0.8       0.0       0.2       0.0       0.1
 5 O  dyz             0.0       0.0       0.0       0.6       0.0       0.4
 5 O  dx2y2           0.1       0.0       0.1       0.0       0.3       0.0
 5 O  dxy             0.2       0.0       0.0       0.0       0.2       0.0
 6 H  s               0.6       2.4       0.7       0.7       8.0       7.1
 6 H  pz              0.0       0.0       0.1       0.0       0.0       0.0
 6 H  px              0.0       0.1       0.0       0.0       0.1       0.1
 7 H  s               0.5       3.2       5.7       0.7       0.6       1.0
 7 H  pz              0.0       0.1       0.1       0.0       0.0       0.0
 7 H  px              0.0       0.0       0.0       0.0       0.1       0.1
 8 H  s               1.2       0.3       7.3       0.7       0.0       5.6
 8 H  pz              0.0       0.0       0.0       0.0       0.0       0.1
 8 H  px              0.0       0.0       0.0       0.0       0.1       0.0
 8 H  py              0.0       0.0       0.2       0.0       0.0       0.1
 9 H  s               5.6       0.8       3.6       0.0       0.4       0.1
 9 H  py              0.2       0.0       0.1       0.0       0.0       0.0
10 H  s               0.5       6.3       2.7       0.0       0.3       0.5
10 H  pz              0.0       0.2       0.1       0.0       0.0       0.0
11 H  s               0.5       4.6       2.3       0.1       2.2       0.2
12 H  s               0.4       0.0       0.0       6.5       6.2       0.1
12 H  px              0.0       0.0       0.0       0.1       0.1       0.0
13 H  s               1.0       0.0       0.0       0.0       0.2       5.4
13 H  px              0.0       0.0       0.0       0.1       0.1       0.0
14 H  s               5.0       0.0       1.7       0.1       0.3       9.3
14 H  pz              0.0       0.0       0.0       0.1       0.1       0.0
14 H  px              0.2       0.0       0.1       0.0       0.0       0.1
15 H  s               0.9       5.5       4.3       0.4       3.5       0.2
15 H  px              0.1       0.0       0.0       0.0       0.0       0.0
16 H  s               0.6       0.0       0.0       9.8       7.0       4.2
16 H  pz              0.0       0.0       0.0       0.2       0.1       0.1
17 H  s               3.7       0.0       1.2       0.1       0.6       0.5

                     18        19        20        21        22        23   
                  -0.34965  -0.33578  -0.32402  -0.31574  -0.30416  -0.27988
                   2.00000   2.00000   2.00000   2.00000   2.00000   2.00000
                  --------  --------  --------  --------  --------  --------
 0 C  s               0.0       0.2       0.2       0.4       0.0       0.1
 0 C  pz              0.0      10.0       8.5       7.1       1.2       0.0
 0 C  px              3.5       0.1       1.2       1.2       5.7       2.3
 0 C  py              0.9       1.3       7.2       7.9       2.7       3.3
 0 C  dz2             0.0       0.2       0.2       0.3       0.0       0.0
 0 C  dyz             0.0       0.0       0.2       0.0       0.1       0.0
 0 C  dx2y2           0.0       0.0       0.0       0.0       0.4       0.0
 1 C  s               0.0       0.1       0.0       0.2       0.1       0.1
 1 C  pz              0.0       2.0       4.2      11.6       3.9       1.1
 1 C  px              0.0       0.1       0.6       0.6      10.6       3.9
 1 C  py              0.0       5.1       7.2       6.3       5.7       2.4
 1 C  dz2             0.0       0.1       0.1       0.5       0.1       0.0
 1 C  dyz             0.0       0.0       0.2       0.0       0.1       0.0
 1 C  dx2y2           0.0       0.0       0.0       0.0       0.3       0.0
 1 C  dxy             0.0       0.1       0.1       0.2       0.2       0.3
 2 C  s               0.4       0.1       0.1       0.2       0.1       0.1
 2 C  pz              2.3       0.6       0.1       4.3       0.1       1.4
 2 C  px              0.3       1.5       2.4       0.1       7.7       2.8
 2 C  py              0.0       0.5       1.1       1.9       0.9      13.9
 2 C  dz2             0.3       0.0       0.0       0.4       0.0       0.0
 2 C  dyz             0.1       0.0       0.0       0.0       0.0       0.6
 2 C  dx2y2           0.1       0.0       0.1       0.0       0.1       0.1
 2 C  dxy             0.0       0.0       0.0       0.1       0.1       0.4
 3 C  s               0.1       0.0       0.0       0.2       0.0       1.2
 3 C  pz             37.2       0.4       0.0       0.3       0.2       0.8
 3 C  px              0.1       3.1      12.2       1.9       3.1       3.2
 3 C  py              0.5       6.1       4.9       4.7       0.4      11.8
 3 C  dz2             0.7       0.0       0.0       0.0       0.0       0.0
 3 C  dx2y2           0.0       0.0       0.2       0.0       0.1       0.0
 3 C  dxy             0.0       0.1       0.1       0.0       0.1       0.1
 4 C  s               0.1       0.0       0.1       0.0       0.1       0.5
 4 C  pz              0.9       2.1       0.4       3.4       1.3       1.9
 4 C  px              8.0      11.6       0.1       0.3       4.1       0.3
 4 C  py              0.2       6.6       1.6       1.0       3.4       7.9
 4 C  dz2             0.0       0.0       0.0       0.2       0.1       0.1
 4 C  dx2y2           0.1       0.3       0.0       0.0       0.1       0.1
 4 C  dxy             0.0       0.0       0.0       0.0       0.0       0.1
 5 O  s               0.4       1.0       0.7       0.9       0.0       2.4
 5 O  pz              3.7       2.1       0.4      12.7       0.2       6.2
 5 O  px              0.0       5.7       9.2       0.3       8.4       1.0
 5 O  py              1.3       4.1       1.4       6.8       2.6      15.1
 5 O  dz2             0.1       0.0       0.0       0.2       0.0       0.0
 5 O  dxz             0.1       0.1       0.1       0.0       0.1       0.2
 5 O  dyz             0.4       0.0       0.2       0.0       0.0       1.6
 5 O  dx2y2           0.2       0.0       0.0       0.0       0.0       0.2
 5 O  dxy             0.1       0.0       0.0       0.0       0.1       0.3
 6 H  s               1.9       0.8       1.6       0.1       3.2       0.9
 7 H  s               0.0       5.4       5.1       5.6       0.9       0.1
 8 H  s               1.1       0.1       5.5       0.1       6.4       0.4
 9 H  s               0.0       1.1       4.1       0.1      12.4       1.4
 9 H  pz              0.0       0.1       0.0       0.1       0.0       0.0
10 H  s               0.1       1.8       2.3       9.6       2.8       0.5
10 H  px              0.0       0.0       0.0       0.0       0.1       0.0
11 H  s               4.0       5.6       6.7       0.5       1.2       0.9
11 H  pz              0.1       0.0       0.1       0.0       0.0       0.0
12 H  s               3.2       1.1       6.6       1.2       2.3       0.9
12 H  pz              0.1       0.0       0.1       0.0       0.0       0.0
12 H  px              0.2       0.0       0.0       0.0       0.0       0.0
12 H  py              0.0       0.0       0.0       0.0       0.0       0.1
13 H  s              20.1       0.3       0.0       0.1       0.1       0.1
13 H  pz              0.3       0.0       0.0       0.0       0.0       0.0
13 H  px              0.0       0.0       0.1       0.0       0.0       0.0
13 H  py              0.0       0.1       0.0       0.0       0.0       0.1
14 H  s               4.1       5.6       0.0       0.0       2.9       0.7
15 H  s               0.1       9.7       0.4       2.3       0.5       1.8
15 H  px              0.0       0.0       0.0       0.0       0.1       0.0
15 H  py              0.0       0.1       0.0       0.0       0.0       0.0
16 H  s               0.7       1.0       0.1       2.6       1.4       1.0
16 H  px              0.1       0.1       0.0       0.0       0.0       0.0
17 H  s               0.9       0.4       0.5       0.1       0.0       2.0
17 H  pz              0.0       0.1       0.0       0.3       0.0       0.3
17 H  px              0.0       0.0       0.1       0.0       0.2       0.0

                     24        25        26        27        28        29   
                  -0.23202   0.05936   0.10320   0.11068   0.11914   0.13617
                   2.00000   0.00000   0.00000   0.00000   0.00000   0.00000
                  --------  --------  --------  --------  --------  --------
 0 C  s               0.1       8.7       0.5      17.8       4.8       0.7
 0 C  pz              0.0       1.4       4.1       0.4       2.4       0.7
 0 C  px              0.6       1.0       0.5       2.6       7.4       4.7
 0 C  py              0.0       0.5       5.1       3.5       0.7       5.4
 0 C  dz2             0.0       0.0       0.0       0.0       0.0       0.2
 0 C  dxz             0.0       0.1       0.0       0.2       0.0       0.1
 0 C  dyz             0.0       0.0       0.4       0.0       0.0       0.0
 0 C  dx2y2           0.1       0.2       0.2       0.1       0.0       0.6
 0 C  dxy             0.0       0.0       0.1       0.1       0.2       0.2
 1 C  s               1.1       2.3       9.6       0.3       0.5       6.0
 1 C  pz              2.0       0.6       3.6       0.8       2.8       2.6
 1 C  px              7.8       0.3       2.3       3.0       0.5       7.5
 1 C  py              0.1       0.2       3.6       2.8       2.5       5.3
 1 C  dz2             0.1       0.1       0.1       0.0       0.8       0.7
 1 C  dxz             0.0       0.1       0.2       0.1       0.2       0.0
 1 C  dyz             0.0       0.0       0.0       0.2       0.0       0.0
 1 C  dx2y2           0.0       0.0       0.3       0.4       0.0       0.0
 1 C  dxy             0.0       0.0       0.0       0.5       0.3       0.3
 2 C  s               0.0       1.0       2.3       0.4       0.2       0.3
 2 C  pz              0.0       6.4       0.9       5.8       8.8       1.4
 2 C  px              6.4       0.1       0.1       0.2       0.2       2.8
 2 C  py              0.6       0.3       0.7       0.4       0.5       1.7
 2 C  dz2             0.0       0.6       0.0       0.9       2.0       0.4
 2 C  dxz             1.1       0.0       0.0       0.0       0.0       0.0
 2 C  dyz             0.2       0.1       0.1       0.0       0.0       0.0
 2 C  dx2y2           0.3       0.0       0.1       0.1       0.0       0.6
 2 C  dxy             0.1       0.0       0.1       0.3       0.2       0.3
 3 C  s               0.0       2.4       5.2       0.9       9.6       3.0
 3 C  pz              0.0       0.3       1.2       1.1       1.0       4.4
 3 C  px              0.3       0.1       1.7       0.8       2.4       2.9
 3 C  py              0.1       0.6       3.5       0.0       1.9       0.8
 3 C  dz2             0.0       0.3       0.0       0.3       0.6       0.0
 3 C  dxz             0.0       0.0       0.1       0.0       0.0       0.2
 3 C  dyz             0.0       0.0       0.1       0.1       0.3       0.1
 3 C  dx2y2           0.1       0.0       0.3       0.3       0.0       0.3
 3 C  dxy             0.0       0.1       0.4       0.0       0.0       0.0
 4 C  s               0.8       6.1       3.7       7.2       2.6       3.5
 4 C  pz              1.5       0.7       6.2       2.7       4.7       5.4
 4 C  px              1.9       0.2       1.3       0.3       2.8       0.4
 4 C  py              3.2       1.8       1.5       9.8       2.1       2.6
 4 C  dz2             0.0       0.2       0.0       1.0       0.3       0.2
 4 C  dyz             0.0       0.0       0.0       0.0       0.7       0.0
 4 C  dx2y2           0.1       0.1       0.2       0.0       0.2       0.7
 4 C  dxy             0.0       0.2       0.1       0.0       0.1       0.1
 5 O  s               0.0       6.0       0.4       1.8       1.0       0.3
 5 O  pz              0.1       1.4       0.2       0.9       4.4       1.4
 5 O  px             56.1       1.0       0.4       0.1       0.1       0.6
 5 O  py              8.2       4.7       2.2       0.3       0.3       0.3
 5 O  dz2             0.0       1.6       0.8       0.0       1.7       0.5
 5 O  dxz             1.0       0.0       0.0       0.0       0.0       0.0
 5 O  dyz             0.1       0.9       1.0       0.1       0.1       0.0
 5 O  dx2y2           0.0       1.2       0.9       0.6       1.0       0.3
 5 O  dxy             0.0       0.6       0.3       0.0       0.0       1.2
 6 H  s               0.7       2.4       0.2       0.6       0.4       2.8
 6 H  pz              0.0       0.2       0.0       0.0       0.0       0.5
 6 H  px              0.0       0.4       0.1       0.7       0.4       0.4
 6 H  py              0.0       0.0       0.0       0.1       0.1       0.2
 7 H  s               0.1       2.2       0.9       0.7       0.6       1.1
 7 H  pz              0.0       1.1       0.5       0.7       0.2       0.4
 7 H  px              0.0       0.2       0.0       0.2       0.1       0.3
 7 H  py              0.0       0.0       0.5       0.0       0.0       0.0
 8 H  s               0.1       0.4       0.8       7.2       0.2       1.0
 8 H  pz              0.0       0.1       0.1       0.4       0.2       0.0
 8 H  px              0.0       0.2       0.2       0.7       0.0       0.0
 8 H  py              0.0       0.1       0.0       2.0       0.1       0.5
 9 H  s               0.2       0.4       2.3       1.4       0.0       2.9
 9 H  pz              0.0       0.1       0.3       0.1       0.2       0.0
 9 H  px              0.1       0.0       0.0       0.6       0.0       0.9
 9 H  py              0.0       0.1       1.0       0.0       0.1       1.6
10 H  s               1.1       1.3       2.3       0.1       3.1       1.4
10 H  pz              0.0       0.5       1.7       0.0       0.8       0.0
10 H  px              0.1       0.0       0.2       0.0       0.1       0.0
10 H  py              0.0       0.0       0.0       0.3       0.2       0.0
11 H  s               0.3       0.3       1.6       1.0       2.9       0.4
11 H  pz              0.0       0.1       0.1       0.0       0.0       0.0
11 H  px              0.0       0.1       0.8       0.0       0.2       0.0
11 H  py              0.0       0.0       0.1       0.1       0.9       0.1
12 H  s               0.4       0.2       2.8       0.4       2.3       1.0
12 H  pz              0.0       0.0       0.2       0.1       0.0       0.0
12 H  px              0.0       0.0       0.6       0.0       1.4       0.0
12 H  py              0.0       0.1       0.3       0.0       0.0       0.0
13 H  s               0.0       2.1       0.9       1.6       0.9       1.7
13 H  pz              0.0       0.5       0.7       0.5       0.0       0.9
13 H  px              0.0       0.0       0.1       0.0       0.0       0.2
13 H  py              0.0       0.0       0.2       0.0       0.1       0.1
14 H  s               0.3       0.3       2.7       2.3       0.3       1.0
14 H  pz              0.0       0.1       0.1       0.0       0.0       0.1
14 H  px              0.0       0.1       0.5       0.7       0.4       0.0
14 H  py              0.0       0.2       0.1       0.0       0.1       0.1
15 H  s               0.0       1.2       0.0       2.5       6.8       1.5
15 H  pz              0.0       0.5       0.0       0.0       0.4       0.1
15 H  px              0.0       0.4       0.2       0.2       0.2       0.0
15 H  py              0.0       0.1       0.0       1.7       1.1       0.7
16 H  s               0.7       2.7       0.9       1.8       0.5       3.7
16 H  pz              0.0       0.6       0.6       0.0       0.0       1.6
16 H  px              0.0       0.0       0.1       0.0       0.0       0.0
16 H  py              0.1       0.1       0.0       0.0       0.5       0.0
17 H  s               0.0      21.1       6.6       1.2       0.5       0.4
17 H  pz              0.0       0.7       0.3       0.2       0.1       0.0
17 H  px              1.1       0.6       0.2       0.0       0.0       0.0
17 H  py              0.1       3.8       1.2       0.2       0.2       0.2

                     30        31        32        33        34        35   
                   0.14448   0.14519   0.15544   0.15675   0.16552   0.18379
                   0.00000   0.00000   0.00000   0.00000   0.00000   0.00000
                  --------  --------  --------  --------  --------  --------
 0 C  s               1.1       0.2       1.7       1.1       2.2       0.1
 0 C  pz              1.1       2.8       1.7       5.2       0.5       4.6
 0 C  px              2.0       0.2       8.5       2.0       4.3       3.8
 0 C  py              2.7       5.9       6.7       3.2       4.5       9.5
 0 C  dz2             0.4       0.6       0.3       0.7       0.1       1.0
 0 C  dxz             0.4       0.0       0.0       0.5       0.1       0.1
 0 C  dyz             0.3       0.2       0.1       0.1       0.4       0.0
 0 C  dx2y2           0.2       0.0       0.2       0.0       0.4       0.1
 0 C  dxy             0.1       0.3       0.8       0.4       0.2       0.3
 1 C  s               0.2       3.2       2.2       0.4       0.3       2.6
 1 C  pz              1.6       0.6       2.7       8.0       1.6       2.2
 1 C  px              4.7       2.4       1.5       4.8       7.3       2.0
 1 C  py              5.6       1.3       5.5       3.5       0.5       3.2
 1 C  dz2             0.0       0.0       0.1       0.2       0.2       0.0
 1 C  dxz             0.4       0.0       0.1       0.2       0.6       0.1
 1 C  dyz             0.6       0.0       0.0       1.0       0.1       0.2
 1 C  dx2y2           0.0       0.1       0.4       0.3       0.4       0.0
 1 C  dxy             0.3       0.3       0.1       0.3       0.0       0.0
 2 C  s               5.1       8.3       1.1       0.2       0.9       0.1
 2 C  pz              0.8       0.9       0.0       0.3       0.4       0.3
 2 C  px              0.2       0.8       2.0       1.7       4.7       2.1
 2 C  py              6.5       1.9       0.5       1.7       0.2       0.4
 2 C  dz2             0.3       0.0       0.0       0.0       0.0       0.0
 2 C  dxz             0.0       0.0       0.0       0.3       0.0       0.0
 2 C  dyz             0.2       0.0       0.0       0.0       0.0       0.0
 2 C  dx2y2           0.0       0.1       0.9       0.0       1.3       0.0
 2 C  dxy             0.8       0.3       0.2       0.2       0.0       0.0
 3 C  s               0.8       5.7       5.0       0.2       3.0       0.7
 3 C  pz              0.7       2.8       0.2       2.4       0.6       0.8
 3 C  px              0.9       1.1       2.8       0.6      21.8       7.9
 3 C  py              0.9      28.8       6.7       1.2       0.1       4.7
 3 C  dz2             0.0       0.2       0.0       0.0       0.0       0.0
 3 C  dxz             0.0       0.0       0.1       0.0       0.1       1.6
 3 C  dyz             0.0       0.8       0.0       0.0       0.0       0.3
 3 C  dx2y2           0.2       0.2       0.4       0.1       0.2       0.3
 3 C  dxy             0.1       1.1       0.4       0.0       0.1       0.2
 4 C  s               3.3       1.9       3.8       2.7       0.3       0.2
 4 C  pz              3.8       1.2       0.6       1.5       0.2       8.8
 4 C  px             16.1       1.7       4.5       6.0      12.0       1.1
 4 C  py              7.3       2.9       7.1       6.9       8.8       5.0
 4 C  dz2             0.0       0.1       0.1       0.0       0.0       0.1
 4 C  dxz             1.2       0.0       0.1       0.0       0.0       0.4
 4 C  dyz             0.3       0.4       0.1       0.5       0.0       0.2
 4 C  dx2y2           0.2       0.2       0.6       0.0       0.5       0.1
 4 C  dxy             0.6       0.2       0.2       0.7       0.0       0.2
 5 O  s               0.3       0.4       0.1       0.5       0.0       0.1
 5 O  pz              2.3       0.3       0.1       1.1       0.3       0.1
 5 O  px              0.0       0.2       0.3       0.2       0.0       3.8
 5 O  py              0.4       0.0       0.7       0.1       0.7       0.2
 5 O  dz2             2.4       1.8       0.2       0.2       0.3       0.1
 5 O  dxz             0.3       0.2       0.1       1.2       0.8       0.2
 5 O  dyz             1.5       0.2       0.0       0.1       0.0       0.0
 5 O  dx2y2           0.6       0.8       0.0       0.1       0.2       0.6
 5 O  dxy             1.5       0.0       0.1       0.5       0.0       0.1
 6 H  s               2.7       0.6       2.0       3.9       1.6       0.1
 6 H  pz              0.1       0.1       0.0       0.1       0.0       0.3
 6 H  px              0.2       0.1       1.1       0.7       0.0       0.1
 6 H  py              0.0       0.3       0.4       0.4       0.1       0.1
 7 H  s               2.3       2.6       0.4       2.8       1.8       2.8
 7 H  pz              0.6       0.4       0.0       0.6       0.5       0.3
 7 H  px              0.3       0.0       0.0       0.3       0.1       0.1
 7 H  py              0.3       0.2       0.1       0.0       0.4       0.1
 8 H  s               2.2       0.8       0.9       2.2       0.3       0.2
 8 H  pz              1.0       0.4       0.1       0.1       0.0       0.1
 8 H  px              0.1       0.0       0.1       0.7       0.2       0.0
 8 H  py              0.1       0.0       0.0       1.0       0.0       0.3
 9 H  s               0.3       0.3       0.9       6.9       0.2       0.1
 9 H  pz              0.6       0.0       0.2       0.5       0.2       0.1
 9 H  px              0.1       0.0       0.0       0.1       0.0       0.0
[...]
 3 C  s               2.1       0.1       0.1       0.0       0.0      22.8
 3 C  pz              0.2       0.6       0.8       0.1       0.0       0.0
 3 C  px              2.5       0.3       0.1       0.0       0.0       0.0
 3 C  py              4.8       0.1       0.0       0.1       0.1       0.0
 3 C  dz2             0.3       1.0       1.8       0.7       0.0       0.0
 3 C  dxz             1.3       0.2       0.0       0.0       0.0       0.0
 3 C  dyz             2.6       0.0       0.2       0.1       0.0       0.0
 3 C  dx2y2           3.0       1.5       0.1       0.1       0.0       0.0
 3 C  dxy             2.9       0.1       0.0       0.1       0.0       0.0
 4 C  s               0.4       0.7       0.2       0.1       0.0      20.3
 4 C  pz              0.4       0.7       0.0       0.1       0.0       0.0
 4 C  px              0.1       2.3       0.2       0.1       0.0       0.0
 4 C  py              4.4       0.4       0.5       0.1       0.0       0.0
 4 C  dz2             0.9       0.9       0.0       0.6       0.0       0.0
 4 C  dxz             0.0       1.1       0.0       0.0       0.0       0.0
 4 C  dyz             3.1       0.1       0.4       0.0       0.0       0.0
 4 C  dx2y2           1.0       3.9       0.0       0.1       0.0       0.0
 4 C  dxy             3.3       0.3       0.7       0.2       0.0       0.0
 5 O  s               0.0       0.5       0.3      29.8       7.1       0.0
 5 O  pz              0.0       0.1       0.0      18.5       6.1       0.0
 5 O  px              0.1       0.3       0.1       0.1       1.5       0.0
 5 O  py              1.0       0.1       0.0       0.5      12.5       0.0
 5 O  dz2             0.1       0.0       0.0      18.4       9.4       0.0
 5 O  dxz             0.0       0.4       0.1       0.0       1.4       0.0
 5 O  dyz             1.1       0.1       0.3       0.3       8.7       0.0
 5 O  dx2y2           0.0       0.0       0.0       1.6      11.7       0.0
 5 O  dxy             0.0       0.0       0.3       1.1       8.4       0.0
 6 H  s               0.6       1.0       0.0       0.0       0.0       0.0
 6 H  pz              0.3       0.2       0.0       0.0       0.0       0.0
 6 H  px              1.2       2.3       0.0       0.0       0.0       0.0
 6 H  py              0.2       0.1       0.0       0.0       0.0       0.0
 7 H  s               0.2       0.4       1.3       0.0       0.0       0.0
 7 H  pz              0.7       1.2       3.0       0.0       0.0       0.0
 7 H  px              0.1       0.0       0.1       0.0       0.0       0.0
 7 H  py              0.1       0.0       0.2       0.0       0.0       0.0
 8 H  s               0.0       0.9       1.7       0.0       0.0       0.0
 8 H  pz              0.0       0.4       0.6       0.0       0.0       0.0
 8 H  px              0.4       0.3       0.5       0.0       0.0       0.0
 8 H  py              0.0       1.5       3.2       0.0       0.0       0.0
 9 H  s               0.0       0.9       6.9       0.0       0.0       0.0
 9 H  pz              0.1       1.5       1.4       0.0       0.0       0.0
 9 H  px              0.4       0.4       3.1       0.0       0.0       0.0
 9 H  py              0.0       2.0      12.4       0.0       0.0       0.0
10 H  s               0.6       2.8       4.3       0.1       0.0       0.0
10 H  pz              1.6       8.3       8.9       0.3       0.0       0.0
10 H  px              0.1       0.1       0.0       0.0       0.0       0.0
10 H  py              0.1       0.0       0.6       0.0       0.0       0.0
11 H  s               0.6       0.4       0.3       0.0       0.0       0.0
11 H  pz              0.2       0.0       0.0       0.0       0.0       0.0
11 H  px              1.5       0.3       0.1       0.0       0.0       0.0
11 H  py              0.7       0.7       0.5       0.0       0.0       0.0
12 H  s               1.7       0.2       0.0       0.0       0.0       0.0
12 H  pz              0.6       0.1       0.0       0.0       0.0       0.0
12 H  px              4.5       0.5       0.0       0.0       0.0       0.0
12 H  py              0.2       0.0       0.0       0.0       0.0       0.0
13 H  s               0.2       0.5       0.7       0.1       0.0       0.0
13 H  pz              0.2       1.2       1.6       0.3       0.0       0.0
13 H  px              0.1       0.0       0.0       0.0       0.0       0.0
13 H  py              0.3       0.0       0.0       0.0       0.0       0.0
14 H  s               0.1       1.2       0.0       0.0       0.0       0.0
14 H  pz              0.0       0.5       0.0       0.0       0.0       0.0
14 H  px              0.1       3.0       0.0       0.0       0.0       0.0
14 H  py              0.3       0.0       0.0       0.0       0.0       0.0
15 H  s               3.3       0.5       0.2       0.0       0.0       0.0
15 H  pz              1.2       0.1       0.1       0.0       0.0       0.0
15 H  px              1.6       0.0       0.3       0.0       0.0       0.0
15 H  py              6.1       0.8       0.2       0.0       0.0       0.0
16 H  s               0.4       0.4       0.0       0.1       0.0       0.0
16 H  pz              0.7       1.1       0.0       0.3       0.0       0.0
16 H  px              0.0       0.1       0.0       0.0       0.0       0.0
16 H  py              0.2       0.0       0.0       0.0       0.0       0.0
17 H  s               0.1       0.0       0.0       0.4      13.9       0.0
17 H  pz              0.0       0.0       0.4       0.3       2.0       0.0
17 H  px              0.0       0.0       0.1       0.0       1.7       0.0
17 H  py              0.0       0.0       0.0       0.4      12.5       0.0

                    174       175       176       177       178   
                  21.96611  22.02565  22.03814  22.16349  43.76667
                   0.00000   0.00000   0.00000   0.00000   0.00000
                  --------  --------  --------  --------  --------
 0 C  s              48.0       0.9       0.0       0.0       0.0
 1 C  s               9.8      23.3      58.5       2.5       0.0
 2 C  s               0.1       1.1       2.6      95.6       0.1
 3 C  s              15.4      57.1       3.5       0.8       0.0
 4 C  s              26.2      17.3      35.0       0.9       0.0
 5 O  s               0.0       0.0       0.0       0.1      99.8


                      *****************************
                      * MAYER POPULATION ANALYSIS *
                      *****************************

  NA   - Mulliken gross atomic population
  ZA   - Total nuclear charge
  QA   - Mulliken gross atomic charge
  VA   - Mayer's total valence
  BVA  - Mayer's bonded valence
  FA   - Mayer's free valence

  ATOM       NA         ZA         QA         VA         BVA        FA
  0 C      6.5365     6.0000    -0.5365     3.8227     3.8227    -0.0000
  1 C      6.1864     6.0000    -0.1864     3.4662     3.4662    -0.0000
  2 C      5.8509     6.0000     0.1491     3.5231     3.5231     0.0000
  3 C      6.4711     6.0000    -0.4711     3.8084     3.8084     0.0000
  4 C      6.4885     6.0000    -0.4885     3.7697     3.7697    -0.0000
  5 O      8.4116     8.0000    -0.4116     1.7248     1.7248     0.0000
  6 H      0.8468     1.0000     0.1532     0.9620     0.9620    -0.0000
  7 H      0.8549     1.0000     0.1451     0.9624     0.9624     0.0000
  8 H      0.8443     1.0000     0.1557     0.9594     0.9594    -0.0000
  9 H      0.8463     1.0000     0.1537     0.9623     0.9623     0.0000
 10 H      0.8627     1.0000     0.1373     0.9660     0.9660    -0.0000
 11 H      0.8466     1.0000     0.1534     0.9648     0.9648    -0.0000
 12 H      0.8431     1.0000     0.1569     0.9631     0.9631     0.0000
 13 H      0.8543     1.0000     0.1457     0.9667     0.9667     0.0000
 14 H      0.8404     1.0000     0.1596     0.9620     0.9620    -0.0000
 15 H      0.8544     1.0000     0.1456     0.9647     0.9647     0.0000
 16 H      0.8471     1.0000     0.1529     0.9642     0.9642    -0.0000
 17 H      0.7144     1.0000     0.2856     0.9180     0.9180     0.0000

  Mayer bond orders larger than 0.100000
B(  0-C ,  1-C ) :   0.8549 B(  0-C ,  6-H ) :   0.9689 B(  0-C ,  7-H ) :   0.9848 
B(  0-C ,  8-H ) :   0.9847 B(  1-C ,  2-C ) :   0.9092 B(  1-C ,  9-H ) :   0.9687 
B(  1-C , 10-H ) :   0.9725 B(  2-C ,  3-C ) :   0.9444 B(  2-C ,  4-C ) :   0.9438 
B(  2-C ,  5-O ) :   0.8370 B(  3-C , 11-H ) :   0.9739 B(  3-C , 12-H ) :   0.9735 
B(  3-C , 13-H ) :   0.9820 B(  4-C , 14-H ) :   0.9700 B(  4-C , 15-H ) :   0.9658 
B(  4-C , 16-H ) :   0.9743 B(  5-O , 17-H ) :   0.9010 

-------
TIMINGS
-------

Total SCF time: 0 days 0 hours 0 min 17 sec 

Total time                  ....      17.696 sec
Sum of individual times     ....      17.234 sec  ( 97.4%)

SCF preparation             ....       0.157 sec  (  0.9%)
Fock matrix formation       ....      16.290 sec  ( 92.1%)
  Startup                   ....       0.050 sec  (  0.3% of F)
  Split-RI-J                ....       2.657 sec  ( 16.3% of F)
  XC integration            ....      13.074 sec  ( 80.3% of F)
    XC Preparation          ....       0.000 sec  (  0.0% of XC)
    Basis function eval.    ....       2.276 sec  ( 17.4% of XC)
    Density eval.           ....       4.002 sec  ( 30.6% of XC)
    XC-Functional eval.     ....       1.644 sec  ( 12.6% of XC)
    XC-Potential eval.      ....       4.275 sec  ( 32.7% of XC)
Diagonalization             ....       0.000 sec  (  0.0%)
Density matrix formation    ....       0.211 sec  (  1.2%)
Total Energy calculation    ....       0.029 sec  (  0.2%)
Population analysis         ....       0.090 sec  (  0.5%)
Orbital Transformation      ....       0.048 sec  (  0.3%)
Orbital Orthonormalization  ....       0.000 sec  (  0.0%)
DIIS solution               ....       0.367 sec  (  2.1%)
  MO trafo                  ....       0.000 sec  (  0.0 % of DIIS)
  Orb grad                  ....       0.000 sec  (  0.0 % of DIIS)
  Energy W gradient         ....       0.000 sec  (  0.0 % of DIIS)
  DIIS error                ....       0.008 sec  (  2.1 % of DIIS)
  DIIS work                 ....       0.313 sec  ( 85.5 % of DIIS)
  Form Q                    ....       0.000 sec  (  0.0 % of DIIS)
  Form QpQm                 ....       0.000 sec  (  0.0 % of DIIS)
  Exp/Cayley                ....       0.000 sec  (  0.0 % of DIIS)
  Orb update                ....       0.000 sec  (  0.0 % of DIIS)
  Wake-sleep                ....       0.022 sec  (  6.0 % of DIIS)
SOSCF solution              ....       0.042 sec  (  0.2%)
  MO trafo                  ....       0.033 sec  ( 77.6 % of SOSCF)
  Orb grad                  ....       0.001 sec  (  1.3 % of SOSCF)
  Rot update                ....       0.000 sec  (  0.1 % of SOSCF)
  Step                      ....       0.009 sec  ( 20.9 % of SOSCF)
Finished LeanSCF after  17.8 sec

Maximum memory used throughout the entire LEANSCF-calculation: 19.9 MB


-------------------------------------------------------------------------------
                          DFT DISPERSION CORRECTION                            
                                                                               
                                DFTD4 V3.4.0                                   
-------------------------------------------------------------------------------
The R2SCAN3C composite method is recognized
Using three-body term ABC
Active option DFTDOPT                   ...         5   

-------------------------   ----------------
Dispersion correction           -0.004528682
-------------------------   ----------------

------------------   -----------------
gCP correction             0.009663432
------------------   -----------------

-------------------------   --------------------
FINAL SINGLE POINT ENERGY      -272.908813683493
-------------------------   --------------------


------------------------------------------------------------------------------
                              ORCA PROPERTY CALCULATIONS
------------------------------------------------------------------------------

GBWName                                 ... sp_gas.gbw
Number of atoms                         ...     18
Number of basis functions               ...    179
Max core memory                         ...   1024 MB

Electric properties:
Dipole moment                           ... YES
Quadrupole moment                       ...  NO
Static polarizability (Dipole/Dipole)   ...  NO
Static polarizability (Dipole/Quad.)    ...  NO
Static polarizability (Quad./Quad.)     ...  NO
Static polarizability (Velocity)        ...  NO

Atomic electric properties:
Dipole moment                           ...  NO
Quadrupole moment                       ...  NO
Static polarizability                   ...  NO

Choice of electric origin               ... Center of mass
Position of electric origin             ...     0.000007    -0.000006     0.000020

General magnetic properties:
Magnetizability                         ...  NO

EPR properties:
g-Tensor (aka g-matrix)                 ...  NO
Zero-Field splitting spin-orbit         ...  NO
Zero-field splitting spin-spin          ...  NO
Hyperfine couplings                     ...  NO (   0 nuclei)
Quadrupole couplings                    ...  NO (   0 nuclei)
Contact density                         ...  NO (   0 nuclei)

NMR properties:
Chemical shifts                         ...  NO (   0 nuclei)
Spin-rotation constants                 ...  NO (   0 nuclei)
Spin-spin couplings                     ...  NO (   0 nuclei,    0 pairs)

Choice of magnetic origin               ... GIAO
Position of magnetic origin             ...     0.000000     0.000000     0.000000

Properties with geometric perturbations:
SCF Hessian                             ...  NO
IR spectrum                             ...  NO
VCD spectrum                            ...  NO
X-ray spectroscopy properties:
SCF XES/XAS/RIXS spectra                ...  NO


-------------
DIPOLE MOMENT
-------------

Method             : SCF
Type of density    : Electron Density
Multiplicity       :   1
Irrep              :   0
Energy             :  -272.9139484335963175 Eh
Relativity type    : 
Basis              : AO
                                X                 Y                 Z
Electronic contribution:     -1.018992826       1.220700796      -2.971309250
Nuclear contribution   :      1.225698997      -1.641150403       3.354823899
                        -----------------------------------------
Total Dipole Moment    :      0.206706171      -0.420449607       0.383514649
                        -----------------------------------------
Magnitude (a.u.)       :      0.605465770
Magnitude (Debye)      :      1.538971684



--------------------
Rotational spectrum 
--------------------
 
Rotational constants in cm-1:             0.151482             0.086205             0.084468 
Rotational constants in MHz :          4541.303587          2584.363093          2532.272358 

Dipole components along the rotational axes: 
x,y,z [a.u.] :     0.397608    -0.254243    -0.379285 
x,y,z [Debye]:     1.010639    -0.646235    -0.964065 

 

Dipole moment calculation done in   0.0 sec 

Maximum memory used throughout the entire PROP-calculation: 10.8 MB

--------------------------------
SUGGESTED CITATIONS FOR THIS RUN
--------------------------------

Below you find a list of papers that are relevant to this ORCA run
We neither can nor want to force you to cite these papers, but we appreciate if you do
You receive ORCA, which is the product of decades of hard work by many enthusiastic individuals, for free
The only thing we kindly ask in return is that you cite our papers,
We deeply appreciate it, if you show your appreciation for ORCA by not just citing the generic ORCA reference.

Please note that relegating all ORCA citations to the supporting information does *not* help us.
SI sections are not indexed - citations you put there will not count into any citation statistics
But we need these citations in order to attract the funding resources that allow us to do what we are doing

Therefore, if you are a happy ORCA user, please consider citing a few of the papers listed below in the main body of your paper

In addition to the list printed below, the program has created the file sp_gas.bibtex that contains the list in bibtex format
You can import this file easily into all common literature databanks and citation aid programs


List of essential papers. We consider these as the minimum necessary citations

  1. Neese,F.
     Software update: the ORCA program system, version 5.0
     WIRES Comput. Molec. Sci., 2022 12(1)e1606
     doi.org/10.1002/wcms.1606
  2. Grimme,S.; Hansen,A.; Ehlert,S.; Mewes,J.
     r2SCAN-3c: A 'Swiss army knife' composite electronic-structure method
     J. Chem. Phys., 2021 154 064103
     doi.org/10.1063/5.0040021

List of papers to cite with high priority. The work reported in these papers was absolutely
necessary for this run to complete.
Our perspective: the developers of density functionals and basis sets usually get cited in chemistry papers
Good! But without the algorithms to do something with them, the functionals or basis sets would not do anything.
Hence, in our opinion, the algorithm design and method developments papers are equally worthy of getting cited

  1. Neese,F.
     An improvement of the resolution of the identity approximation for the formation of the Coulomb matrix
     J. Comp. Chem., 2003 24(14)1740-1747
     doi.org/10.1002/jcc.10318
  2. Neese,F.
     The SHARK Integral Generation and Digestion System
     J. Comp. Chem., 2022  1-16
     doi.org/10.1002/jcc.26942
  3. Lehtola,S.; Steigemann,C.; Oliveira,M.; Marques,M.
     Recent developments in Libxc - A comprehensive library of functionals for density functional theory
     Software X, 2018 7 
     doi.org/10.1016/j.softx.2017.11.002
  4. Caldeweyher,E.; Bannwarth,C.; Grimme,S.
     Extension of the D3 dispersion coefficient model
     J. Chem. Phys., 2017 147 034112-XXXX
     doi.org/10.1063/1.4993215
  5. Caldeweyher,E.; Ehlert,S.; Hansen,A.; Neugebauer,H.; Spicher,S.; Bannwarth,C.; Grimme,S.
     A generally applicable atomic-charge dependent London dispersion correction
     J. Chem. Phys., 2019 150 154122-XXXX
     doi.org/10.1063/1.5090222
  6. Caldeweyher,E.; Mewes,J.; Ehlert,S.; Grimme,S.
     Extension and evaluation of the D4 London-dispersion model for periodic systems
     Phys. Chem. Chem. Phys., 2020 22(16)8499-8512
     doi.org/10.1039/D0CP00502A

List of suggested additional citations. These are papers that are important in the 'surrounding' of 
of this run, or papers that preceded the highly important papers. If you like your results we are grateful for a citation.

  1. Neese,F.
     The ORCA program system
     WIRES Comput. Molec. Sci., 2012 2(1)73-78
     doi.org/10.1002/wcms.81
  2. Neese,F.
     Software update: the ORCA program system, version 4.0
     WIRES Comput. Molec. Sci., 2018 8(1)1-6
     doi.org/10.1002/wcms.1327
  3. Neese,F.; Wennmohs,F.; Becker,U.; Riplinger,C.
     The ORCA quantum chemistry program package
     J. Chem. Phys., 2020 152 Art. No. L224108
     doi.org/10.1063/5.0004608

List of optional additional citations

  1. Neese,F.
     Approximate second-order SCF convergence for spin unrestricted wavefunctions
     Chem. Phys. Lett., 2000 325(1-3)93-98
     doi.org/10.1016/s0009-2614(00)00662-x

Timings for individual modules:

Sum of individual times          ...       19.106 sec (=   0.318 min)
Startup calculation              ...        0.978 sec (=   0.016 min)   5.1 %
SCF iterations                   ...       18.025 sec (=   0.300 min)  94.3 %
Property calculations            ...        0.103 sec (=   0.002 min)   0.5 %
                             ****ORCA TERMINATED NORMALLY****
TOTAL RUN TIME: 0 days 0 hours 0 minutes 19 seconds 725 msec
