      -----------------------------------------------------------      
     |                   =====================                   |     
     |                           x T B                           |     
     |                   =====================                   |     
     |                         S. Grimme                         |     
     |          Mulliken Center for Theoretical Chemistry        |     
     |                    University of Bonn                     |     
      -----------------------------------------------------------      

   * xtb version 6.7.1 (edcfbbe) compiled by 'albert@albert-system' on 2024-07-22

   xtb is free software: you can redistribute it and/or modify it under
   the terms of the GNU Lesser General Public License as published by
   the Free Software Foundation, either version 3 of the License, or
   (at your option) any later version.
   
   xtb is distributed in the hope that it will be useful,
   but WITHOUT ANY WARRANTY; without even the implied warranty of
   MERCHANTABILITY or FITNESS FOR A PARTICULAR PURPOSE.  See the
   GNU Lesser General Public License for more details.
   
   Cite this work as:
   * C. Bannwarth, E. Caldeweyher, S. Ehlert, A. Hansen, P. Pracht,
     J. Seibert, S. Spicher, S. Grimme, WIREs Comput. Mol. Sci., 2020, 11,
     e01493. DOI: 10.1002/wcms.1493
   
   for GFN2-xTB:
   * C. Bannwarth, S. Ehlert and S. Grimme., J. Chem. Theory Comput., 2019,
     15, 1652-1671. DOI: 10.1021/acs.jctc.8b01176
   for GFN1-xTB:
   * S. Grimme, C. Bannwarth, P. Shushkov, J. Chem. Theory Comput., 2017,
     13, 1989-2009. DOI: 10.1021/acs.jctc.7b00118
   for GFN0-xTB:
   * P. Pracht, E. Caldeweyher, S. Ehlert, S. Grimme, ChemRxiv, 2019, preprint.
     DOI: 10.26434/chemrxiv.8326202.v1
   for GFN-FF:
   * S. Spicher and S. Grimme, Angew. Chem. Int. Ed., 2020, 59, 15665-15673.
     DOI: 10.1002/anie.202004239
   
   for ALPB and GBSA implicit solvation:
   * S. Ehlert, M. Stahn, S. Spicher, S. Grimme, J. Chem. Theory Comput.,
     2021, 17, 4250-4261. DOI: 10.1021/acs.jctc.1c00471
   
   for ddCOSMO and CPCM-X implicit solvation:
   * M. Stahn, S. Ehlert, S. Grimme, J. Phys. Chem. A,
     2023, XX, XXXX-XXXX. DOI: 10.1021/acs.jpca.3c04382
   
   for DFT-D4:
   * E. Caldeweyher, C. Bannwarth and S. Grimme, J. Chem. Phys., 2017,
     147, 034112. DOI: 10.1063/1.4993215
   * E. Caldeweyher, S. Ehlert, A. Hansen, H. Neugebauer, S. Spicher,
     C. Bannwarth and S. Grimme, J. Chem. Phys., 2019, 150, 154122.
     DOI: 10.1063/1.5090222
   * E. Caldeweyher, J.-M. Mewes, S. Ehlert and S. Grimme, Phys. Chem. Chem. Phys.
     2020, 22, 8499-8512. DOI: 10.1039/D0CP00502A
   
   for sTDA-xTB:
   * S. Grimme and C. Bannwarth, J. Chem. Phys., 2016, 145, 054103.
     DOI: 10.1063/1.4959605
   
   in the mass-spec context:
   * V. Asgeirsson, C. Bauer and S. Grimme, Chem. Sci., 2017, 8, 4879.
     DOI: 10.1039/c7sc00601b
   * J. Koopman and S. Grimme, ACS Omega 2019, 4, 12, 15120-15133.
     DOI: 10.1021/acsomega.9b02011
   
   for metadynamics refer to:
   * S. Grimme, J. Chem. Theory Comput., 2019, 155, 2847-2862
     DOI: 10.1021/acs.jctc.9b00143
   
   for SPH calculations refer to:
   * S. Spicher and S. Grimme, J. Chem. Theory Comput., 2021, 17, 1701-1714
     DOI: 10.1021/acs.jctc.0c01306
   
   for ONIOM refer to:
   * C. Plett, A. Katbashev, S. Ehlert, S. Grimme, M. Bursch,
     Phys. Chem. Chem. Phys., 2023, 25, 17860-17868. DOI: 10.1039/D3CP02178E
   
   for DIPRO refer to:
   * J. Kohn, N. Gildemeister, S. Grimme, D. Fazzi, A. Hansen,
     J. Chem. Phys., 2023, just accepted.
   
   for PTB refer to:
   * S. Grimme, M. Mueller, A. Hansen, J. Chem. Phys., 2023, 158, 124111.
     DOI: 10.1063/5.0137838
   
   with help from (in alphabetical order)
   P. Atkinson, C. Bannwarth, F. Bohle, G. Brandenburg, E. Caldeweyher
   M. Checinski, S. Dohm, S. Ehlert, S. Ehrlich, I. Gerasimov, C. Hölzer
   A. Katbashev, J. Kohn, J. Koopman, C. Lavigne, S. Lehtola, F. März, M. Müller,
   F. Musil, H. Neugebauer, J. Pisarek, C. Plett, P. Pracht, F. Pultar,
   J. Seibert, P. Shushkov, S. Spicher, M. Stahn, M. Steiner, T. Strunk,
   J. Stückrath, T. Rose, and J. Unsleber
   
 * started run on 2025/04/06 at 19:15:06.453     
   ID    Z sym.   atoms
    1    6 C      1, 2, 4, 6, 8, 10
    2    1 H      3, 5, 7, 9, 11, 18-24
    3    8 O      12-17

           -------------------------------------------------
          |                Calculation Setup                |
           -------------------------------------------------

          program call               : /srv/scratch/z5358697/.xtb/bin/xtb xtb_rrho.coord --gfn2 --ohess vtight --chrg 0 --enso --norestart -I rrho-xcontrol-inp --parallel 1 --alpb water
          hostname                   : k155
          coordinate file            : xtb_rrho.coord
          omp threads                :                     1


           -------------------------------------------------
          |                 G F N 2 - x T B                 |
           -------------------------------------------------

        Reference                      10.1021/acs.jctc.8b01176
      * Hamiltonian:
        H0-scaling (s, p, d)           1.850000    2.230000    2.230000
        zeta-weighting                 0.500000
      * Dispersion:
        s8                             2.700000
        a1                             0.520000
        a2                             5.000000
        s9                             5.000000
      * Repulsion:
        kExp                           1.500000    1.000000
        rExp                           1.000000
      * Coulomb:
        alpha                          2.000000
        third order                    shell-resolved
        anisotropic                    true
        a3                             3.000000
        a5                             4.000000
        cn-shift                       1.200000
        cn-exp                         4.000000
        max-rad                        5.000000

      * Solvation model:               ALPB
        Solvent                        water
        Parameter file                 internal GFN2-xTB/ALPB
        Dielectric constant                8.0200E+01
        Reference state                gsolv [1 M gas/solution]
        Free energy shift                  1.0808E-03 Eh       6.7819E-01 kcal/mol
        Temperature                        2.9815E+02 K
        Density                            1.0000E+00 kg/L
        Solvent mass                       1.8000E+01 g/mol
        Interaction kernel             P16
        Born radius scaling (c1)           1.4744E+00
        Born radii integrator          GBOBC
        Born offset                        0.0000E+00 a0       0.0000E+00 AA
        H-bond correction              true
        Ion screening                  false
        Surface tension                    1.0000E-05 Eh       1.5569E+01 dyn/cm
        Grid points                               974 per atom

          ...................................................
          :                      SETUP                      :
          :.................................................:
          :  # basis functions                  60          :
          :  # atomic orbitals                  60          :
          :  # shells                           36          :
          :  # electrons                        72          :
          :  max. iterations                   250          :
          :  Hamiltonian                  GFN2-xTB          :
          :  restarted?                      false          :
          :  GBSA solvation                   true          :
          :  PC potential                    false          :
          :  electronic temp.          300.0000000     K    :
          :  accuracy                    1.0000000          :
          :  -> integral cutoff          0.2500000E+02      :
          :  -> integral neglect         0.1000000E-07      :
          :  -> SCF convergence          0.1000000E-05 Eh   :
          :  -> wf. convergence          0.1000000E-03 e    :
          :  Broyden damping             0.4000000          :
          :  net charge                          0          :
          :  unpaired electrons                  0          :
          ...................................................

 iter      E             dE          RMSdq      gap      omega  full diag
   1    -43.6329530 -0.436330E+02  0.494E+00    9.96       0.0  T
   2    -43.6817799 -0.488268E-01  0.260E+00    9.75       1.0  T
   3    -43.6841128 -0.233291E-02  0.715E-01    9.82       1.0  T
   4    -43.6845719 -0.459112E-03  0.190E-01    9.81       1.0  T
   5    -43.6846312 -0.592796E-04  0.749E-02    9.83       1.0  T
   6    -43.6846488 -0.176500E-04  0.238E-02    9.83       1.0  T
   7    -43.6846498 -0.100224E-05  0.720E-03    9.83       2.8  T
   8    -43.6846501 -0.278753E-06  0.233E-03    9.83       8.8  T
   9    -43.6846501 -0.123927E-07  0.960E-04    9.83      21.3  T
  10    -43.6846501 -0.390597E-08  0.379E-04    9.83      53.9  T

   *** convergence criteria satisfied after 10 iterations ***

         #    Occupation            Energy/Eh            Energy/eV
      -------------------------------------------------------------
         1        2.0000           -0.7287623             -19.8306
       ...           ...                  ...                  ...
        30        2.0000           -0.4674924             -12.7211
        31        2.0000           -0.4521755             -12.3043
        32        2.0000           -0.4466599             -12.1542
        33        2.0000           -0.4394270             -11.9574
        34        2.0000           -0.4274054             -11.6303
        35        2.0000           -0.4220178             -11.4837
        36        2.0000           -0.4162566             -11.3269 (HOMO)
        37                         -0.0550150              -1.4970 (LUMO)
        38                         -0.0202839              -0.5520
        39                         -0.0088576              -0.2410
        40                          0.0130474               0.3550
        41                          0.0382919               1.0420
       ...                                ...                  ...
        60                          0.2735522               7.4437
      -------------------------------------------------------------
                  HL-Gap            0.3612416 Eh            9.8299 eV
             Fermi-level           -0.2356358 Eh           -6.4120 eV

 SCC (total)                   0 d,  0 h,  0 min,  0.023 sec
 SCC setup                      ...        0 min,  0.001 sec (  5.536%)
 Dispersion                     ...        0 min,  0.000 sec (  0.562%)
 classical contributions        ...        0 min,  0.000 sec (  0.101%)
 integral evaluation            ...        0 min,  0.002 sec (  9.912%)
 iterations                     ...        0 min,  0.013 sec ( 55.607%)
 molecular gradient             ...        0 min,  0.006 sec ( 27.693%)
 printout                       ...        0 min,  0.000 sec (  0.540%)

         :::::::::::::::::::::::::::::::::::::::::::::::::::::
         ::                     SUMMARY                     ::
         :::::::::::::::::::::::::::::::::::::::::::::::::::::
         :: total energy             -43.384690431905 Eh    ::
         :: total w/o Gsasa/hb       -43.365885810759 Eh    ::
         :: gradient norm              0.057787918015 Eh/a0 ::
         :: HOMO-LUMO gap              9.829885369228 eV    ::
         ::.................................................::
         :: SCC energy               -43.684504513894 Eh    ::
         :: -> isotropic ES            0.175206796711 Eh    ::
         :: -> anisotropic ES         -0.003535141397 Eh    ::
         :: -> anisotropic XC         -0.007733317522 Eh    ::
         :: -> dispersion             -0.018640861971 Eh    ::
         :: -> Gsolv                  -0.039944093377 Eh    ::
         ::    -> Gelec               -0.021139472231 Eh    ::
         ::    -> Gsasa                0.005713895918 Eh    ::
         ::    -> Ghb                 -0.025599276762 Eh    ::
         ::    -> Gshift               0.001080759698 Eh    ::
         :: repulsion energy           0.299814081989 Eh    ::
         :: add. restraining           0.000000000000 Eh    ::
         :: total charge              -0.000000000000 e     ::
         :::::::::::::::::::::::::::::::::::::::::::::::::::::

      ----------------------------------------------------------- 
     |                   =====================                   |
     |                        A N C O P T                        |
     |                   =====================                   |
     |               Approximate Normal Coordinate               |
     |                Rational Function Optimizer                |
      ----------------------------------------------------------- 
      ----------------------------------------------------------- 
     |                   =====================                   |
     |                        A N C O P T                        |
     |                   =====================                   |
     |               Approximate Normal Coordinate               |
     |                Rational Function Optimizer                |
      ----------------------------------------------------------- 

          ...................................................
          :                      SETUP                      :
          :.................................................:
          :   optimization level         verytight          :
          :   max. optcycles                   480          :
          :   ANC micro-cycles                  20          :
          :   degrees of freedom                66          :
          :.................................................:
          :   RF solver                   davidson          :
          :   write xtbopt.log                true          :
          :   linear?                        false          :
          :   energy convergence         0.1000000E-06 Eh   :
          :   grad. convergence          0.2000000E-03 Eh/α :
          :   maxmium RF displ.          1.0000000          :
          :   Hlow (freq-cutoff)         0.1000000E-01      :
          :   Hmax (freq-cutoff)         5.0000000          :
          :   S6 in model hess.         20.0000000          :
          ...................................................

generating ANC from exact Hessian ...
Using Lindh-Hessian (1995)
 Shifting diagonal of input Hessian by   7.286205090700694E-003
 Lowest  eigenvalues of input Hessian
    0.000000    0.000000    0.000000    0.000000    0.000000    0.000000
    0.010000    0.011692    0.013163    0.013729    0.016080    0.019415
    0.021010    0.021834    0.024453    0.031004    0.032532    0.033455
 Highest eigenvalues
    1.414712    1.432863    1.442752    1.458859    1.484036    1.572080
 

........................................................................
.............................. CYCLE    1 ..............................
........................................................................

 iter      E             dE          RMSdq      gap      omega  full diag
   1    -43.6846501 -0.436847E+02  0.117E-04    9.83       0.0  T
   2    -43.6846501 -0.446008E-10  0.734E-05    9.83     278.0  T
   3    -43.6846501 -0.927969E-11  0.312E-05    9.83     654.1  T
     SCC iter.                  ...        0 min,  0.002 sec
     gradient                   ...        0 min,  0.006 sec
 * total energy  :   -43.3846904 Eh     change       -0.6387353E-09 Eh
   gradient norm :     0.0577899 Eh/α   predicted     0.0000000E+00 (-100.00%)
   displ. norm   :     0.1358279 α      lambda       -0.3615408E-02
   maximum displ.:     0.0514372 α      in ANC's #4, #7, #6, ...

........................................................................
.............................. CYCLE    2 ..............................
........................................................................

 iter      E             dE          RMSdq      gap      omega  full diag
   1    -43.6902750 -0.436903E+02  0.102E-01   10.12       0.0  T
   2    -43.6902883 -0.133298E-04  0.621E-02   10.12       1.0  T
   3    -43.6902890 -0.733452E-06  0.154E-02   10.12       1.3  T
   4    -43.6902908 -0.179468E-05  0.439E-03   10.12       4.6  T
   5    -43.6902909 -0.494956E-07  0.191E-03   10.12      10.7  T
   6    -43.6902909 -0.109292E-07  0.951E-04   10.12      21.5  T
   7    -43.6902909 -0.261684E-08  0.178E-04   10.12     114.8  T
     SCC iter.                  ...        0 min,  0.004 sec
     gradient                   ...        0 min,  0.006 sec
 * total energy  :   -43.3873246 Eh     change       -0.2634203E-02 Eh
   gradient norm :     0.0293700 Eh/α   predicted    -0.1841100E-02 ( -30.11%)
   displ. norm   :     0.1833608 α      lambda       -0.1888006E-02
   maximum displ.:     0.0913014 α      in ANC's #4, #7, #6, ...

........................................................................
.............................. CYCLE    3 ..............................
........................................................................

 iter      E             dE          RMSdq      gap      omega  full diag
   1    -43.6925100 -0.436925E+02  0.900E-02   10.43       0.0  T
   2    -43.6925247 -0.147062E-04  0.554E-02   10.43       1.0  T
   3    -43.6925254 -0.733675E-06  0.174E-02   10.43       1.2  T
   4    -43.6925270 -0.160631E-05  0.397E-03   10.43       5.1  T
   5    -43.6925271 -0.448611E-07  0.181E-03   10.43      11.2  T
   6    -43.6925271 -0.960993E-08  0.914E-04   10.43      22.3  T
   7    -43.6925271 -0.220920E-08  0.175E-04   10.43     116.4  T
     SCC iter.                  ...        0 min,  0.004 sec
     gradient                   ...        0 min,  0.006 sec
 * total energy  :   -43.3883587 Eh     change       -0.1034036E-02 Eh
   gradient norm :     0.0072380 Eh/α   predicted    -0.9758422E-03 (  -5.63%)
   displ. norm   :     0.0822299 α      lambda       -0.1730639E-03
   maximum displ.:     0.0449507 α      in ANC's #4, #7, #6, ...

........................................................................
.............................. CYCLE    4 ..............................
........................................................................

 iter      E             dE          RMSdq      gap      omega  full diag
   1    -43.6919495 -0.436919E+02  0.292E-02   10.46       0.0  T
   2    -43.6919496 -0.172668E-06  0.177E-02   10.46       1.2  T
   3    -43.6919497 -0.395012E-07  0.145E-03   10.46      14.1  T
   4    -43.6919497 -0.186335E-07  0.709E-04   10.46      28.8  T
   5    -43.6919497 -0.122655E-08  0.291E-04   10.46      70.1  T
     SCC iter.                  ...        0 min,  0.003 sec
     gradient                   ...        0 min,  0.006 sec
 * total energy  :   -43.3884940 Eh     change       -0.1352835E-03 Eh
   gradient norm :     0.0064707 Eh/α   predicted    -0.8712507E-04 ( -35.60%)
   displ. norm   :     0.1423069 α      lambda       -0.2078863E-03
   maximum displ.:     0.0780437 α      in ANC's #4, #7, #6, ...

........................................................................
.............................. CYCLE    5 ..............................
........................................................................

 iter      E             dE          RMSdq      gap      omega  full diag
   1    -43.6911334 -0.436911E+02  0.448E-02   10.48       0.0  T
   2    -43.6911338 -0.384699E-06  0.272E-02   10.48       1.0  T
   3    -43.6911339 -0.151234E-06  0.214E-03   10.48       9.5  T
   4    -43.6911340 -0.222521E-07  0.116E-03   10.48      17.6  T
   5    -43.6911340 -0.345716E-08  0.496E-04   10.48      41.2  T
   6    -43.6911340 -0.616957E-09  0.139E-04   10.48     146.7  T
     SCC iter.                  ...        0 min,  0.003 sec
     gradient                   ...        0 min,  0.006 sec
 * total energy  :   -43.3886288 Eh     change       -0.1348628E-03 Eh
   gradient norm :     0.0055020 Eh/α   predicted    -0.1060508E-03 ( -21.36%)
   displ. norm   :     0.0910550 α      lambda       -0.8120668E-04
   maximum displ.:     0.0480405 α      in ANC's #4, #7, #6, ...

........................................................................
.............................. CYCLE    6 ..............................
........................................................................

 iter      E             dE          RMSdq      gap      omega  full diag
   1    -43.6912923 -0.436913E+02  0.276E-02   10.48       0.0  T
   2    -43.6912924 -0.157777E-06  0.168E-02   10.48       1.2  T
   3    -43.6912925 -0.416348E-07  0.145E-03   10.48      14.1  T
   4    -43.6912925 -0.176956E-07  0.723E-04   10.48      28.3  T
   5    -43.6912925 -0.924146E-09  0.267E-04   10.48      76.4  T
     SCC iter.                  ...        0 min,  0.003 sec
     gradient                   ...        0 min,  0.006 sec
 * total energy  :   -43.3886906 Eh     change       -0.6180467E-04 Eh
   gradient norm :     0.0043117 Eh/α   predicted    -0.4098985E-04 ( -33.68%)
   displ. norm   :     0.1062424 α      lambda       -0.8306665E-04
   maximum displ.:     0.0586515 α      in ANC's #7, #4, #2, ...

........................................................................
.............................. CYCLE    7 ..............................
........................................................................

 iter      E             dE          RMSdq      gap      omega  full diag
   1    -43.6920315 -0.436920E+02  0.345E-02   10.47       0.0  T
   2    -43.6920317 -0.200210E-06  0.209E-02   10.47       1.0  T
   3    -43.6920318 -0.610702E-07  0.163E-03   10.47      12.5  T
   4    -43.6920318 -0.185757E-07  0.867E-04   10.47      23.5  T
   5    -43.6920318 -0.101161E-08  0.262E-04   10.47      78.0  T
     SCC iter.                  ...        0 min,  0.003 sec
     gradient                   ...        0 min,  0.006 sec
 * total energy  :   -43.3887459 Eh     change       -0.5529694E-04 Eh
   gradient norm :     0.0023593 Eh/α   predicted    -0.4201971E-04 ( -24.01%)
   displ. norm   :     0.0581895 α      lambda       -0.2666514E-04
   maximum displ.:     0.0342684 α      in ANC's #7, #2, #6, ...

........................................................................
.............................. CYCLE    8 ..............................
........................................................................

 iter      E             dE          RMSdq      gap      omega  full diag
   1    -43.6926109 -0.436926E+02  0.198E-02   10.47       0.0  T
   2    -43.6926110 -0.588041E-07  0.120E-02   10.47       1.7  T
   3    -43.6926110 -0.245035E-07  0.883E-04   10.47      23.1  T
   4    -43.6926110 -0.308265E-08  0.491E-04   10.47      41.6  T
     SCC iter.                  ...        0 min,  0.002 sec
     gradient                   ...        0 min,  0.006 sec
 * total energy  :   -43.3887641 Eh     change       -0.1821504E-04 Eh
   gradient norm :     0.0014776 Eh/α   predicted    -0.1338492E-04 ( -26.52%)
   displ. norm   :     0.0673165 α      lambda       -0.1239042E-04
   maximum displ.:     0.0374980 α      in ANC's #7, #2, #3, ...

........................................................................
.............................. CYCLE    9 ..............................
........................................................................

 iter      E             dE          RMSdq      gap      omega  full diag
   1    -43.6929430 -0.436929E+02  0.227E-02   10.46       0.0  T
   2    -43.6929431 -0.887694E-07  0.138E-02   10.46       1.5  T
   3    -43.6929431 -0.306253E-07  0.110E-03   10.46      18.6  T
   4    -43.6929431 -0.799872E-08  0.582E-04   10.46      35.1  T
   5    -43.6929431 -0.625782E-09  0.196E-04   10.46     104.2  T
     SCC iter.                  ...        0 min,  0.002 sec
     gradient                   ...        0 min,  0.007 sec
 * total energy  :   -43.3887752 Eh     change       -0.1107336E-04 Eh
   gradient norm :     0.0013692 Eh/α   predicted    -0.6212630E-05 ( -43.90%)
   displ. norm   :     0.0370829 α      lambda       -0.6600242E-05
   maximum displ.:     0.0278589 α      in ANC's #4, #2, #1, ...

........................................................................
.............................. CYCLE   10 ..............................
........................................................................

 iter      E             dE          RMSdq      gap      omega  full diag
   1    -43.6929863 -0.436930E+02  0.130E-02   10.46       0.0  T
   2    -43.6929863 -0.163467E-07  0.782E-03   10.46       2.6  T
   3    -43.6929863 -0.615243E-08  0.440E-04   10.46      46.4  T
   4    -43.6929864 -0.102179E-08  0.242E-04   10.46      84.5  T
     SCC iter.                  ...        0 min,  0.002 sec
     gradient                   ...        0 min,  0.006 sec
 * total energy  :   -43.3887817 Eh     change       -0.6503903E-05 Eh
   gradient norm :     0.0011767 Eh/α   predicted    -0.3302656E-05 ( -49.22%)
   displ. norm   :     0.0662378 α      lambda       -0.8401438E-05
   maximum displ.:     0.0342649 α      in ANC's #2, #4, #7, ...

........................................................................
.............................. CYCLE   11 ..............................
........................................................................

 iter      E             dE          RMSdq      gap      omega  full diag
   1    -43.6920722 -0.436921E+02  0.246E-02   10.47       0.0  T
   2    -43.6920723 -0.848165E-07  0.149E-02   10.47       1.4  T
   3    -43.6920724 -0.486292E-07  0.103E-03   10.47      19.9  T
   4    -43.6920724 -0.285711E-08  0.583E-04   10.47      35.0  T
   5    -43.6920724 -0.929433E-09  0.201E-04   10.47     101.6  T
     SCC iter.                  ...        0 min,  0.003 sec
     gradient                   ...        0 min,  0.007 sec
 * total energy  :   -43.3887805 Eh     change        0.1179295E-05 Eh
   gradient norm :     0.0027218 Eh/α   predicted    -0.4237741E-05 (-459.35%)
   displ. norm   :     0.0234860 α      lambda       -0.7939517E-05
   maximum displ.:     0.0142178 α      in ANC's #7, #2, #6, ...

........................................................................
.............................. CYCLE   12 ..............................
........................................................................

 iter      E             dE          RMSdq      gap      omega  full diag
   1    -43.6924629 -0.436925E+02  0.826E-03   10.47       0.0  T
   2    -43.6924629 -0.141461E-07  0.501E-03   10.47       4.1  T
   3    -43.6924629 -0.723162E-08  0.442E-04   10.47      46.2  T
   4    -43.6924629 -0.928082E-09  0.267E-04   10.47      76.5  T
     SCC iter.                  ...        0 min,  0.002 sec
     gradient                   ...        0 min,  0.007 sec
 * total energy  :   -43.3887857 Eh     change       -0.5184563E-05 Eh
   gradient norm :     0.0009444 Eh/α   predicted    -0.3976283E-05 ( -23.31%)
   displ. norm   :     0.0146874 α      lambda       -0.1522614E-05
   maximum displ.:     0.0088486 α      in ANC's #7, #3, #2, ...

........................................................................
.............................. CYCLE   13 ..............................
........................................................................

 iter      E             dE          RMSdq      gap      omega  full diag
   1    -43.6927625 -0.436928E+02  0.512E-03   10.47       0.0  T
   2    -43.6927625 -0.786414E-08  0.309E-03   10.47       6.6  T
   3    -43.6927625 -0.235654E-08  0.356E-04   10.47      57.3  T
   4    -43.6927626 -0.110539E-08  0.180E-04   10.47     113.5  T
     SCC iter.                  ...        0 min,  0.002 sec
     gradient                   ...        0 min,  0.006 sec
 * total energy  :   -43.3887867 Eh     change       -0.9609048E-06 Eh
   gradient norm :     0.0004052 Eh/α   predicted    -0.7685064E-06 ( -20.02%)
   displ. norm   :     0.0046395 α      lambda       -0.2546878E-06
   maximum displ.:     0.0020567 α      in ANC's #9, #1, #10, ...

........................................................................
.............................. CYCLE   14 ..............................
........................................................................

 iter      E             dE          RMSdq      gap      omega  full diag
   1    -43.6927022 -0.436927E+02  0.168E-03   10.47       0.0  T
   2    -43.6927022 -0.586738E-09  0.102E-03   10.47      20.0  T
   3    -43.6927022 -0.200245E-09  0.885E-05   10.47     230.6  T
   4    -43.6927022 -0.630038E-10  0.461E-05   10.47     442.8  T
     SCC iter.                  ...        0 min,  0.002 sec
     gradient                   ...        0 min,  0.006 sec
 * total energy  :   -43.3887870 Eh     change       -0.3108462E-06 Eh
   gradient norm :     0.0001696 Eh/α   predicted    -0.1288324E-06 ( -58.55%)
   displ. norm   :     0.0116905 α      lambda       -0.4454254E-06
   maximum displ.:     0.0055898 α      in ANC's #9, #1, #3, ...

........................................................................
.............................. CYCLE   15 ..............................
........................................................................

 iter      E             dE          RMSdq      gap      omega  full diag
   1    -43.6926548 -0.436927E+02  0.423E-03   10.47       0.0  T
   2    -43.6926548 -0.384287E-08  0.259E-03   10.47       7.9  T
   3    -43.6926548 -0.146221E-08  0.214E-04   10.47      95.3  T
   4    -43.6926548 -0.304773E-09  0.113E-04   10.47     180.4  T
     SCC iter.                  ...        0 min,  0.002 sec
     gradient                   ...        0 min,  0.006 sec
 * total energy  :   -43.3887874 Eh     change       -0.4138988E-06 Eh
   gradient norm :     0.0002498 Eh/α   predicted    -0.2241633E-06 ( -45.84%)
   displ. norm   :     0.0063537 α      lambda       -0.1393638E-06
   maximum displ.:     0.0032725 α      in ANC's #1, #9, #10, ...

........................................................................
.............................. CYCLE   16 ..............................
........................................................................

 iter      E             dE          RMSdq      gap      omega  full diag
   1    -43.6926358 -0.436926E+02  0.233E-03   10.47       0.0  T
   2    -43.6926358 -0.109127E-08  0.143E-03   10.47      14.3  T
   3    -43.6926358 -0.307153E-09  0.112E-04   10.47     182.4  T
   4    -43.6926358 -0.106304E-09  0.518E-05   10.47     394.1  T
     SCC iter.                  ...        0 min,  0.002 sec
     gradient                   ...        0 min,  0.006 sec
 * total energy  :   -43.3887876 Eh     change       -0.1471577E-06 Eh
   gradient norm :     0.0001638 Eh/α   predicted    -0.7036726E-07 ( -52.18%)
   displ. norm   :     0.0070123 α      lambda       -0.1238544E-06
   maximum displ.:     0.0030740 α      in ANC's #1, #9, #14, ...

........................................................................
.............................. CYCLE   17 ..............................
........................................................................

 iter      E             dE          RMSdq      gap      omega  full diag
   1    -43.6926640 -0.436927E+02  0.264E-03   10.47       0.0  T
   2    -43.6926640 -0.150155E-08  0.163E-03   10.47      12.5  T
   3    -43.6926640 -0.452097E-09  0.133E-04   10.47     153.3  T
   4    -43.6926640 -0.156248E-09  0.609E-05   10.47     335.4  T
     SCC iter.                  ...        0 min,  0.002 sec
     gradient                   ...        0 min,  0.006 sec
 * total energy  :   -43.3887877 Eh     change       -0.1181530E-06 Eh
   gradient norm :     0.0000770 Eh/α   predicted    -0.6481619E-07 ( -45.14%)
   displ. norm   :     0.0027802 α      lambda       -0.3201470E-07
   maximum displ.:     0.0014287 α      in ANC's #3, #5, #2, ...

........................................................................
.............................. CYCLE   18 ..............................
........................................................................

 iter      E             dE          RMSdq      gap      omega  full diag
   1    -43.6926726 -0.436927E+02  0.104E-03   10.47       0.0  T
   2    -43.6926726 -0.203229E-09  0.630E-04   10.47      32.4  T
   3    -43.6926726 -0.369909E-10  0.634E-05   10.47     322.0  T
     SCC iter.                  ...        0 min,  0.002 sec
     gradient                   ...        0 min,  0.006 sec
 * total energy  :   -43.3887877 Eh     change       -0.3611580E-07 Eh
   gradient norm :     0.0000528 Eh/α   predicted    -0.1884235E-07 ( -47.83%)
   displ. norm   :     0.0027802 α      lambda        0.0000000E+00
   maximum displ.:     0.0014287 α      in ANC's #3, #5, #2, ...

   *** GEOMETRY OPTIMIZATION CONVERGED AFTER 18 ITERATIONS ***

------------------------------------------------------------------------
 total energy gain   :        -0.0040973 Eh       -2.5711 kcal/mol
 total RMSD          :         0.1583080 a0        0.0838 Å
 total power (kW/mol):        -0.5976326 (step)  -44.8725 (real)
------------------------------------------------------------------------

 ANCopt (total)                0 d,  0 h,  0 min,  0.240 sec
 optimizer setup                ...        0 min,  0.000 sec (  0.106%)
 model hessian                  ...        0 min,  0.011 sec (  4.748%)
 ANC generation                 ...        0 min,  0.000 sec (  0.169%)
 coordinate transformation      ...        0 min,  0.000 sec (  0.040%)
 single point calculation       ...        0 min,  0.220 sec ( 91.803%)
 optimization log               ...        0 min,  0.006 sec (  2.539%)
 hessian update                 ...        0 min,  0.000 sec (  0.044%)
 rational function              ...        0 min,  0.001 sec (  0.302%)

================
 final structure:
================
$coord
       -4.84222848319477       -1.27243240113789       -0.59656136784519      C
       -2.23080726994928       -0.55369817336880        0.42515981083958      C
       -2.31296112562522       -0.45806762546724        2.50050823604432      H
       -1.36523045292036        2.02009609494693       -0.59262209123496      C
       -1.40883291681162        1.94813273250495       -2.67711586858367      H
        1.35552980338448        2.52832751792645        0.27946114946116      C
        1.36492763738616        2.77185487689897        2.33681745990093      H
        3.09256370979664        0.30582172062869       -0.40237126508368      C
        3.23085508204122        0.15500614257416       -2.47868008545490      H
        1.94620510410609       -2.17465239809314        0.61349445025276      C
        1.93401751836979       -2.09536363667345        2.69371495731127      H
       -0.53032339297128       -2.47660202691138       -0.33312820231627      O
        3.31697490339894       -4.28855447451543       -0.02042270697050      O
        5.50461611392398        0.60317757904350        0.65663342194633      O
        2.28560003855050        4.82189384799037       -0.69659902707795      O
       -3.03111388039278        3.88406844153153        0.28915826366860      O
       -5.80724411767258       -3.45332124744087        0.55793594756504      O
       -4.70062375517824       -1.52985433543613       -2.64926539347907      H
       -6.15861185504312        0.25814205251961       -0.18066349686476      H
        3.26005511007746       -4.55289314737047       -1.83494176772008      H
        6.03118391376433        2.34831185699243        0.44326523809111      H
        2.31629917849930        4.75685695386711       -2.52778575465150      H
       -2.22992786613349        5.52563753121745        0.11386493644688      H
       -4.60616426564827       -4.81344337231017        0.31739435695847      H
$end
 
 Bond Distances (Angstroems)
 ---------------------------
C1-C2=1.5319         C1-O17=1.4021        C1-H18=1.0973        C1-H19=1.0907        C2-C1=1.5319         C2-H3=1.1003         
C2-C4=1.5346         C2-O12=1.4164        H3-C2=1.1003         C4-C2=1.5346         C4-H5=1.1040         C4-C6=1.5357         
C4-O16=1.4028        H5-C4=1.1040         C6-C4=1.5357         C6-H7=1.0963         C6-C8=1.5357         C6-O15=1.4079        
H7-C6=1.0963         C8-C6=1.5357         C8-H9=1.1041         C8-C10=1.5427        C8-O14=1.4029        H9-C8=1.1041         
C10-C8=1.5427        C10-H11=1.1016       C10-O12=1.4121       C10-O13=1.3748       H11-C10=1.1016       O12-C2=1.4164        
O12-C10=1.4121       O13-C10=1.3748       O13-H20=0.9708       O14-C8=1.4029        O14-H21=0.9712       O15-C6=1.4079        
O15-H22=0.9698       O16-C4=1.4028        O16-H23=0.9711       O17-C1=1.4021        O17-H24=0.9686       H18-C1=1.0973        
H19-C1=1.0907        H20-O13=0.9708       H21-O14=0.9712       H22-O15=0.9698       H23-O16=0.9711       H24-O17=0.9686       
 C  H  Rav=1.0992 sigma=0.0044  Rmin=1.0907  Rmax=1.1041     7
 C  C  Rav=1.5361 sigma=0.0036  Rmin=1.5319  Rmax=1.5427     5
 O  H  Rav=0.9703 sigma=0.0010  Rmin=0.9686  Rmax=0.9712     5
 O  C  Rav=1.4027 sigma=0.0124  Rmin=1.3748  Rmax=1.4164     7
 
 selected bond angles (degree)
 --------------------
O17-C1-C2=112.28               H18-C1-C2=108.58               H18-C1-O17=110.73              H19-C1-C2=108.70               
H19-C1-O17=106.90              H19-C1-H18=109.61              H3-C2-C1=109.15                C4-C2-C1=111.45                
C4-C2-H3=108.74                O12-C2-C1=107.14               O12-C2-H3=109.93               O12-C2-C4=110.40               
H5-C4-C2=108.29                C6-C4-C2=109.26                C6-C4-H5=109.02                O16-C4-C2=108.65               
O16-C4-H5=110.09               O16-C4-C6=111.47               H7-C6-C4=108.86                C8-C6-C4=110.88                
C8-C6-H7=108.70                O15-C6-C4=111.62               O15-C6-H7=105.15               O15-C6-C8=111.39               
H9-C8-C6=109.20                C10-C8-C6=109.54               C10-C8-H9=108.14               O14-C8-C6=111.40               
O14-C8-H9=110.20               O14-C8-C10=108.30              H11-C10-C8=108.55              O12-C10-C8=109.73              
O12-C10-H11=110.69             O13-C10-C8=113.57              O13-C10-H11=106.14             O13-C10-O12=108.12             
 
 selected dihedral angles (degree)
 ---------------------------------
H3-C2-C1-O17=307.81           H3-C2-C1-H18=185.03           H3-C2-C1-H19= 65.86           C4-C2-C1-O17=187.68           
C4-C2-C1-H18= 64.91           C4-C2-C1-H19=305.73           O12-C2-C1-O17= 66.81          O12-C2-C1-H18=304.03          
O12-C2-C1-H19=184.86          H5-C4-C2-C1=304.06            H5-C4-C2-H3=183.69            H5-C4-C2-O12= 63.00           
C6-C4-C2-C1=185.43            C6-C4-C2-H3= 65.06            C6-C4-C2-O12=304.38           O16-C4-C2-C1= 63.62           
O16-C4-C2-H3=303.25           O16-C4-C2-O12=182.57          H7-C6-C4-C2=293.03            H7-C6-C4-H5=174.86            
H7-C6-C4-O16= 53.12           C8-C6-C4-C2= 52.56            C8-C6-C4-H5=294.40            C8-C6-C4-O16=172.66           
O15-C6-C4-C2=177.40           O15-C6-C4-H5= 59.23           O15-C6-C4-O16=297.49          H9-C8-C6-C4= 65.44            
H9-C8-C6-H7=185.07            H9-C8-C6-O15=300.47           C10-C8-C6-C4=307.18           C10-C8-C6-H7= 66.81           
C10-C8-C6-O15=182.22          O14-C8-C6-C4=187.39           O14-C8-C6-H7=307.02           O14-C8-C6-O15= 62.42          
H11-C10-C8-C6=294.73          H11-C10-C8-H9=175.82          H11-C10-C8-O14= 56.41         O12-C10-C8-C6= 55.82          
O12-C10-C8-H9=296.91          O12-C10-C8-O14=177.49         O13-C10-C8-C6=176.95          O13-C10-C8-H9= 58.04          
O13-C10-C8-O14=298.62         
           -------------------------------------------------
          |                Final Singlepoint                |
           -------------------------------------------------

          ...................................................
          :                      SETUP                      :
          :.................................................:
          :  # basis functions                  60          :
          :  # atomic orbitals                  60          :
          :  # shells                           36          :
          :  # electrons                        72          :
          :  max. iterations                   250          :
          :  Hamiltonian                  GFN2-xTB          :
          :  restarted?                      false          :
          :  GBSA solvation                   true          :
          :  PC potential                    false          :
          :  electronic temp.          300.0000000     K    :
          :  accuracy                    1.0000000          :
          :  -> integral cutoff          0.2500000E+02      :
          :  -> integral neglect         0.1000000E-07      :
          :  -> SCF convergence          0.1000000E-05 Eh   :
          :  -> wf. convergence          0.1000000E-03 e    :
          :  Broyden damping             0.4000000          :
          :  net charge                          0          :
          :  unpaired electrons                  0          :
          ...................................................

 iter      E             dE          RMSdq      gap      omega  full diag
   1    -43.6926726 -0.436927E+02  0.260E-05   10.47       0.0  T
   2    -43.6926726 -0.653699E-12  0.160E-05   10.47    1273.0  T
   3    -43.6926726 -0.305533E-12  0.386E-06   10.47    5288.0  T

   *** convergence criteria satisfied after 3 iterations ***

         #    Occupation            Energy/Eh            Energy/eV
      -------------------------------------------------------------
         1        2.0000           -0.7329296             -19.9440
       ...           ...                  ...                  ...
        30        2.0000           -0.4687818             -12.7562
        31        2.0000           -0.4510748             -12.2744
        32        2.0000           -0.4413658             -12.0102
        33        2.0000           -0.4366103             -11.8808
        34        2.0000           -0.4227873             -11.5046
        35        2.0000           -0.4171108             -11.3502
        36        2.0000           -0.4130565             -11.2398 (HOMO)
        37                         -0.0283967              -0.7727 (LUMO)
        38                         -0.0016813              -0.0457
        39                          0.0067951               0.1849
        40                          0.0286305               0.7791
        41                          0.0465329               1.2662
       ...                                ...                  ...
        60                          0.2830377               7.7018
      -------------------------------------------------------------
                  HL-Gap            0.3846598 Eh           10.4671 eV
             Fermi-level           -0.2207266 Eh           -6.0063 eV

 SCC (total)                   0 d,  0 h,  0 min,  0.012 sec
 SCC setup                      ...        0 min,  0.001 sec ( 10.160%)
 Dispersion                     ...        0 min,  0.000 sec (  0.586%)
 classical contributions        ...        0 min,  0.000 sec (  0.178%)
 integral evaluation            ...        0 min,  0.002 sec ( 17.897%)
 iterations                     ...        0 min,  0.002 sec ( 15.618%)
 molecular gradient             ...        0 min,  0.006 sec ( 54.627%)
 printout                       ...        0 min,  0.000 sec (  0.817%)

         :::::::::::::::::::::::::::::::::::::::::::::::::::::
         ::                     SUMMARY                     ::
         :::::::::::::::::::::::::::::::::::::::::::::::::::::
         :: total energy             -43.388787704352 Eh    ::
         :: total w/o Gsasa/hb       -43.369203984584 Eh    ::
         :: gradient norm              0.000052972527 Eh/a0 ::
         :: HOMO-LUMO gap             10.467125902726 eV    ::
         ::.................................................::
         :: SCC energy               -43.692524737248 Eh    ::
         :: -> isotropic ES            0.170895383490 Eh    ::
         :: -> anisotropic ES         -0.005531885128 Eh    ::
         :: -> anisotropic XC         -0.009974799578 Eh    ::
         :: -> dispersion             -0.018747812300 Eh    ::
         :: -> Gsolv                  -0.039351356466 Eh    ::
         ::    -> Gelec               -0.019767636697 Eh    ::
         ::    -> Gsasa                0.005482867695 Eh    ::
         ::    -> Ghb                 -0.026147347161 Eh    ::
         ::    -> Gshift               0.001080759698 Eh    ::
         :: repulsion energy           0.303737032896 Eh    ::
         :: add. restraining           0.000000000000 Eh    ::
         :: total charge               0.000000000000 e     ::
         :::::::::::::::::::::::::::::::::::::::::::::::::::::

           ------------------------------------------------- 
          |                Numerical Hessian                |
           ------------------------------------------------- 
step length          :   0.00500
SCC accuracy         :   0.30000
Hessian scale factor :   1.00000
frozen atoms in %    :   0.00000    0
RMS gradient         :   0.00005
estimated CPU  time      0.03 min
estimated wall time      0.03 min

writing file <hessian>.

 projected vibrational frequencies (cm⁻¹)
eigval :       -0.00    -0.00    -0.00    -0.00     0.00     0.00
eigval :       56.09    79.97    93.81   137.29   173.55   207.54
eigval :      224.00   254.03   285.74   296.46   305.90   332.63
eigval :      343.02   370.25   389.04   394.44   405.65   436.72
eigval :      479.78   547.33   581.79   602.11   622.88   887.89
eigval :      971.56   985.84  1029.44  1038.89  1040.74  1058.26
eigval :     1078.61  1087.92  1093.70  1105.55  1126.55  1132.89
eigval :     1147.77  1158.94  1177.20  1203.43  1214.81  1219.02
eigval :     1245.96  1259.14  1282.81  1294.81  1302.50  1310.46
eigval :     1315.32  1329.28  1337.94  1341.24  1345.82  1446.67
eigval :     2823.56  2827.95  2874.18  2875.04  2899.90  2952.85
eigval :     3003.29  3424.56  3428.46  3437.98  3451.11  3477.25
           -------------------------------------------------
          |                Property Printout                |
           -------------------------------------------------

    * Orbital Energies and Occupations

         #    Occupation            Energy/Eh            Energy/eV
      -------------------------------------------------------------
         1        2.0000           -0.7329296             -19.9440
       ...           ...                  ...                  ...
        24        2.0000           -0.5164303             -14.0528
        25        2.0000           -0.5070027             -13.7962
        26        2.0000           -0.4991412             -13.5823
        27        2.0000           -0.4912572             -13.3678
        28        2.0000           -0.4885457             -13.2940
        29        2.0000           -0.4796436             -13.0518
        30        2.0000           -0.4687818             -12.7562
        31        2.0000           -0.4510748             -12.2744
        32        2.0000           -0.4413658             -12.0102
        33        2.0000           -0.4366103             -11.8808
        34        2.0000           -0.4227873             -11.5046
        35        2.0000           -0.4171108             -11.3502
        36        2.0000           -0.4130565             -11.2398 (HOMO)
        37                         -0.0283967              -0.7727 (LUMO)
        38                         -0.0016813              -0.0457
        39                          0.0067952               0.1849
        40                          0.0286305               0.7791
        41                          0.0465329               1.2662
        42                          0.0675259               1.8375
        43                          0.0726152               1.9760
        44                          0.0937061               2.5499
        45                          0.1047494               2.8504
        46                          0.1107705               3.0142
        47                          0.1216849               3.3112
       ...                                ...                  ...
        60                          0.2830377               7.7018
      -------------------------------------------------------------
                  HL-Gap            0.3846598 Eh           10.4671 eV
             Fermi-level           -0.2207266 Eh           -6.0063 eV

     #   Z          covCN         q      C6AA      α(0)
     1   6 C        3.676     0.070    19.631     6.348
     2   6 C        3.749     0.094    19.084     6.230
     3   1 H        0.923     0.040     2.447     2.446
     4   6 C        3.727     0.090    19.178     6.253
     5   1 H        0.923     0.032     2.565     2.505
     6   6 C        3.730     0.085    19.260     6.265
     7   1 H        0.924     0.059     2.216     2.328
     8   6 C        3.724     0.083    19.297     6.273
     9   1 H        0.923     0.031     2.567     2.506
    10   6 C        3.626     0.244    17.196     5.974
    11   1 H        0.923     0.033     2.538     2.491
    12   8 O        1.701    -0.365    20.177     6.065
    13   8 O        1.657    -0.480    22.464     6.398
    14   8 O        1.656    -0.504    22.979     6.471
    15   8 O        1.655    -0.495    22.775     6.442
    16   8 O        1.656    -0.503    22.947     6.467
    17   8 O        1.655    -0.497    22.829     6.450
    18   1 H        0.924     0.047     2.363     2.404
    19   1 H        0.924     0.077     2.015     2.220
    20   1 H        0.804     0.387     0.510     1.121
    21   1 H        0.804     0.375     0.534     1.148
    22   1 H        0.804     0.360     0.566     1.182
    23   1 H        0.804     0.376     0.532     1.146
    24   1 H        0.804     0.363     0.560     1.175

 Mol. C6AA /au·bohr⁶  :       4730.151504
 Mol. C8AA /au·bohr⁸  :     100796.796556
 Mol. α(0) /au        :         98.307788


Wiberg/Mayer (AO) data.
largest (>0.10) Wiberg bond orders for each atom

 ---------------------------------------------------------------------------
     #   Z sym  total        # sym  WBO       # sym  WBO       # sym  WBO
 ---------------------------------------------------------------------------
     1   6 C    3.956 --    17 O    1.011     2 C    0.978    19 H    0.967
                            18 H    0.966
     2   6 C    3.940 --     1 C    0.978     4 C    0.967    12 O    0.960
                             3 H    0.957
     3   1 H    0.998 --     2 C    0.957
     4   6 C    3.962 --    16 O    1.003     2 C    0.967     6 C    0.965
                             5 H    0.954
     5   1 H    0.999 --     4 C    0.954
     6   6 C    3.958 --    15 O    0.998     8 C    0.965     4 C    0.965
                             7 H    0.958
     7   1 H    0.997 --     6 C    0.958
     8   6 C    3.961 --    14 O    1.003     6 C    0.965     9 H    0.953
                            10 C    0.949
     9   1 H    0.999 --     8 C    0.953
    10   6 C    3.931 --    13 O    1.031    12 O    0.951    11 H    0.949
                             8 C    0.949
    11   1 H    0.999 --    10 C    0.949
    12   8 O    2.057 --     2 C    0.960    10 C    0.951
    13   8 O    1.957 --    10 C    1.031    20 H    0.832
    14   8 O    1.916 --     8 C    1.003    21 H    0.840
    15   8 O    1.941 --     6 C    0.998    22 H    0.853
    16   8 O    1.917 --     4 C    1.003    23 H    0.839
    17   8 O    1.924 --     1 C    1.011    24 H    0.854
    18   1 H    0.998 --     1 C    0.966
    19   1 H    0.994 --     1 C    0.967
    20   1 H    0.850 --    13 O    0.832
    21   1 H    0.860 --    14 O    0.840
    22   1 H    0.871 --    15 O    0.853
    23   1 H    0.859 --    16 O    0.839
    24   1 H    0.869 --    17 O    0.854
 ---------------------------------------------------------------------------

Topologies differ in total number of bonds
Writing topology from bond orders to xtbtopo.mol

molecular dipole:
                 x           y           z       tot (Debye)
 q only:        0.549       1.041      -1.459
   full:        0.760       1.280      -1.802       5.941
molecular quadrupole (traceless):
                xx          xy          yy          xz          yz          zz
 q only:      -11.297       3.028       5.734      -2.987       0.434       5.564
  q+dip:      -17.686       4.273       4.387      -3.697       0.577      13.299
   full:      -16.939       4.147       5.593      -3.747       0.413      11.345

           -------------------------------------------------
          |                Geometry Summary                 |
           -------------------------------------------------

      molecular mass/u    :      180.1561339
   center of mass at/Å    :       -0.0001183       0.0001481      -0.0000042
  moments of inertia/u·Å² :        0.4314407E+03   0.6478021E+03   0.1030381E+04
rotational constants/cm⁻¹ :        0.3907288E-01   0.2602281E-01   0.1636057E-01

 * 23 selected distances

     #   Z          #   Z                                           value/Å
     1   6 C        2   6 C                                       1.5318757
     2   6 C        3   1 H                                       1.1002517
     2   6 C        4   6 C                                       1.5345703
     4   6 C        5   1 H                                       1.1039650
     4   6 C        6   6 C                                       1.5356506
     6   6 C        7   1 H                                       1.0963180
     6   6 C        8   6 C                                       1.5356825 (max)
     8   6 C        9   1 H                                       1.1040581
    10   6 C       11   1 H                                       1.1016236
     2   6 C       12   8 O                                       1.4163976
    10   6 C       12   8 O                                       1.4120668
    10   6 C       13   8 O                                       1.3747861
     8   6 C       14   8 O                                       1.4028596
     6   6 C       15   8 O                                       1.4078672
     4   6 C       16   8 O                                       1.4027787
     1   6 C       17   8 O                                       1.4021096
     1   6 C       18   1 H                                       1.0973141
     1   6 C       19   1 H                                       1.0907336
    13   8 O       20   1 H                                       0.9708051
    14   8 O       21   1 H                                       0.9711943
    15   8 O       22   1 H                                       0.9697694
    16   8 O       23   1 H                                       0.9710620
    17   8 O       24   1 H                                       0.9686091 (min)

 * 4 distinct bonds (by element types)

   Z      Z             #   av. dist./Å        max./Å        min./Å
   1 H    6 C           7     1.0991806     1.1040581     1.0907336
   6 C    6 C           4     1.5344448     1.5356825     1.5318757
   1 H    8 O           5     0.9702880     0.9711943     0.9686091
   6 C    8 O           7     1.4026951     1.4163976     1.3747861

           -------------------------------------------------
          |               Frequency Printout                |
           -------------------------------------------------
 projected vibrational frequencies (cm⁻¹)
eigval :       -0.00    -0.00    -0.00    -0.00     0.00     0.00
eigval :       56.09    79.97    93.81   137.29   173.55   207.54
eigval :      224.00   254.03   285.74   296.46   305.90   332.63
eigval :      343.02   370.25   389.04   394.44   405.65   436.72
eigval :      479.78   547.33   581.79   602.11   622.88   887.89
eigval :      971.56   985.84  1029.44  1038.89  1040.74  1058.26
eigval :     1078.61  1087.92  1093.70  1105.55  1126.55  1132.89
eigval :     1147.77  1158.94  1177.20  1203.43  1214.81  1219.02
eigval :     1245.96  1259.14  1282.81  1294.81  1302.50  1310.46
eigval :     1315.32  1329.28  1337.94  1341.24  1345.82  1446.67
eigval :     2823.56  2827.95  2874.18  2875.04  2899.90  2952.85
eigval :     3003.29  3424.56  3428.46  3437.98  3451.11  3477.25
 reduced masses (amu)
   1: 13.67   2: 13.64   3: 13.43   4: 13.71   5: 13.50   6: 13.69   7: 14.32   8: 12.93
   9: 14.31  10: 13.70  11:  9.30  12: 11.69  13: 11.76  14:  7.12  15: 11.39  16:  7.90
  17:  7.53  18:  6.27  19:  8.85  20: 10.05  21:  4.40  22:  5.21  23: 11.97  24: 10.97
  25: 11.35  26: 11.09  27: 11.79  28: 11.57  29: 10.81  30:  6.88  31:  9.60  32: 10.57
  33:  7.95  34: 11.93  35: 11.06  36: 10.41  37:  8.86  38: 11.19  39: 10.86  40:  8.79
  41:  6.99  42:  9.62  43:  9.17  44:  5.68  45:  4.81  46:  4.00  47:  3.46  48:  4.96
  49:  3.97  50:  3.14  51:  3.75  52:  3.03  53:  3.51  54:  3.57  55:  4.36  56:  3.58
  57:  3.86  58:  4.49  59:  5.34  60:  1.78  61:  1.70  62:  1.70  63:  1.71  64:  1.72
  65:  1.74  66:  1.75  67:  1.72  68:  1.88  69:  1.88  70:  1.87  71:  1.87  72:  1.88
 IR intensities (km·mol⁻¹)
   1:  2.17   2:  0.08   3:  0.81   4:  0.44   5:  0.21   6:  1.40   7:  0.78   8:  3.95
   9:  7.39  10:  2.81  11:  4.58  12: 38.81  13: 18.31  14: 83.53  15: 11.35  16: 48.22
  17: 48.56  18:255.14  19:132.12  20: 14.28  21:356.48  22:174.52  23: 43.80  24: 54.84
  25: 17.72  26: 21.49  27:  4.83  28:  4.16  29: 13.83  30: 56.20  31: 49.40  32: 98.22
  33:117.93  34:133.87  35: 34.62  36:253.36  37:152.35  38:152.81  39:227.93  40:  5.74
  41: 60.54  42:178.09  43: 18.90  44: 47.92  45: 87.12  46: 57.62  47: 73.77  48: 29.40
  49: 14.79  50:  5.53  51:129.52  52: 58.69  53: 89.46  54: 34.43  55: 35.16  56: 21.21
  57: 67.15  58: 11.91  59: 23.71  60:  1.39  61: 17.06  62:164.62  63:157.32  64:  6.17
  65:112.93  66: 57.77  67: 16.45  68:147.68  69: 86.97  70:114.73  71: 70.45  72: 92.14
 Raman intensities (Ä⁴*amu⁻¹)
   1:  0.00   2:  0.00   3:  0.00   4:  0.00   5:  0.00   6:  0.00   7:  0.00   8:  0.00
   9:  0.00  10:  0.00  11:  0.00  12:  0.00  13:  0.00  14:  0.00  15:  0.00  16:  0.00
  17:  0.00  18:  0.00  19:  0.00  20:  0.00  21:  0.00  22:  0.00  23:  0.00  24:  0.00
  25:  0.00  26:  0.00  27:  0.00  28:  0.00  29:  0.00  30:  0.00  31:  0.00  32:  0.00
  33:  0.00  34:  0.00  35:  0.00  36:  0.00  37:  0.00  38:  0.00  39:  0.00  40:  0.00
  41:  0.00  42:  0.00  43:  0.00  44:  0.00  45:  0.00  46:  0.00  47:  0.00  48:  0.00
  49:  0.00  50:  0.00  51:  0.00  52:  0.00  53:  0.00  54:  0.00  55:  0.00  56:  0.00
  57:  0.00  58:  0.00  59:  0.00  60:  0.00  61:  0.00  62:  0.00  63:  0.00  64:  0.00
  65:  0.00  66:  0.00  67:  0.00  68:  0.00  69:  0.00  70:  0.00  71:  0.00  72:  0.00
 output can be read by thermo (or use thermo option).
 writing <g98.out> molden fake output.
 recommended (thermochemical) frequency scaling factor: 1.0
           -------------------------------------------------
          |             Thermodynamic Functions             |
           -------------------------------------------------

Molecule has no symmetry elements
It seems to be the C1 point group
c1  symmetry found (for desy threshold:  0.10E+00) used in thermo

          ...................................................
          :                      SETUP                      :
          :.................................................:
          :  # frequencies                          66      :
          :  # imaginary freq.                       0      :
          :  linear?                             false      :
          :  only rotor calc.                    false      :
          :  symmetry                               c1      :
          :  rotational number                       1      :
          :  scaling factor                  1.0000000      :
          :  rotor cutoff                    0.0000000 cm⁻¹ :
          :  imag. cutoff                 -100.0000000 cm⁻¹ :
          :.................................................:

    mode    ω/cm⁻¹     T·S(HO)/kcal·mol⁻¹    T·S(FR)/kcal·mol⁻¹   T·S(vib)
   ------------------------------------------------------------------------
       1     56.09    -1.36856 (100.00%)    -1.02237 (  0.00%)    -1.36856
       2     79.97    -1.16027 (100.00%)    -0.91733 (  0.00%)    -1.16027
       3     93.81    -1.06706 (100.00%)    -0.87006 (  0.00%)    -1.06706
       4    137.29    -0.84714 (100.00%)    -0.75728 (  0.00%)    -0.84714
       5    173.55    -0.71456 (100.00%)    -0.68785 (  0.00%)    -0.71456
       6    207.54    -0.61573 (100.00%)    -0.63487 (  0.00%)    -0.61573
       7    224.00    -0.57440 (100.00%)    -0.61227 (  0.00%)    -0.57440
       8    254.03    -0.50758 (100.00%)    -0.57500 (  0.00%)    -0.50758
       9    285.74    -0.44694 (100.00%)    -0.54016 (  0.00%)    -0.44694
      10    296.46    -0.42838 (100.00%)    -0.52925 (  0.00%)    -0.42838
   ------------------------------------------------------------------------

   temp. (K)  partition function   enthalpy   heat capacity  entropy
                                   cal/mol     cal/K/mol   cal/K/mol   J/K/mol
 298.15  VIB  0.558E+04             6460.939     43.494     38.814
         ROT  0.130E+07              888.752      2.981     30.952
         INT  0.723E+10             7349.691     46.475     69.766
         TR   0.234E+28             1481.254      4.968     41.454
         TOT                        8830.9451    51.4428   111.2200   465.3444

       T/K    H(0)-H(T)+PV         H(T)/Eh          T*S/Eh         G(T)/Eh
   ------------------------------------------------------------------------
    298.15    0.140730E-01    0.200124E+00    0.528442E-01    0.147280E+00
   ------------------------------------------------------------------------

         :::::::::::::::::::::::::::::::::::::::::::::::::::::
         ::                  THERMODYNAMIC                  ::
         :::::::::::::::::::::::::::::::::::::::::::::::::::::
         :: total free energy         -43.241507506511 Eh   ::
         ::.................................................::
         :: total energy              -43.388787704336 Eh   ::
         :: zero point energy           0.186051395898 Eh   ::
         :: G(RRHO) w/o ZPVE           -0.038771198073 Eh   ::
         :: G(RRHO) contrib.            0.147280197825 Eh   ::
         :::::::::::::::::::::::::::::::::::::::::::::::::::::

optimized geometry written to: xtbopt.coord


           -------------------------------------------------
          | TOTAL ENERGY              -43.388787704336 Eh   |
          | TOTAL ENTHALPY            -43.188663301648 Eh   |
          | TOTAL FREE ENERGY         -43.241507506511 Eh   |
          | GRADIENT NORM               0.000052952837 Eh/α |
          | HOMO-LUMO GAP              10.467126121991 eV   |
           -------------------------------------------------

------------------------------------------------------------------------
 * finished run on 2025/04/06 at 19:15:08.616     
------------------------------------------------------------------------
 total:
 * wall-time:     0 d,  0 h,  0 min,  2.162 sec
 *  cpu-time:     0 d,  0 h,  0 min,  2.080 sec
 * ratio c/w:     0.962 speedup
 SCF:
 * wall-time:     0 d,  0 h,  0 min,  0.023 sec
 *  cpu-time:     0 d,  0 h,  0 min,  0.018 sec
 * ratio c/w:     0.785 speedup
 ANC optimizer:
 * wall-time:     0 d,  0 h,  0 min,  0.262 sec
 *  cpu-time:     0 d,  0 h,  0 min,  0.248 sec
 * ratio c/w:     0.946 speedup
 analytical hessian:
 * wall-time:     0 d,  0 h,  0 min,  1.817 sec
 *  cpu-time:     0 d,  0 h,  0 min,  1.803 sec
 * ratio c/w:     0.992 speedup

