      -----------------------------------------------------------      
     |                   =====================                   |     
     |                           x T B                           |     
     |                   =====================                   |     
     |                         S. Grimme                         |     
     |          Mulliken Center for Theoretical Chemistry        |     
     |                    University of Bonn                     |     
      -----------------------------------------------------------      

   * xtb version 6.7.1 (edcfbbe) compiled by 'albert@albert-system' on 2024-07-22

   xtb is free software: you can redistribute it and/or modify it under
   the terms of the GNU Lesser General Public License as published by
   the Free Software Foundation, either version 3 of the License, or
   (at your option) any later version.
   
   xtb is distributed in the hope that it will be useful,
   but WITHOUT ANY WARRANTY; without even the implied warranty of
   MERCHANTABILITY or FITNESS FOR A PARTICULAR PURPOSE.  See the
   GNU Lesser General Public License for more details.
   
   Cite this work as:
   * C. Bannwarth, E. Caldeweyher, S. Ehlert, A. Hansen, P. Pracht,
     J. Seibert, S. Spicher, S. Grimme, WIREs Comput. Mol. Sci., 2020, 11,
     e01493. DOI: 10.1002/wcms.1493
   
   for GFN2-xTB:
   * C. Bannwarth, S. Ehlert and S. Grimme., J. Chem. Theory Comput., 2019,
     15, 1652-1671. DOI: 10.1021/acs.jctc.8b01176
   for GFN1-xTB:
   * S. Grimme, C. Bannwarth, P. Shushkov, J. Chem. Theory Comput., 2017,
     13, 1989-2009. DOI: 10.1021/acs.jctc.7b00118
   for GFN0-xTB:
   * P. Pracht, E. Caldeweyher, S. Ehlert, S. Grimme, ChemRxiv, 2019, preprint.
     DOI: 10.26434/chemrxiv.8326202.v1
   for GFN-FF:
   * S. Spicher and S. Grimme, Angew. Chem. Int. Ed., 2020, 59, 15665-15673.
     DOI: 10.1002/anie.202004239
   
   for ALPB and GBSA implicit solvation:
   * S. Ehlert, M. Stahn, S. Spicher, S. Grimme, J. Chem. Theory Comput.,
     2021, 17, 4250-4261. DOI: 10.1021/acs.jctc.1c00471
   
   for ddCOSMO and CPCM-X implicit solvation:
   * M. Stahn, S. Ehlert, S. Grimme, J. Phys. Chem. A,
     2023, XX, XXXX-XXXX. DOI: 10.1021/acs.jpca.3c04382
   
   for DFT-D4:
   * E. Caldeweyher, C. Bannwarth and S. Grimme, J. Chem. Phys., 2017,
     147, 034112. DOI: 10.1063/1.4993215
   * E. Caldeweyher, S. Ehlert, A. Hansen, H. Neugebauer, S. Spicher,
     C. Bannwarth and S. Grimme, J. Chem. Phys., 2019, 150, 154122.
     DOI: 10.1063/1.5090222
   * E. Caldeweyher, J.-M. Mewes, S. Ehlert and S. Grimme, Phys. Chem. Chem. Phys.
     2020, 22, 8499-8512. DOI: 10.1039/D0CP00502A
   
   for sTDA-xTB:
   * S. Grimme and C. Bannwarth, J. Chem. Phys., 2016, 145, 054103.
     DOI: 10.1063/1.4959605
   
   in the mass-spec context:
   * V. Asgeirsson, C. Bauer and S. Grimme, Chem. Sci., 2017, 8, 4879.
     DOI: 10.1039/c7sc00601b
   * J. Koopman and S. Grimme, ACS Omega 2019, 4, 12, 15120-15133.
     DOI: 10.1021/acsomega.9b02011
   
   for metadynamics refer to:
   * S. Grimme, J. Chem. Theory Comput., 2019, 155, 2847-2862
     DOI: 10.1021/acs.jctc.9b00143
   
   for SPH calculations refer to:
   * S. Spicher and S. Grimme, J. Chem. Theory Comput., 2021, 17, 1701-1714
     DOI: 10.1021/acs.jctc.0c01306
   
   for ONIOM refer to:
   * C. Plett, A. Katbashev, S. Ehlert, S. Grimme, M. Bursch,
     Phys. Chem. Chem. Phys., 2023, 25, 17860-17868. DOI: 10.1039/D3CP02178E
   
   for DIPRO refer to:
   * J. Kohn, N. Gildemeister, S. Grimme, D. Fazzi, A. Hansen,
     J. Chem. Phys., 2023, just accepted.
   
   for PTB refer to:
   * S. Grimme, M. Mueller, A. Hansen, J. Chem. Phys., 2023, 158, 124111.
     DOI: 10.1063/5.0137838
   
   with help from (in alphabetical order)
   P. Atkinson, C. Bannwarth, F. Bohle, G. Brandenburg, E. Caldeweyher
   M. Checinski, S. Dohm, S. Ehlert, S. Ehrlich, I. Gerasimov, C. Hölzer
   A. Katbashev, J. Kohn, J. Koopman, C. Lavigne, S. Lehtola, F. März, M. Müller,
   F. Musil, H. Neugebauer, J. Pisarek, C. Plett, P. Pracht, F. Pultar,
   J. Seibert, P. Shushkov, S. Spicher, M. Stahn, M. Steiner, T. Strunk,
   J. Stückrath, T. Rose, and J. Unsleber
   
 * started run on 2025/04/06 at 18:00:39.828     
   ID    Z sym.   atoms
    1    6 C      1, 2, 4, 6, 8, 10
    2    1 H      3, 5, 7, 9, 11, 18-24
    3    8 O      12-17

           -------------------------------------------------
          |                Calculation Setup                |
           -------------------------------------------------

          program call               : /srv/scratch/z5358697/.xtb/bin/xtb gas.coord --gfn2 --sp --chrg 0 --norestart --parallel 1
          hostname                   : k155
          coordinate file            : gas.coord
          omp threads                :                     1


           -------------------------------------------------
          |                 G F N 2 - x T B                 |
           -------------------------------------------------

        Reference                      10.1021/acs.jctc.8b01176
      * Hamiltonian:
        H0-scaling (s, p, d)           1.850000    2.230000    2.230000
        zeta-weighting                 0.500000
      * Dispersion:
        s8                             2.700000
        a1                             0.520000
        a2                             5.000000
        s9                             5.000000
      * Repulsion:
        kExp                           1.500000    1.000000
        rExp                           1.000000
      * Coulomb:
        alpha                          2.000000
        third order                    shell-resolved
        anisotropic                    true
        a3                             3.000000
        a5                             4.000000
        cn-shift                       1.200000
        cn-exp                         4.000000
        max-rad                        5.000000


          ...................................................
          :                      SETUP                      :
          :.................................................:
          :  # basis functions                  60          :
          :  # atomic orbitals                  60          :
          :  # shells                           36          :
          :  # electrons                        72          :
          :  max. iterations                   250          :
          :  Hamiltonian                  GFN2-xTB          :
          :  restarted?                      false          :
          :  GBSA solvation                  false          :
          :  PC potential                    false          :
          :  electronic temp.          300.0000000     K    :
          :  accuracy                    1.0000000          :
          :  -> integral cutoff          0.2500000E+02      :
          :  -> integral neglect         0.1000000E-07      :
          :  -> SCF convergence          0.1000000E-05 Eh   :
          :  -> wf. convergence          0.1000000E-03 e    :
          :  Broyden damping             0.4000000          :
          :  net charge                          0          :
          :  unpaired electrons                  0          :
          ...................................................

 iter      E             dE          RMSdq      gap      omega  full diag
   1    -43.6196943 -0.436197E+02  0.472E+00   10.37       0.0  T
   2    -43.6583234 -0.386291E-01  0.258E+00   10.19       1.0  T
   3    -43.6594323 -0.110890E-02  0.737E-01   10.32       1.0  T
   4    -43.6604305 -0.998269E-03  0.150E-01   10.30       1.0  T
   5    -43.6605127 -0.821374E-04  0.689E-02   10.32       1.0  T
   6    -43.6605219 -0.918347E-05  0.187E-02   10.32       1.1  T
   7    -43.6605227 -0.821330E-06  0.622E-03   10.32       3.3  T
   8    -43.6605230 -0.300172E-06  0.197E-03   10.32      10.4  T
   9    -43.6605230 -0.302329E-08  0.781E-04   10.32      26.1  T
  10    -43.6605230 -0.561272E-08  0.237E-04   10.32      86.3  T

   *** convergence criteria satisfied after 10 iterations ***

         #    Occupation            Energy/Eh            Energy/eV
      -------------------------------------------------------------
         1        2.0000           -0.7343168             -19.9818
       ...           ...                  ...                  ...
        30        2.0000           -0.4608340             -12.5399
        31        2.0000           -0.4571966             -12.4410
        32        2.0000           -0.4478722             -12.1872
        33        2.0000           -0.4336027             -11.7989
        34        2.0000           -0.4246268             -11.5547
        35        2.0000           -0.4194562             -11.4140
        36        2.0000           -0.4125251             -11.2254 (HOMO)
        37                         -0.0333730              -0.9081 (LUMO)
        38                         -0.0067401              -0.1834
        39                          0.0066671               0.1814
        40                          0.0338448               0.9210
        41                          0.0465338               1.2663
       ...                                ...                  ...
        60                          0.2730204               7.4293
      -------------------------------------------------------------
                  HL-Gap            0.3791521 Eh           10.3173 eV
             Fermi-level           -0.2229491 Eh           -6.0668 eV

 SCC (total)                   0 d,  0 h,  0 min,  0.028 sec
 SCC setup                      ...        0 min,  0.000 sec (  0.643%)
 Dispersion                     ...        0 min,  0.000 sec (  0.495%)
 classical contributions        ...        0 min,  0.000 sec (  0.095%)
 integral evaluation            ...        0 min,  0.003 sec ( 10.053%)
 iterations                     ...        0 min,  0.018 sec ( 62.260%)
 molecular gradient             ...        0 min,  0.007 sec ( 25.928%)
 printout                       ...        0 min,  0.000 sec (  0.482%)

         :::::::::::::::::::::::::::::::::::::::::::::::::::::
         ::                     SUMMARY                     ::
         :::::::::::::::::::::::::::::::::::::::::::::::::::::
         :: total energy             -43.356537430404 Eh    ::
         :: gradient norm              0.013696818970 Eh/a0 ::
         :: HOMO-LUMO gap             10.317254248327 eV    ::
         ::.................................................::
         :: SCC energy               -43.660355151988 Eh    ::
         :: -> isotropic ES            0.134747067880 Eh    ::
         :: -> anisotropic ES         -0.002926675772 Eh    ::
         :: -> anisotropic XC         -0.010832315553 Eh    ::
         :: -> dispersion             -0.018969974405 Eh    ::
         :: repulsion energy           0.303817721584 Eh    ::
         :: add. restraining           0.000000000000 Eh    ::
         :: total charge               0.000000000000 e     ::
         :::::::::::::::::::::::::::::::::::::::::::::::::::::

           -------------------------------------------------
          |                Property Printout                |
           -------------------------------------------------

    * Orbital Energies and Occupations

         #    Occupation            Energy/Eh            Energy/eV
      -------------------------------------------------------------
         1        2.0000           -0.7343168             -19.9818
       ...           ...                  ...                  ...
        24        2.0000           -0.5212033             -14.1827
        25        2.0000           -0.5112089             -13.9107
        26        2.0000           -0.5029256             -13.6853
        27        2.0000           -0.4994364             -13.5904
        28        2.0000           -0.4867055             -13.2439
        29        2.0000           -0.4786167             -13.0238
        30        2.0000           -0.4608340             -12.5399
        31        2.0000           -0.4571966             -12.4410
        32        2.0000           -0.4478722             -12.1872
        33        2.0000           -0.4336027             -11.7989
        34        2.0000           -0.4246268             -11.5547
        35        2.0000           -0.4194562             -11.4140
        36        2.0000           -0.4125251             -11.2254 (HOMO)
        37                         -0.0333730              -0.9081 (LUMO)
        38                         -0.0067401              -0.1834
        39                          0.0066671               0.1814
        40                          0.0338448               0.9210
        41                          0.0465338               1.2663
        42                          0.0606245               1.6497
        43                          0.0684013               1.8613
        44                          0.0771282               2.0988
        45                          0.0938618               2.5541
        46                          0.1095891               2.9821
        47                          0.1192916               3.2461
       ...                                ...                  ...
        60                          0.2730204               7.4293
      -------------------------------------------------------------
                  HL-Gap            0.3791521 Eh           10.3173 eV
             Fermi-level           -0.2229491 Eh           -6.0668 eV

     #   Z          covCN         q      C6AA      α(0)
     1   6 C        3.676     0.072    19.585     6.341
     2   6 C        3.744     0.091    19.144     6.242
     3   1 H        0.923     0.012     2.863     2.646
     4   6 C        3.728     0.081    19.323     6.276
     5   1 H        0.924     0.079     1.988     2.205
     6   6 C        3.728     0.091    19.162     6.249
     7   1 H        0.922     0.017     2.774     2.605
     8   6 C        3.727     0.098    19.058     6.233
     9   1 H        0.923     0.050     2.315     2.379
    10   6 C        3.622     0.249    17.136     5.967
    11   1 H        0.922     0.007     2.942     2.682
    12   8 O        1.701    -0.349    19.866     6.018
    13   8 O        1.658    -0.409    21.021     6.189
    14   8 O        1.656    -0.431    21.466     6.254
    15   8 O        1.656    -0.446    21.753     6.296
    16   8 O        1.655    -0.434    21.526     6.263
    17   8 O        1.655    -0.426    21.352     6.238
    18   1 H        0.924     0.069     2.094     2.263
    19   1 H        0.924     0.037     2.493     2.469
    20   1 H        0.804     0.316     0.674     1.289
    21   1 H        0.804     0.317     0.673     1.288
    22   1 H        0.804     0.310     0.692     1.307
    23   1 H        0.804     0.290     0.752     1.362
    24   1 H        0.804     0.306     0.703     1.317

 Mol. C6AA /au·bohr⁶  :       4720.530233
 Mol. C8AA /au·bohr⁸  :     100115.517209
 Mol. α(0) /au        :         98.378978


Wiberg/Mayer (AO) data.
largest (>0.10) Wiberg bond orders for each atom

 ---------------------------------------------------------------------------
     #   Z sym  total        # sym  WBO       # sym  WBO       # sym  WBO
 ---------------------------------------------------------------------------
     1   6 C    3.964 --    17 O    1.019     2 C    0.974    18 H    0.968
                            19 H    0.967
     2   6 C    3.947 --     1 C    0.974    12 O    0.967     4 C    0.963
                             3 H    0.956
     3   1 H    1.000 --     2 C    0.956
     4   6 C    3.953 --    16 O    0.999     6 C    0.966     2 C    0.963
                             5 H    0.954
     5   1 H    0.994 --     4 C    0.954
     6   6 C    3.962 --    15 O    0.998     8 C    0.967     4 C    0.966
                             7 H    0.954
     7   1 H    1.000 --     6 C    0.954
     8   6 C    3.965 --    14 O    1.007     6 C    0.967    10 C    0.960
                             9 H    0.956
     9   1 H    0.997 --     8 C    0.956
    10   6 C    3.934 --    13 O    1.027     8 C    0.960    12 O    0.951
                            11 H    0.944
    11   1 H    1.000 --    10 C    0.944
    12   8 O    2.069 --     2 C    0.967    10 C    0.951
    13   8 O    1.997 --    10 C    1.027    20 H    0.881
    14   8 O    1.963 --     8 C    1.007    21 H    0.883
    15   8 O    1.956 --     6 C    0.998    22 H    0.883
    16   8 O    1.979 --     4 C    0.999    23 H    0.896
    17   8 O    1.971 --     1 C    1.019    24 H    0.889
    18   1 H    0.995 --     1 C    0.968
    19   1 H    0.998 --     1 C    0.967
    20   1 H    0.899 --    13 O    0.881
    21   1 H    0.900 --    14 O    0.883
    22   1 H    0.904 --    15 O    0.883
    23   1 H    0.916 --    16 O    0.896
    24   1 H    0.906 --    17 O    0.889
 ---------------------------------------------------------------------------

Topologies differ in total number of bonds
Writing topology from bond orders to xtbtopo.mol

molecular dipole:
                 x           y           z       tot (Debye)
 q only:       -0.298       0.016       0.787
   full:       -0.347       0.034       1.312       3.450
molecular quadrupole (traceless):
                xx          xy          yy          xz          yz          zz
 q only:       -9.615       1.974       7.138      -4.973       0.992       2.478
  q+dip:      -17.056       3.772       9.745      -5.896       0.445       7.311
   full:      -16.348       3.307      10.206      -6.352       0.759       6.142


           -------------------------------------------------
          | TOTAL ENERGY              -43.356537430404 Eh   |
          | GRADIENT NORM               0.013696818970 Eh/α |
          | HOMO-LUMO GAP              10.317254248327 eV   |
           -------------------------------------------------

------------------------------------------------------------------------
 * finished run on 2025/04/06 at 18:00:39.890     
------------------------------------------------------------------------
 total:
 * wall-time:     0 d,  0 h,  0 min,  0.061 sec
 *  cpu-time:     0 d,  0 h,  0 min,  0.027 sec
 * ratio c/w:     0.445 speedup
 SCF:
 * wall-time:     0 d,  0 h,  0 min,  0.029 sec
 *  cpu-time:     0 d,  0 h,  0 min,  0.019 sec
 * ratio c/w:     0.668 speedup

