      -----------------------------------------------------------      
     |                   =====================                   |     
     |                           x T B                           |     
     |                   =====================                   |     
     |                         S. Grimme                         |     
     |          Mulliken Center for Theoretical Chemistry        |     
     |                    University of Bonn                     |     
      -----------------------------------------------------------      

   * xtb version 6.7.1 (edcfbbe) compiled by 'albert@albert-system' on 2024-07-22

   xtb is free software: you can redistribute it and/or modify it under
   the terms of the GNU Lesser General Public License as published by
   the Free Software Foundation, either version 3 of the License, or
   (at your option) any later version.
   
   xtb is distributed in the hope that it will be useful,
   but WITHOUT ANY WARRANTY; without even the implied warranty of
   MERCHANTABILITY or FITNESS FOR A PARTICULAR PURPOSE.  See the
   GNU Lesser General Public License for more details.
   
   Cite this work as:
   * C. Bannwarth, E. Caldeweyher, S. Ehlert, A. Hansen, P. Pracht,
     J. Seibert, S. Spicher, S. Grimme, WIREs Comput. Mol. Sci., 2020, 11,
     e01493. DOI: 10.1002/wcms.1493
   
   for GFN2-xTB:
   * C. Bannwarth, S. Ehlert and S. Grimme., J. Chem. Theory Comput., 2019,
     15, 1652-1671. DOI: 10.1021/acs.jctc.8b01176
   for GFN1-xTB:
   * S. Grimme, C. Bannwarth, P. Shushkov, J. Chem. Theory Comput., 2017,
     13, 1989-2009. DOI: 10.1021/acs.jctc.7b00118
   for GFN0-xTB:
   * P. Pracht, E. Caldeweyher, S. Ehlert, S. Grimme, ChemRxiv, 2019, preprint.
     DOI: 10.26434/chemrxiv.8326202.v1
   for GFN-FF:
   * S. Spicher and S. Grimme, Angew. Chem. Int. Ed., 2020, 59, 15665-15673.
     DOI: 10.1002/anie.202004239
   
   for ALPB and GBSA implicit solvation:
   * S. Ehlert, M. Stahn, S. Spicher, S. Grimme, J. Chem. Theory Comput.,
     2021, 17, 4250-4261. DOI: 10.1021/acs.jctc.1c00471
   
   for ddCOSMO and CPCM-X implicit solvation:
   * M. Stahn, S. Ehlert, S. Grimme, J. Phys. Chem. A,
     2023, XX, XXXX-XXXX. DOI: 10.1021/acs.jpca.3c04382
   
   for DFT-D4:
   * E. Caldeweyher, C. Bannwarth and S. Grimme, J. Chem. Phys., 2017,
     147, 034112. DOI: 10.1063/1.4993215
   * E. Caldeweyher, S. Ehlert, A. Hansen, H. Neugebauer, S. Spicher,
     C. Bannwarth and S. Grimme, J. Chem. Phys., 2019, 150, 154122.
     DOI: 10.1063/1.5090222
   * E. Caldeweyher, J.-M. Mewes, S. Ehlert and S. Grimme, Phys. Chem. Chem. Phys.
     2020, 22, 8499-8512. DOI: 10.1039/D0CP00502A
   
   for sTDA-xTB:
   * S. Grimme and C. Bannwarth, J. Chem. Phys., 2016, 145, 054103.
     DOI: 10.1063/1.4959605
   
   in the mass-spec context:
   * V. Asgeirsson, C. Bauer and S. Grimme, Chem. Sci., 2017, 8, 4879.
     DOI: 10.1039/c7sc00601b
   * J. Koopman and S. Grimme, ACS Omega 2019, 4, 12, 15120-15133.
     DOI: 10.1021/acsomega.9b02011
   
   for metadynamics refer to:
   * S. Grimme, J. Chem. Theory Comput., 2019, 155, 2847-2862
     DOI: 10.1021/acs.jctc.9b00143
   
   for SPH calculations refer to:
   * S. Spicher and S. Grimme, J. Chem. Theory Comput., 2021, 17, 1701-1714
     DOI: 10.1021/acs.jctc.0c01306
   
   for ONIOM refer to:
   * C. Plett, A. Katbashev, S. Ehlert, S. Grimme, M. Bursch,
     Phys. Chem. Chem. Phys., 2023, 25, 17860-17868. DOI: 10.1039/D3CP02178E
   
   for DIPRO refer to:
   * J. Kohn, N. Gildemeister, S. Grimme, D. Fazzi, A. Hansen,
     J. Chem. Phys., 2023, just accepted.
   
   for PTB refer to:
   * S. Grimme, M. Mueller, A. Hansen, J. Chem. Phys., 2023, 158, 124111.
     DOI: 10.1063/5.0137838
   
   with help from (in alphabetical order)
   P. Atkinson, C. Bannwarth, F. Bohle, G. Brandenburg, E. Caldeweyher
   M. Checinski, S. Dohm, S. Ehlert, S. Ehrlich, I. Gerasimov, C. Hölzer
   A. Katbashev, J. Kohn, J. Koopman, C. Lavigne, S. Lehtola, F. März, M. Müller,
   F. Musil, H. Neugebauer, J. Pisarek, C. Plett, P. Pracht, F. Pultar,
   J. Seibert, P. Shushkov, S. Spicher, M. Stahn, M. Steiner, T. Strunk,
   J. Stückrath, T. Rose, and J. Unsleber
   
 * started run on 2025/04/06 at 18:00:41.665     
   ID    Z sym.   atoms
    1    6 C      1, 2, 4, 6, 8, 10
    2    1 H      3, 5, 7, 9, 11, 18-24
    3    8 O      12-17

           -------------------------------------------------
          |                Calculation Setup                |
           -------------------------------------------------

          program call               : /srv/scratch/z5358697/.xtb/bin/xtb solv.coord --gfn2 --sp --chrg 0 --norestart --parallel 1 --alpb water reference -I xtb_sp-xcontrol-inp
          hostname                   : k155
          coordinate file            : solv.coord
          omp threads                :                     1


           -------------------------------------------------
          |                 G F N 2 - x T B                 |
           -------------------------------------------------

        Reference                      10.1021/acs.jctc.8b01176
      * Hamiltonian:
        H0-scaling (s, p, d)           1.850000    2.230000    2.230000
        zeta-weighting                 0.500000
      * Dispersion:
        s8                             2.700000
        a1                             0.520000
        a2                             5.000000
        s9                             5.000000
      * Repulsion:
        kExp                           1.500000    1.000000
        rExp                           1.000000
      * Coulomb:
        alpha                          2.000000
        third order                    shell-resolved
        anisotropic                    true
        a3                             3.000000
        a5                             4.000000
        cn-shift                       1.200000
        cn-exp                         4.000000
        max-rad                        5.000000

      * Solvation model:               ALPB
        Solvent                        water
        Parameter file                 internal GFN2-xTB/ALPB
        Dielectric constant                8.0200E+01
        Reference state                gsolv=reference [X=1]
        Free energy shift                  2.8945E-03 Eh       1.8164E+00 kcal/mol
        Temperature                        2.9815E+02 K
        Density                            1.0000E+00 kg/L
        Solvent mass                       1.8000E+01 g/mol
        Interaction kernel             P16
        Born radius scaling (c1)           1.4744E+00
        Born radii integrator          GBOBC
        Born offset                        0.0000E+00 a0       0.0000E+00 AA
        H-bond correction              true
        Ion screening                  false
        Surface tension                    1.0000E-05 Eh       1.5569E+01 dyn/cm
        Grid points                               974 per atom

          ...................................................
          :                      SETUP                      :
          :.................................................:
          :  # basis functions                  60          :
          :  # atomic orbitals                  60          :
          :  # shells                           36          :
          :  # electrons                        72          :
          :  max. iterations                   250          :
          :  Hamiltonian                  GFN2-xTB          :
          :  restarted?                      false          :
          :  GBSA solvation                   true          :
          :  PC potential                    false          :
          :  electronic temp.          300.0000000     K    :
          :  accuracy                    1.0000000          :
          :  -> integral cutoff          0.2500000E+02      :
          :  -> integral neglect         0.1000000E-07      :
          :  -> SCF convergence          0.1000000E-05 Eh   :
          :  -> wf. convergence          0.1000000E-03 e    :
          :  Broyden damping             0.4000000          :
          :  net charge                          0          :
          :  unpaired electrons                  0          :
          ...................................................

 iter      E             dE          RMSdq      gap      omega  full diag
   1    -43.6548275 -0.436548E+02  0.483E+00   10.13       0.0  T
   2    -43.6854761 -0.306486E-01  0.261E+00   10.07       1.0  T
   3    -43.6876125 -0.213642E-02  0.576E-01   10.05       1.0  T
   4    -43.6879851 -0.372619E-03  0.181E-01   10.04       1.0  T
   5    -43.6880460 -0.608367E-04  0.742E-02   10.06       1.0  T
   6    -43.6880624 -0.164541E-04  0.233E-02   10.07       1.0  T
   7    -43.6880634 -0.101527E-05  0.712E-03   10.06       2.9  T
   8    -43.6880637 -0.282792E-06  0.253E-03   10.06       8.1  T
   9    -43.6880637 -0.178851E-07  0.106E-03   10.06      19.3  T
  10    -43.6880637 -0.483433E-08  0.370E-04   10.06      55.2  T
  11    -43.6880637 -0.605297E-09  0.114E-04   10.06     179.5  T

   *** convergence criteria satisfied after 11 iterations ***

         #    Occupation            Energy/Eh            Energy/eV
      -------------------------------------------------------------
         1        2.0000           -0.7326584             -19.9366
       ...           ...                  ...                  ...
        30        2.0000           -0.4596982             -12.5090
        31        2.0000           -0.4562366             -12.4148
        32        2.0000           -0.4482914             -12.1986
        33        2.0000           -0.4457860             -12.1305
        34        2.0000           -0.4249268             -11.5628
        35        2.0000           -0.4073371             -11.0842
        36        2.0000           -0.3991796             -10.8622 (HOMO)
        37                         -0.0293319              -0.7982 (LUMO)
        38                         -0.0023533              -0.0640
        39                          0.0247888               0.6745
        40                          0.0392767               1.0688
        41                          0.0535635               1.4575
       ...                                ...                  ...
        60                          0.2987594               8.1297
      -------------------------------------------------------------
                  HL-Gap            0.3698476 Eh           10.0641 eV
             Fermi-level           -0.2142557 Eh           -5.8302 eV

 SCC (total)                   0 d,  0 h,  0 min,  0.033 sec
 SCC setup                      ...        0 min,  0.001 sec (  4.493%)
 Dispersion                     ...        0 min,  0.000 sec (  0.425%)
 classical contributions        ...        0 min,  0.000 sec (  0.079%)
 integral evaluation            ...        0 min,  0.003 sec (  8.170%)
 iterations                     ...        0 min,  0.021 sec ( 63.518%)
 molecular gradient             ...        0 min,  0.008 sec ( 22.868%)
 printout                       ...        0 min,  0.000 sec (  0.407%)

         :::::::::::::::::::::::::::::::::::::::::::::::::::::
         ::                     SUMMARY                     ::
         :::::::::::::::::::::::::::::::::::::::::::::::::::::
         :: total energy             -43.385449665281 Eh    ::
         :: total w/o Gsasa/hb       -43.368636958407 Eh    ::
         :: gradient norm              0.000047643257 Eh/a0 ::
         :: HOMO-LUMO gap             10.064066242512 eV    ::
         ::.................................................::
         :: SCC energy               -43.687869284497 Eh    ::
         :: -> isotropic ES            0.168783116986 Eh    ::
         :: -> anisotropic ES         -0.007426650506 Eh    ::
         :: -> anisotropic XC         -0.009622803632 Eh    ::
         :: -> dispersion             -0.019830866430 Eh    ::
         :: -> Gsolv                  -0.034697510508 Eh    ::
         ::    -> Gelec               -0.017884803634 Eh    ::
         ::    -> Gsasa                0.004700877360 Eh    ::
         ::    -> Ghb                 -0.024408133395 Eh    ::
         ::    -> Gshift               0.002894549160 Eh    ::
         :: repulsion energy           0.302419619216 Eh    ::
         :: add. restraining           0.000000000000 Eh    ::
         :: total charge              -0.000000000000 e     ::
         :::::::::::::::::::::::::::::::::::::::::::::::::::::

           -------------------------------------------------
          |                Property Printout                |
           -------------------------------------------------

    * Orbital Energies and Occupations

         #    Occupation            Energy/Eh            Energy/eV
      -------------------------------------------------------------
         1        2.0000           -0.7326584             -19.9366
       ...           ...                  ...                  ...
        24        2.0000           -0.5149957             -14.0137
        25        2.0000           -0.5093433             -13.8599
        26        2.0000           -0.4932843             -13.4229
        27        2.0000           -0.4844323             -13.1821
        28        2.0000           -0.4791117             -13.0373
        29        2.0000           -0.4675688             -12.7232
        30        2.0000           -0.4596982             -12.5090
        31        2.0000           -0.4562366             -12.4148
        32        2.0000           -0.4482914             -12.1986
        33        2.0000           -0.4457860             -12.1305
        34        2.0000           -0.4249268             -11.5628
        35        2.0000           -0.4073371             -11.0842
        36        2.0000           -0.3991796             -10.8622 (HOMO)
        37                         -0.0293319              -0.7982 (LUMO)
        38                         -0.0023533              -0.0640
        39                          0.0247888               0.6745
        40                          0.0392767               1.0688
        41                          0.0535635               1.4575
        42                          0.0638271               1.7368
        43                          0.0653269               1.7776
        44                          0.0740032               2.0137
        45                          0.1010233               2.7490
        46                          0.1088130               2.9610
        47                          0.1232339               3.3534
       ...                                ...                  ...
        60                          0.2987594               8.1297
      -------------------------------------------------------------
                  HL-Gap            0.3698476 Eh           10.0641 eV
             Fermi-level           -0.2142557 Eh           -5.8302 eV

     #   Z          covCN         q      C6AA      α(0)
     1   6 C        3.675     0.067    19.675     6.356
     2   6 C        3.754     0.091    19.122     6.236
     3   1 H        0.923     0.038     2.476     2.461
     4   6 C        3.725     0.089    19.207     6.258
     5   1 H        0.924     0.067     2.124     2.279
     6   6 C        3.726     0.095    19.114     6.242
     7   1 H        0.924     0.060     2.200     2.320
     8   6 C        3.725     0.086    19.259     6.266
     9   1 H        0.924     0.054     2.276     2.359
    10   6 C        3.631     0.248    17.123     5.958
    11   1 H        0.922     0.015     2.810     2.622
    12   8 O        1.700    -0.368    20.226     6.072
    13   8 O        1.657    -0.500    22.884     6.458
    14   8 O        1.655    -0.516    23.242     6.508
    15   8 O        1.655    -0.488    22.632     6.422
    16   8 O        1.655    -0.495    22.774     6.442
    17   8 O        1.655    -0.494    22.772     6.442
    18   1 H        0.924     0.068     2.110     2.272
    19   1 H        0.924     0.046     2.370     2.407
    20   1 H        0.804     0.395     0.493     1.103
    21   1 H        0.805     0.386     0.510     1.122
    22   1 H        0.804     0.346     0.597     1.214
    23   1 H        0.804     0.351     0.585     1.201
    24   1 H        0.805     0.359     0.567     1.183

 Mol. C6AA /au·bohr⁶  :       4721.637134
 Mol. C8AA /au·bohr⁸  :     100663.887188
 Mol. α(0) /au        :         98.201119


Wiberg/Mayer (AO) data.
largest (>0.10) Wiberg bond orders for each atom

 ---------------------------------------------------------------------------
     #   Z sym  total        # sym  WBO       # sym  WBO       # sym  WBO
 ---------------------------------------------------------------------------
     1   6 C    3.958 --    17 O    1.011     2 C    0.978    18 H    0.969
                            19 H    0.967
     2   6 C    3.940 --     1 C    0.978     4 C    0.963     3 H    0.956
                            12 O    0.956
     3   1 H    0.999 --     2 C    0.956
     4   6 C    3.955 --    16 O    1.004     2 C    0.963     5 H    0.957
                             6 C    0.955
     5   1 H    0.996 --     4 C    0.957
     6   6 C    3.956 --    15 O    1.005     8 C    0.963     7 H    0.959
                             4 C    0.955
     7   1 H    0.996 --     6 C    0.959
     8   6 C    3.957 --    14 O    0.996     6 C    0.963     9 H    0.963
                            10 C    0.957
     9   1 H    0.997 --     8 C    0.963
    10   6 C    3.928 --    13 O    1.020     8 C    0.957    12 O    0.952
                            11 H    0.945
    11   1 H    1.000 --    10 C    0.945
    12   8 O    2.055 --     2 C    0.956    10 C    0.952
    13   8 O    1.937 --    10 C    1.020    20 H    0.826
    14   8 O    1.916 --     8 C    0.996    21 H    0.839
    15   8 O    1.942 --     6 C    1.005    22 H    0.859
    16   8 O    1.935 --     4 C    1.004    23 H    0.853
    17   8 O    1.930 --     1 C    1.011    24 H    0.857
    18   1 H    0.995 --     1 C    0.969
    19   1 H    0.998 --     1 C    0.967
    20   1 H    0.844 --    13 O    0.826
    21   1 H    0.851 --    14 O    0.839
    22   1 H    0.880 --    15 O    0.859
    23   1 H    0.876 --    16 O    0.853
    24   1 H    0.871 --    17 O    0.857
 ---------------------------------------------------------------------------

Topologies differ in total number of bonds
Writing topology from bond orders to xtbtopo.mol

molecular dipole:
                 x           y           z       tot (Debye)
 q only:        1.146      -1.072       0.676
   full:        1.515      -1.467       0.914       5.842
molecular quadrupole (traceless):
                xx          xy          yy          xz          yz          zz
 q only:       -3.480       5.640       2.541       3.888       7.572       0.939
  q+dip:       -4.361       7.735       5.644       5.584       6.450      -1.283
   full:       -4.743       7.564       4.801       5.432       7.734      -0.058


           -------------------------------------------------
          | TOTAL ENERGY              -43.385449665281 Eh   |
          | GRADIENT NORM               0.000047643257 Eh/α |
          | HOMO-LUMO GAP              10.064066242512 eV   |
           -------------------------------------------------

------------------------------------------------------------------------
 * finished run on 2025/04/06 at 18:00:41.737     
------------------------------------------------------------------------
 total:
 * wall-time:     0 d,  0 h,  0 min,  0.072 sec
 *  cpu-time:     0 d,  0 h,  0 min,  0.030 sec
 * ratio c/w:     0.416 speedup
 SCF:
 * wall-time:     0 d,  0 h,  0 min,  0.033 sec
 *  cpu-time:     0 d,  0 h,  0 min,  0.021 sec
 * ratio c/w:     0.635 speedup

