
                                 *****************
                                 * O   R   C   A *
                                 *****************

                                            #,                                       
                                            ###                                      
                                            ####                                     
                                            #####                                    
                                            ######                                   
                                           ########,                                 
                                     ,,################,,,,,                         
                               ,,#################################,,                 
                          ,,##########################################,,             
                       ,#########################################, ''#####,          
                    ,#############################################,,   '####,        
                  ,##################################################,,,,####,       
                ,###########''''           ''''###############################       
              ,#####''   ,,,,##########,,,,          '''####'''          '####       
            ,##' ,,,,###########################,,,                        '##       
           ' ,,###''''                  '''############,,,                           
         ,,##''                                '''############,,,,        ,,,,,,###''
      ,#''                                            '''#######################'''  
     '                                                          ''''####''''         
             ,#######,   #######,   ,#######,      ##                                
            ,#'     '#,  ##    ##  ,#'     '#,    #''#        ,####,   ,####,        
            ##       ##  ##   ,#'  ##            #'  '#       #'       #'  '#        
            ##       ##  #######   ##           ,######,      #####,   #    #        
            '#,     ,#'  ##    ##  '#,     ,#' ,#      #,     #,   #   #,  ,#        
             '#######'   ##     ##  '#######'  #'      '#     '####' # '####'        



                #########################################################
                #                        -***-                          #
                #          Department of theory and spectroscopy        #
                #                                                       #
                #                      Frank Neese                      #
                #                                                       #
                #     Directorship, Architecture, Infrastructure        #
                #                    SHARK, DRIVERS                     #
                #        Core code/Algorithms in most modules           #
                #                                                       #
                #        Max Planck Institute fuer Kohlenforschung      #
                #                Kaiser Wilhelm Platz 1                 #
                #                 D-45470 Muelheim/Ruhr                 #
                #                      Germany                          #
                #                                                       #
                #                  All rights reserved                  #
                #                        -***-                          #
                #########################################################


                         Program Version 6.0.0  -   RELEASE  -


 With contributions from (in alphabetic order):
   Daniel Aravena         : Magnetic Suceptibility
   Michael Atanasov       : Ab Initio Ligand Field Theory (pilot matlab implementation)
   Alexander A. Auer      : GIAO ZORA, VPT2 properties, NMR spectrum
   Ute Becker             : All parallelization in ORCA, NUMFREQ, NUMCALC
   Giovanni Bistoni       : ED, misc. LED, open-shell LED, HFLD
   Martin Brehm           : Molecular dynamics
   Dmytro Bykov           : pre 5.0 version of the SCF Hessian
   Marcos Casanova-Páez   : Triplet and SCS-CIS(D). UHF-(DLPNO)-IP/EA/STEOM-CCSD. UHF-CVS-IP/STEOM-CCSD
   Vijay G. Chilkuri      : MRCI spin determinant printing, contributions to CSF-ICE
   Pauline Colinet        : FMM embedding
   Dipayan Datta          : RHF DLPNO-CCSD density
   Achintya Kumar Dutta   : EOM-CC, STEOM-CC
   Nicolas Foglia         : Exact transition moments, OPA infrastructure, MCD improvements
   Dmitry Ganyushin       : Spin-Orbit,Spin-Spin,Magnetic field MRCI
   Miquel Garcia          : C-PCM and meta-GGA Hessian, CCSD/C-PCM, Gaussian charge scheme
   Tiago L. C. Gouveia    : GS-ROHF, GS-ROCIS
   Yang Guo               : DLPNO-NEVPT2, F12-NEVPT2, CIM, IAO-localization
   Andreas Hansen         : Spin unrestricted coupled pair/coupled cluster methods
   Ingolf Harden          : AUTO-CI MPn and infrastructure 
   Benjamin Helmich-Paris : MC-RPA, TRAH-(SCF,CASSCF), AVAS, COSX integrals, SCF dyn. polar.
   Lee Huntington         : MR-EOM, pCC
   Robert Izsak           : Overlap fitted RIJCOSX, COSX-SCS-MP3, EOM
   Riya Kayal             : Wick's Theorem for AUTO-CI, AUTO-CI UHF-CCSDT
   Emily Kempfer          : AUTO-CI, RHF CISDT and CCSDT
   Christian Kollmar      : KDIIS, OOCD, Brueckner-CCSD(T), CCSD density, CASPT2, CASPT2-K, improved NEVPT2
   Axel Koslowski         : Symmetry handling
   Simone Kossmann        : Meta GGA functionals, TD-DFT gradient, OOMP2, (MP2 Hessian; deprecated post 5.0)
   Lucas Lang             : DCDCAS
   Marvin Lechner         : AUTO-CI (C++ implementation), FIC-MRCC
   Spencer Leger          : CASSCF response
   Dagmar Lenk            : GEPOL surface, SMD, ORCA-2-JSON
   Dimitrios Liakos       : Extrapolation schemes; Compound Job, initial MDCI parallelization
   Dimitrios Manganas     : Further ROCIS development; embedding schemes. LFT, Crystal Embedding
   Dimitrios Pantazis     : SARC Basis sets
   Anastasios Papadopoulos: AUTO-CI, single reference methods and gradients
   Taras Petrenko         : pre 6.0 DFT Hessian and TD-DFT gradient, (ASA, deprecated), ECA, 1-Electron XAS/XES, NRVS
   Peter Pinski           : DLPNO-MP2, DLPNO-MP2 Gradient
   Christoph Reimann      : Effective Core Potentials
   Marius Retegan         : Local ZFS, SOC
   Christoph Riplinger    : Optimizer, TS searches, QM/MM, DLPNO-CCSD(T), (RO)-DLPNO pert. Triples
   Michael Roemelt        : Original ROCIS implementation
   Masaaki Saitow         : Open-shell DLPNO-CCSD energy and density
   Barbara Sandhoefer     : DKH picture change effects
   Kantharuban Sivalingam : CASSCF convergence/infrastructure, NEVPT2 and variants, FIC-MRCI
   Bernardo de Souza      : ESD, SOC TD-DFT
   Georgi Stoychev        : AutoAux, RI-MP2 NMR, DLPNO-MP2 response, X2C
   Van Anh Tran           : RI-MP2 g-tensors
   Willem Van den Heuvel  : Paramagnetic NMR
   Zikuan Wang            : NOTCH, Electric field optimization 
   Frank Wennmohs         : Technical directorship and infrastructure
   Hang Xu                : AUTO-CI-Response properties 


 We gratefully acknowledge several colleagues who have allowed us to
 interface, adapt or use parts of their codes:
   Stefan Grimme, W. Hujo, H. Kruse, P. Pracht,  : VdW corrections, initial TS optimization,
                  C. Bannwarth, S. Ehlert,         DFT functionals, gCP, sTDA/sTD-DF
                  L. Wittmann, M. Mueller
   Ed Valeev, F. Pavosevic, A. Kumar             : LibInt (2-el integral package), F12 methods
   Garnet Chan, S. Sharma, J. Yang, R. Olivares  : DMRG
   Ulf Ekstrom                                   : XCFun DFT Library
   Mihaly Kallay                                 : mrcc  (arbitrary order and MRCC methods)
   Frank Weinhold                                : gennbo (NPA and NBO analysis)
   Simon Mueller                                 : openCOSMO-RS
   Christopher J. Cramer and Donald G. Truhlar   : smd solvation model
   Lars Goerigk                                  : TD-DFT with DH, B97 family of functionals
   V. Asgeirsson, H. Jonsson                     : NEB implementation
   FAccTs GmbH                                   : IRC, NEB, NEB-TS, DLPNO-Multilevel, CI-OPT
                                                   MM, QMMM, 2- and 3-layer-ONIOM, Crystal-QMMM,
                                                   LR-CPCM, SF, NACMEs, symmetry and pop. for TD-DFT,
                                                   nearIR, NL-DFT gradient (VV10), updates on ESD,
                                                   ML-optimized integration grids, MBIS, APM,
                                                   GOAT, DOCKER, SOLVATOR, interface openCOSMO-RS
   S Lehtola, MJT Oliveira, MAL Marques          : LibXC Library
   Liviu Ungur et al                             : ANISO software


 Your calculation uses the libint2 library for the computation of 2-el integrals
 For citations please refer to: http://libint.valeyev.net

 Your ORCA version has been built with support for libXC version: 6.2.2
 For citations please refer to: https://libxc.gitlab.io

 This ORCA versions uses:
   CBLAS   interface :  Fast vector & matrix operations
   LAPACKE interface :  Fast linear algebra routines
   SCALAPACK package :  Parallel linear algebra routines
   Shared memory     :  Shared parallel matrices
   BLAS/LAPACK       :  OpenBLAS 0.3.27  USE64BITINT DYNAMIC_ARCH NO_AFFINITY SkylakeX SINGLE_THREADED
        Core in use  :  SkylakeX
   Copyright (c) 2011-2014, The OpenBLAS Project


Your calculation utilizes the geometrical counterpoise correction gCP
Please cite in your paper:
H.Kruse, S. Grimme J.Chem.Phys., 136, (2012), 154101 
   

Your calculation utilizes the DFT-NL dispersion correction.
Cite in your paper:
Vydrov, O. A.; Van Voorhis, T. J. Chem. Phys. 2010, 133, 244103
Hujo, W.; Grimme, S. J. Chem. Theory Comput. 2011, 7, 3866 
   

================================================================================

----- Orbital basis set information -----
Your calculation utilizes the basis: def2-TZVP
   F. Weigend and R. Ahlrichs, Phys. Chem. Chem. Phys. 7, 3297 (2005).

----- AuxJ basis set information -----
Your calculation utilizes the auxiliary basis: def2/J
   F. Weigend, Phys. Chem. Chem. Phys. 8, 1057 (2006).

================================================================================
                                        WARNINGS
                       Please study these warnings very carefully!
================================================================================


================================================================================
                                       INPUT FILE
================================================================================
NAME = sp_gas.inp
|  1> ! wb97x-v def2-tzvp def2/J RIJCOSX DEFGRID2 scfconv7 GCP(DFT/TZ) printgap
|  2> %output
|  3>     printlevel normal
|  4> end
|  5> * xyz 0 1
|  6> C 1.871694288852082 -1.0758703777524992 0.05703102011694927
|  7> C 1.100917915684702 0.17562100489161928 0.4661652498560321
|  8> C -0.3711242221448565 0.2147410822353189 0.02641162129940285
|  9> C -1.0277023592632022 1.495295607756892 0.5363734075769383
| 10> C -1.1478404920005094 -1.0091201101828111 0.4899417366230416
| 11> O -0.44788426230239897 0.19092238053835464 -1.4285651967276225
| 12> H 1.808309189072562 -1.2502747517205008 -1.0218602741968938
| 13> H 1.4970546849170678 -1.9681908045037992 0.5676594189798374
| 14> H 2.930370872914266 -0.9708944306349933 0.3142797617019577
| 15> H 1.5920317664103592 1.0643258090928926 0.04708137806547752
| 16> H 1.1323165174093224 0.28876335367824585 1.556812612916132
| 17> H -0.4790801883305093 2.375758468950738 0.18257985710351535
| 18> H -2.0612778100346096 1.5620717793216357 0.1825215221550406
| 19> H -1.0350180129589888 1.5155424963493966 1.6309246194889149
| 20> H -2.203432312974456 -0.9137689006871251 0.21636937748164434
| 21> H -0.7558789851928079 -1.921766022088847 0.03237424870070427
| 22> H -1.0801502171291817 -1.110724035495577 1.577030584852184
| 23> H 0.009074520570336841 0.9812704560336789 -1.7472894502922014
| 24> *
| 25> 
| 26>                          ****END OF INPUT****
================================================================================

                       ****************************
                       * Single Point Calculation *
                       ****************************

---------------------------------
CARTESIAN COORDINATES (ANGSTROEM)
---------------------------------
  C      1.871694   -1.075870    0.057031
  C      1.100918    0.175621    0.466165
  C     -0.371124    0.214741    0.026412
  C     -1.027702    1.495296    0.536373
  C     -1.147840   -1.009120    0.489942
  O     -0.447884    0.190922   -1.428565
  H      1.808309   -1.250275   -1.021860
  H      1.497055   -1.968191    0.567659
  H      2.930371   -0.970894    0.314280
  H      1.592032    1.064326    0.047081
  H      1.132317    0.288763    1.556813
  H     -0.479080    2.375758    0.182580
  H     -2.061278    1.562072    0.182522
  H     -1.035018    1.515542    1.630925
  H     -2.203432   -0.913769    0.216369
  H     -0.755879   -1.921766    0.032374
  H     -1.080150   -1.110724    1.577031
  H      0.009075    0.981270   -1.747289

----------------------------
CARTESIAN COORDINATES (A.U.)
----------------------------
  NO LB      ZA    FRAG     MASS         X           Y           Z
   0 C     6.0000    0    12.011    3.536990   -2.033100    0.107773
   1 C     6.0000    0    12.011    2.080433    0.331876    0.880925
   2 C     6.0000    0    12.011   -0.701323    0.405802    0.049911
   3 C     6.0000    0    12.011   -1.942076    2.825699    1.013599
   4 C     6.0000    0    12.011   -2.169104   -1.906961    0.925856
   5 O     8.0000    0    15.999   -0.846379    0.360791   -2.699597
   6 H     1.0000    0     1.008    3.417209   -2.362677   -1.931036
   7 H     1.0000    0     1.008    2.829023   -3.719342    1.072721
   8 H     1.0000    0     1.008    5.537598   -1.834725    0.593903
   9 H     1.0000    0     1.008    3.008504    2.011284    0.088971
  10 H     1.0000    0     1.008    2.139768    0.545684    2.941949
  11 H     1.0000    0     1.008   -0.905330    4.489533    0.345026
  12 H     1.0000    0     1.008   -3.895251    2.951888    0.344916
  13 H     1.0000    0     1.008   -1.955901    2.863960    3.082001
  14 H     1.0000    0     1.008   -4.163884   -1.726773    0.408879
  15 H     1.0000    0     1.008   -1.428404   -3.631611    0.061178
  16 H     1.0000    0     1.008   -2.041188   -2.098964    2.980156
  17 H     1.0000    0     1.008    0.017148    1.854332   -3.301899

--------------------------------
INTERNAL COORDINATES (ANGSTROEM)
--------------------------------
 C      0   0   0     0.000000000000     0.00000000     0.00000000
 C      1   0   0     1.525685982176     0.00000000     0.00000000
 C      2   1   0     1.536821944737   115.34396227     0.00000000
 C      3   2   1     1.526753341715   109.73646494   178.29363159
 C      3   2   1     1.521835914275   112.41056178    54.65477131
 O      3   2   1     1.457194899563   109.61811142   297.89424741
 H      1   2   3     1.094733292396   111.45147973    54.37487071
 H      1   2   3     1.094226639485   111.76576740   293.32923746
 H      1   2   3     1.094528653879   110.30098252   173.87148039
 H      2   1   3     1.098462714424   109.60070891   238.71833644
 H      2   1   3     1.096949740795   109.68013354   122.19906942
 H      4   3   2     1.096070715208   110.52920089    56.61458430
 H      4   3   2     1.094508303460   110.44402627   176.84431566
 H      4   3   2     1.094762901630   110.63040290   296.87468571
 H      5   3   2     1.094626777192   110.24315274   176.24483397
 H      5   3   2     1.093583279564   111.14748069   296.32561120
 H      5   3   2     1.093922983987   110.23039896    56.57533818
 H      6   3   2     0.966978055332   106.90908719   298.87308168

---------------------------
INTERNAL COORDINATES (A.U.)
---------------------------
 C      0   0   0     0.000000000000     0.00000000     0.00000000
 C      1   0   0     2.883128672676     0.00000000     0.00000000
 C      2   1   0     2.904172592154   115.34396227     0.00000000
 C      3   2   1     2.885145689891   109.73646494   178.29363159
 C      3   2   1     2.875853098746   112.41056178    54.65477131
 O      3   2   1     2.753699283920   109.61811142   297.89424741
 H      1   2   3     2.068746112314   111.45147973    54.37487071
 H      1   2   3     2.067788677068   111.76576740   293.32923746
 H      1   2   3     2.068359401561   110.30098252   173.87148039
 H      2   1   3     2.075793698585   109.60070891   238.71833644
 H      2   1   3     2.072934592778   109.68013354   122.19906942
 H      4   3   2     2.071273475155   110.52920089    56.61458430
 H      4   3   2     2.068320944842   110.44402627   176.84431566
 H      4   3   2     2.068802065657   110.63040290   296.87468571
 H      5   3   2     2.068544827750   110.24315274   176.24483397
 H      5   3   2     2.066572903011   111.14748069   296.32561120
 H      5   3   2     2.067214851338   110.23039896    56.57533818
 H      6   3   2     1.827323702090   106.90908719   298.87308168

---------------------
BASIS SET INFORMATION
---------------------
There are 3 groups of distinct atoms

 Group   1 Type C   : 11s6p2d1f contracted to 5s3p2d1f pattern {62111/411/11/1}
 Group   2 Type O   : 11s6p2d1f contracted to 5s3p2d1f pattern {62111/411/11/1}
 Group   3 Type H   : 5s1p contracted to 3s1p pattern {311/1}

Atom   0C    basis set group =>   1
Atom   1C    basis set group =>   1
Atom   2C    basis set group =>   1
Atom   3C    basis set group =>   1
Atom   4C    basis set group =>   1
Atom   5O    basis set group =>   2
Atom   6H    basis set group =>   3
Atom   7H    basis set group =>   3
Atom   8H    basis set group =>   3
Atom   9H    basis set group =>   3
Atom  10H    basis set group =>   3
Atom  11H    basis set group =>   3
Atom  12H    basis set group =>   3
Atom  13H    basis set group =>   3
Atom  14H    basis set group =>   3
Atom  15H    basis set group =>   3
Atom  16H    basis set group =>   3
Atom  17H    basis set group =>   3
---------------------------------
AUXILIARY/J BASIS SET INFORMATION
---------------------------------
There are 3 groups of distinct atoms

 Group   1 Type C   : 12s5p4d2f1g contracted to 6s4p3d1f1g pattern {711111/2111/211/2/1}
 Group   2 Type O   : 12s5p4d2f1g contracted to 6s4p3d1f1g pattern {711111/2111/211/2/1}
 Group   3 Type H   : 5s2p1d contracted to 3s1p1d pattern {311/2/1}

Atom   0C    basis set group =>   1
Atom   1C    basis set group =>   1
Atom   2C    basis set group =>   1
Atom   3C    basis set group =>   1
Atom   4C    basis set group =>   1
Atom   5O    basis set group =>   2
Atom   6H    basis set group =>   3
Atom   7H    basis set group =>   3
Atom   8H    basis set group =>   3
Atom   9H    basis set group =>   3
Atom  10H    basis set group =>   3
Atom  11H    basis set group =>   3
Atom  12H    basis set group =>   3
Atom  13H    basis set group =>   3
Atom  14H    basis set group =>   3
Atom  15H    basis set group =>   3
Atom  16H    basis set group =>   3
Atom  17H    basis set group =>   3

Checking for AutoStart:
The File: sp_gas.gbw exists
Trying to determine its content:
     ... Fine, the file contains calculation information
     ... Fine, the calculation information was read
     ... Fine, the file contains a basis set
     ... Fine, the basis set was read
     ... Fine, the file contains a geometry
     ... Fine, the geometry was read
     ... Fine, the file contains a set of orbitals
     ... Fine, the orbitals can be read
     => possible old guess file was deleted
     => GBW file was renamed to GES file
     => GES file is set as startup file
     => Guess is set to MORead
     ... now leaving AutoStart

------------------------------------------------------------------------------
                             ORCA STARTUP CALCULATIONS
                           -- RI-GTO INTEGRALS CHOSEN --
------------------------------------------------------------------------------
------------------------------------------------------------------------------
                   ___                                                        
                  /   \      - P O W E R E D   B Y -                         
                 /     \                                                     
                 |  |  |   _    _      __       _____    __    __             
                 |  |  |  | |  | |    /  \     |  _  \  |  |  /  |          
                  \  \/   | |  | |   /    \    | | | |  |  | /  /          
                 / \  \   | |__| |  /  /\  \   | |_| |  |  |/  /          
                |  |  |   |  __  | /  /__\  \  |    /   |      \           
                |  |  |   | |  | | |   __   |  |    \   |  |\   \          
                \     /   | |  | | |  |  |  |  | |\  \  |  | \   \       
                 \___/    |_|  |_| |__|  |__|  |_| \__\ |__|  \__/        
                                                                              
                      - O R C A' S   B I G   F R I E N D -                    
                                      &                                       
                       - I N T E G R A L  F E E D E R -                       
                                                                              
 v1 FN, 2020, v2 2021, v3 2022-2024                                           
------------------------------------------------------------------------------


----------------------
SHARK INTEGRAL PACKAGE
----------------------

Number of atoms                             ...     18
Number of basis functions                   ...    258
Number of shells                            ...    114
Maximum angular momentum                    ...      3
Integral batch strategy                     ... SHARK/LIBINT Hybrid
RI-J (if used) integral strategy            ... SPLIT-RIJ (Revised 2003 algorithm where possible)
Printlevel                                  ...      1
Contraction scheme used                     ... SEGMENTED contraction
Prescreening option                         ... SCHWARTZ
   Thresh                                   ... 3.000e-11
   Tcut                                     ... 1.000e-12
   Tpresel                                  ... 1.000e-12 
Coulomb Range Separation                    ... NOT USED
Exchange Range Separation                   ... Long Range
   Mu parameter                             ... 3.000e-01
   Scaling (regular/separated)              ... 1.670e-01 8.330e-01
Multipole approximations                    ... NOT USED
Finite Nucleus Model                        ... NOT USED
CABS basis                                  ... NOT available
Auxiliary Coulomb fitting basis             ... AVAILABLE
   # of basis functions in Aux-J            ...    426
   # of shells in Aux-J                     ...    150
   Maximum angular momentum in Aux-J        ...      4
Auxiliary J/K fitting basis                 ... NOT available
Auxiliary Correlation fitting basis         ... NOT available
Auxiliary 'external' fitting basis          ... NOT available

Checking pre-screening integrals            ... done (  0.0 sec) Dimension = 114
Check shell pair data                       ... done (  0.0 sec)
Shell pair information
Shell pair cut-off parameter TPreSel        ...   1.0e-12
Total number of shell pairs                 ...      6555
Shell pairs after pre-screening             ...      6283
Total number of primitive shell pairs       ...     18696
Primitive shell pairs kept                  ...     14077
          la=0 lb=0:   2061 shell pairs
          la=1 lb=0:   1904 shell pairs
          la=1 lb=1:    455 shell pairs
          la=2 lb=0:    767 shell pairs
          la=2 lb=1:    357 shell pairs
          la=2 lb=2:     78 shell pairs
          la=3 lb=0:    388 shell pairs
          la=3 lb=1:    180 shell pairs
          la=3 lb=2:     72 shell pairs
          la=3 lb=3:     21 shell pairs

Calculating one electron integrals          ... done (  0.0 sec)
Calculating RI/J V-Matrix + Cholesky decomp.... done (  0.1 sec)
Calculating Nuclear repulsion               ... done (  0.0 sec) ENN=    267.557876852096 Eh

Diagonalization of the overlap matrix:
Smallest eigenvalue                        ... 1.732e-04
Time for diagonalization                   ...    0.007 sec
Threshold for overlap eigenvalues          ... 1.000e-07
Number of eigenvalues below threshold      ... 0
Time for construction of square roots      ...    0.015 sec
Total time needed                          ...    0.030 sec

-------------------
DFT GRID GENERATION
-------------------

General Integration Accuracy     IntAcc      ... 4.388
Radial Grid Type                 RadialGrid  ... OptM3 with GC (2021)
Angular Grid (max. ang.)         AngularGrid ... 4 (Lebedev-302)
Angular grid pruning method      GridPruning ... 4 (adaptive)
Weight generation scheme         WeightScheme... mBecke (2022)
Basis function cutoff            BFCut       ... 1.0000e-11
Integration weight cutoff        WCut        ... 1.0000e-14
Partially contracted basis set               ... off
Rotationally invariant grid construction     ... off
Angular grids for H and He will be reduced by one unit

Total number of grid points                  ...    74478
Total number of batches                      ...     1174
Average number of points per batch           ...       63
Average number of grid points per atom       ...     4138

--------------------
COSX GRID GENERATION
--------------------

GRIDX 1
-------
General Integration Accuracy     IntAcc      ... 3.816
Radial Grid Type                 RadialGrid  ... OptM3 with GC (2021)
Angular Grid (max. ang.)         AngularGrid ... 1 (Lebedev-50)
Angular grid pruning method      GridPruning ... 4 (adaptive)
Weight generation scheme         WeightScheme... mBecke (2022)
Basis function cutoff            BFCut       ... 1.0000e-11
Integration weight cutoff        WCut        ... 1.0000e-14
Partially contracted basis set               ... on
Rotationally invariant grid construction     ... off
Angular grids for H and He will be reduced by one unit

Total number of grid points                  ...     9562
Total number of batches                      ...       85
Average number of points per batch           ...      112
Average number of grid points per atom       ...      531
UseSFitting                                  ... on

GRIDX 2
-------
General Integration Accuracy     IntAcc      ... 4.020
Radial Grid Type                 RadialGrid  ... OptM3 with GC (2021)
Angular Grid (max. ang.)         AngularGrid ... 2 (Lebedev-110)
Angular grid pruning method      GridPruning ... 4 (adaptive)
Weight generation scheme         WeightScheme... mBecke (2022)
Basis function cutoff            BFCut       ... 1.0000e-11
Integration weight cutoff        WCut        ... 1.0000e-14
Partially contracted basis set               ... on
Rotationally invariant grid construction     ... off
Angular grids for H and He will be reduced by one unit

Total number of grid points                  ...    19793
Total number of batches                      ...      165
Average number of points per batch           ...      119
Average number of grid points per atom       ...     1100
UseSFitting                                  ... on

GRIDX 3
-------
General Integration Accuracy     IntAcc      ... 4.338
Radial Grid Type                 RadialGrid  ... OptM3 with GC (2021)
Angular Grid (max. ang.)         AngularGrid ... 3 (Lebedev-194)
Angular grid pruning method      GridPruning ... 4 (adaptive)
Weight generation scheme         WeightScheme... mBecke (2022)
Basis function cutoff            BFCut       ... 1.0000e-11
Integration weight cutoff        WCut        ... 1.0000e-14
Partially contracted basis set               ... on
Rotationally invariant grid construction     ... off
Angular grids for H and He will be reduced by one unit

Total number of grid points                  ...    43156
Total number of batches                      ...      346
Average number of points per batch           ...      124
Average number of grid points per atom       ...     2398
UseSFitting                                  ... on
Initializing property integral containers    ... done (  0.0 sec)

SHARK setup successfully completed in   2.0 seconds

Maximum memory used throughout the entire STARTUP-calculation: 40.2 MB
-------------------------------------------------------------------------------
                                 ORCA GUESS
                   Start orbitals & Density for SCF / CASSCF
-------------------------------------------------------------------------------

------------
SCF SETTINGS
------------
Hamiltonian:
 Density Functional     Method          .... DFT(GTOs)
 Exchange Functional    Exchange        .... WB97X-V
 Correlation Functional Correlation     .... WB97X-V
 Gradients option       PostSCFGGA      .... off
 Hybrid DFT is turned on
   Fraction HF Exchange ScalHFX         ....  0.167000
   Scaling of DF-GGA-X  ScalDFX         ....  0.000000
   Scaling of DF-GGA-C  ScalDFC         ....  1.000000
   Scaling of DF-LDA-C  ScalLDAC        ....  1.000000
   Perturbative correction              ....  0.000000
 Long-range corrected/Screened/Range-Separated Hybrid DFT is turned on
   Amount of maximum screened exact exchange              ....  0.833000
   Range separation parameter mu (erf(mu*r12)/r12)        ....  0.300000
   NL short-range parameter             ....  6.000000
   NL long-range parameter              ....  0.010000
 RI-approximation to the Coulomb term is turned on
   Number of AuxJ basis functions       .... 426
   RIJ-COSX (HFX calculated with COS-X)).... on


General Settings:
 Integral files         IntName         .... sp_gas
 Hartree-Fock type      HFTyp           .... RHF
 Total Charge           Charge          ....    0
 Multiplicity           Mult            ....    1
 Number of Electrons    NEL             ....   50
 Basis Dimension        Dim             ....  258
 Nuclear Repulsion      ENuc            ....    267.5578768521 Eh

Convergence Acceleration:
 AO-DIIS                CNVDIIS         .... on
   Start iteration      DIISMaxIt       ....    12
   Startup error        DIISStart       ....  0.200000
   # of expansion vecs  DIISMaxEq       ....     5
   Bias factor          DIISBfac        ....   1.050
   Max. coefficient     DIISMaxC        ....  10.000
 MO-DIIS                CNVKDIIS        .... off
 Trust-Rad. Augm. Hess. CNVTRAH         .... auto
   Auto Start mean grad. ratio tolernc. ....  1.125000
   Auto Start start iteration           ....     1
   Auto Start num. interpolation iter.  ....    10
   Max. Number of Micro iterations      ....    24
   Max. Number of Macro iterations      .... Maxiter - #DIIS iter
   Number of Davidson start vectors     ....     2
   Converg. threshold    (grad. norm)   ....   1.000e-04
   Grad. Scal. Fac. for Micro threshold ....   0.100
   Minimum threshold for Micro iter.    ....   1.000e-02
   NR start threshold (gradient norm)   ....   1.000e-04
   Initial trust radius                 ....   0.400
   Minimum AH scaling param. (alpha)    ....   1.000
   Maximum AH scaling param. (alpha)    .... 1000.000
   Quad. conv. algorithm                .... NR
   White noise on init. David. guess    .... on
   Maximum white noise                  ....   0.010
   Pseudo random numbers                .... off
   Inactive MOs                         .... canonical
   Orbital update algorithm             .... Taylor
   Preconditioner                       .... Diag
   Full preconditioner red. dimension   ....   250
 SOSCF                  CNVSOSCF        .... on
   Start iteration      SOSCFMaxIt      ....   150
   Startup grad/error   SOSCFStart      ....  0.003300
   Hessian update       SOSCFHessUp     .... L-BFGS
 Level Shifting         CNVShift        .... on
   Level shift para.    LevelShift      ....    0.2500
   Turn off err/grad.   ShiftErr        ....    0.0010
 Zerner damping         CNVZerner       .... off
 Static damping         CNVDamp         .... on
   Fraction old density DampFac         ....    0.7000
   Max. Damping (<1)    DampMax         ....    0.9800
   Min. Damping (>=0)   DampMin         ....    0.0000
   Turn off err/grad.   DampErr         ....    0.1000

SCF Procedure:
 Maximum # iterations   MaxIter         ....   125
 SCF integral mode      SCFMode         .... Direct
   Integral package                     .... SHARK and LIBINT hybrid scheme
 Reset frequency        DirectResetFreq ....    20
 Integral Threshold     Thresh          ....  3.000e-11 Eh
 Primitive CutOff       TCut            ....  1.000e-12 Eh

Convergence Tolerance:
 Convergence Check Mode ConvCheckMode   .... Total+1el-Energy
 Convergence forced     ConvForced      .... 0
 Energy Change          TolE            ....  1.000e-07 Eh
 1-El. energy change                    ....  1.000e-04 Eh
 Orbital Gradient       TolG            ....  1.000e-04
 Orbital Rotation angle TolX            ....  1.000e-04
 DIIS Error             TolErr          ....  1.000e-07

---------------------
INITIAL GUESS: MOREAD
---------------------
Guess MOs are being read from file: sp_gas.ges
Input Geometry matches current geometry (good)
Atom 0: N(Shells)= 11 and 9 - projection required
Input basis set needs projection
NBasis(read)= 179
NBasis(calc)= 258
Basis set overlap was calculated
Using GuessMode=FMatrix for the initial guess
C*T matrix was formed
Effective Fockian was calculated
Effective Fockian was diagonalized
Initial density was built
                      ------------------
                      INITIAL GUESS DONE (   0.0 sec)
                      ------------------
             **** ENERGY FILE WAS UPDATED (sp_gas.en.tmp) ****
Finished Guess after   0.3 sec
Maximum memory used throughout the entire GUESS-calculation: 21.7 MB

-------------------------------------------------------------------------------------------
                                      ORCA LEAN-SCF
                              memory conserving SCF solver
-------------------------------------------------------------------------------------------

----------------------------------------D-I-I-S--------------------------------------------
Iteration    Energy (Eh)           Delta-E    RMSDP     MaxDP     DIISErr   Damp  Time(sec)
-------------------------------------------------------------------------------------------
               ***  Starting incremental Fock matrix formation  ***
    1    -273.1892038518800518     0.00e+00  1.00e-03  2.36e-02  4.85e-02  0.700  13.5
    2    -273.1932223157137969    -4.02e-03  8.89e-04  2.20e-02  3.43e-02  0.700   7.0
                               ***Turning on AO-DIIS***
    3    -273.1961824464119672    -2.96e-03  7.31e-04  1.85e-02  2.41e-02  0.700   6.8
    4    -273.1983244745915727    -2.14e-03  1.86e-03  4.78e-02  1.63e-02  0.000   6.8
                              *** Initializing SOSCF ***
---------------------------------------S-O-S-C-F--------------------------------------
Iteration    Energy (Eh)           Delta-E    RMSDP     MaxDP     MaxGrad    Time(sec)
--------------------------------------------------------------------------------------
    5    -273.2038100806018974    -5.49e-03  1.10e-04  2.71e-03  1.76e-03     7.0
               *** Restarting incremental Fock matrix formation ***
    6    -273.2038334679285754    -2.34e-05  4.59e-05  1.11e-03  1.96e-04    13.6
    7    -273.2038359492543123    -2.48e-06  2.22e-05  5.26e-04  1.57e-04    10.4
    8    -273.2038372323752355    -1.28e-06  5.03e-06  1.21e-04  1.83e-05    10.0
                  *** Gradient check signals convergence ***

               *****************************************************
               *                     SUCCESS                       *
               *           SCF CONVERGED AFTER   8 CYCLES          *
               *****************************************************


------------------
NL GRID GENERATION
------------------

General Integration Accuracy     IntAcc      ... 4.004
Radial Grid Type                 RadialGrid  ... OptM3 with GC (2021)
Angular Grid (max. ang.)         AngularGrid ... 2 (Lebedev-110)
Angular grid pruning method      GridPruning ... 4 (adaptive)
Weight generation scheme         WeightScheme... mBecke (2022)
Basis function cutoff            BFCut       ... 1.0000e-10
Integration weight cutoff        WCut        ... 1.0000e-14
Partially contracted basis set               ... off
Rotationally invariant grid construction     ... off
Angular grids for H and He will be reduced by one unit

Total number of grid points                  ...    21921
Total number of batches                      ...      355
Average number of points per batch           ...       61
Average number of grid points per atom       ...     1218
Final grid set up in    0.2 sec

-------------------------------------------------------------------------------
                    post-SCF DFT-NL dispersion correction                      
-------------------------------------------------------------------------------

SCF Energy:     -273.203837232 
NL    Energy:      0.190108031 
SC+NL Energy:   -273.013729202 
NL done in  :              2.0 sec
-------------------------------------------------------------------------------
Recomputing exchange energy using gridx3       ... done (   23.894 sec)
Old exchange energy                            :    -12.923028035 Eh
New exchange energy                            :    -12.923018586 Eh
Exchange energy change after final integration :      0.000009449 Eh
Total energy after final integration           :   -273.013719753 Eh
             **** ENERGY FILE WAS UPDATED (sp_gas.en.tmp) ****

----------------
TOTAL SCF ENERGY
----------------

Total Energy       :       -273.01371975279181 Eh           -7429.08100 eV

Components:
Nuclear Repulsion  :        267.55787685209555 Eh            7280.61997 eV
Electronic Energy  :       -540.76171408447067 Eh          -14714.87433 eV
One Electron Energy:       -898.81245514382033 Eh          -24457.93032 eV
Two Electron Energy:        358.05074105934960 Eh            9743.05599 eV

Virial components:
Potential Energy   :       -544.82123710347560 Eh          -14825.33957 eV
Kinetic Energy     :        271.80751735068378 Eh            7396.25857 eV
Virial Ratio       :          2.00443770802907

DFT components:
N(Alpha)           :       24.999982538248 electrons
N(Beta)            :       24.999982538248 electrons
N(Total)           :       49.999965076497 electrons
E(X)               :      -25.460246621617 Eh       
E(C)               :       -2.012385444985 Eh       
NL Energy, E(C,NL) :        0.190108030765 Eh       
E(XC)              :      -27.282524035836 Eh       

---------------
SCF CONVERGENCE
---------------

  Last Energy change         ...    1.2831e-06  Tolerance :   1.0000e-07
  Last MAX-Density change    ...    1.2111e-04  Tolerance :   1.0000e-05
  Last RMS-Density change    ...    5.0251e-06  Tolerance :   1.0000e-06
  Last DIIS Error            ...    1.7606e-03  Tolerance :   1.0000e-07
  Last Orbital Gradient      ...    1.8307e-05  Tolerance :   1.0000e-04
  Last Orbital Rotation      ...    2.0864e-05  Tolerance :   1.0000e-04


----------------
ORBITAL ENERGIES
----------------

  NO   OCC          E(Eh)            E(eV) 
   0   2.0000     -21.663005      -589.4803 
   1   2.0000     -12.101989      -329.3119 
   2   2.0000     -12.043191      -327.7119 
   3   2.0000     -12.036185      -327.5212 
   4   2.0000     -12.031308      -327.3885 
   5   2.0000     -12.031032      -327.3810 
   6   2.0000      -1.661384       -45.2086 
   7   2.0000      -1.320267       -35.9263 
   8   2.0000      -1.240085       -33.7444 
   9   2.0000      -1.186686       -32.2914 
  10   2.0000      -1.120264       -30.4839 
  11   2.0000      -1.083234       -29.4763 
  12   2.0000      -0.987440       -26.8696 
  13   2.0000      -0.937764       -25.5179 
  14   2.0000      -0.929221       -25.2854 
  15   2.0000      -0.867448       -23.6045 
  16   2.0000      -0.861659       -23.4469 
  17   2.0000      -0.847591       -23.0641 
  18   2.0000      -0.818723       -22.2786 
  19   2.0000      -0.814576       -22.1657 
  20   2.0000      -0.809867       -22.0376 
  21   2.0000      -0.801054       -21.7978 
  22   2.0000      -0.780365       -21.2348 
  23   2.0000      -0.766288       -20.8518 
  24   2.0000      -0.758880       -20.6502 
  25   0.0000      -0.147035        -4.0010 
  26   0.0000      -0.059872        -1.6292 
  27   0.0000      -0.029895        -0.8135 
  28   0.0000      -0.015038        -0.4092 
  29   0.0000      -0.012477        -0.3395 
  30   0.0000      -0.004749        -0.1292 
  31   0.0000       0.017173         0.4673 
  32   0.0000       0.029221         0.7952 
  33   0.0000       0.038945         1.0598 
  34   0.0000       0.045143         1.2284 
  35   0.0000       0.054544         1.4842 
*Only the first 10 virtual orbitals were printed.

                    ********************************
                    * MULLIKEN POPULATION ANALYSIS *
                    ********************************

-----------------------
MULLIKEN ATOMIC CHARGES
-----------------------
   0 C :   -0.358296
   1 C :   -0.195207
   2 C :    0.207326
   3 C :   -0.346673
   4 C :   -0.361487
   5 O :   -0.448261
   6 H :    0.121397
   7 H :    0.114414
   8 H :    0.114003
   9 H :    0.086372
  10 H :    0.091742
  11 H :    0.100586
  12 H :    0.125585
  13 H :    0.107114
  14 H :    0.115983
  15 H :    0.127964
  16 H :    0.105188
  17 H :    0.292250
Sum of atomic charges:    0.0000000

--------------------------------
MULLIKEN REDUCED ORBITAL CHARGES
--------------------------------
  0 C s       :     3.237706  s :     3.237706
      pz      :     1.058551  p :     3.059913
      px      :     1.039172
      py      :     0.962190
      dz2     :     0.015113  d :     0.057337
      dxz     :     0.003546
      dyz     :     0.011618
      dx2y2   :     0.019067
      dxy     :     0.007993
      f0      :     0.000854  f :     0.003340
      f+1     :     0.000156
      f-1     :     0.000411
      f+2     :     0.000114
      f-2     :     0.000294
      f+3     :     0.000779
      f-3     :     0.000731

  1 C s       :     3.193326  s :     3.193326
      pz      :     1.015598  p :     2.903252
      px      :     0.922113
      py      :     0.965542
      dz2     :     0.022708  d :     0.093233
      dxz     :     0.008785
      dyz     :     0.012439
      dx2y2   :     0.025163
      dxy     :     0.024138
      f0      :     0.001058  f :     0.005395
      f+1     :     0.000565
      f-1     :     0.000362
      f+2     :     0.000513
      f-2     :     0.000506
      f+3     :     0.001029
      f-3     :     0.001363

  2 C s       :     3.080808  s :     3.080808
      pz      :     0.663737  p :     2.481638
      px      :     0.888698
      py      :     0.929203
      dz2     :     0.049088  d :     0.215580
      dxz     :     0.046414
      dyz     :     0.043069
      dx2y2   :     0.041417
      dxy     :     0.035593
      f0      :     0.002368  f :     0.014647
      f+1     :     0.003639
      f-1     :     0.003354
      f+2     :     0.000859
      f-2     :     0.000759
      f+3     :     0.001314
      f-3     :     0.002355

  3 C s       :     3.251088  s :     3.251088
      pz      :     1.038360  p :     3.038723
      px      :     1.034579
      py      :     0.965784
      dz2     :     0.015688  d :     0.053558
      dxz     :     0.003704
      dyz     :     0.006270
      dx2y2   :     0.015635
      dxy     :     0.012261
      f0      :     0.000939  f :     0.003304
      f+1     :     0.000100
      f-1     :     0.000399
      f+2     :     0.000218
      f-2     :     0.000204
      f+3     :     0.000824
      f-3     :     0.000621

  4 C s       :     3.243549  s :     3.243549
      pz      :     1.028533  p :     3.063116
      px      :     1.051342
      py      :     0.983241
      dz2     :     0.014701  d :     0.051504
      dxz     :     0.002910
      dyz     :     0.006606
      dx2y2   :     0.018696
      dxy     :     0.008591
      f0      :     0.000895  f :     0.003318
      f+1     :     0.000161
      f-1     :     0.000352
      f+2     :     0.000164
      f-2     :     0.000252
      f+3     :     0.000789
      f-3     :     0.000704

  5 O s       :     3.776310  s :     3.776310
      pz      :     1.330946  p :     4.641858
      px      :     1.777068
      py      :     1.533844
      dz2     :     0.010431  d :     0.028584
      dxz     :     0.004352
      dyz     :     0.005315
      dx2y2   :     0.002844
      dxy     :     0.005642
      f0      :     0.000449  f :     0.001509
      f+1     :     0.000190
      f-1     :     0.000180
      f+2     :     0.000086
      f-2     :     0.000172
      f+3     :     0.000362
      f-3     :     0.000071

  6 H s       :     0.857514  s :     0.857514
      pz      :     0.012540  p :     0.021089
      px      :     0.004212
      py      :     0.004336

  7 H s       :     0.864503  s :     0.864503
      pz      :     0.005885  p :     0.021084
      px      :     0.005169
      py      :     0.010029

  8 H s       :     0.865026  s :     0.865026
      pz      :     0.004647  p :     0.020971
      px      :     0.012134
      py      :     0.004190

  9 H s       :     0.892663  s :     0.892663
      pz      :     0.005047  p :     0.020965
      px      :     0.006106
      py      :     0.009812

 10 H s       :     0.887124  s :     0.887124
      pz      :     0.012655  p :     0.021133
      px      :     0.004197
      py      :     0.004281

 11 H s       :     0.878526  s :     0.878526
      pz      :     0.004853  p :     0.020888
      px      :     0.005954
      py      :     0.010080

 12 H s       :     0.853357  s :     0.853357
      pz      :     0.004942  p :     0.021058
      px      :     0.011982
      py      :     0.004135

 13 H s       :     0.871864  s :     0.871864
      pz      :     0.012608  p :     0.021023
      px      :     0.004210
      py      :     0.004205

 14 H s       :     0.862911  s :     0.862911
      pz      :     0.004662  p :     0.021106
      px      :     0.012285
      py      :     0.004159

 15 H s       :     0.850608  s :     0.850608
      pz      :     0.005648  p :     0.021428
      px      :     0.005271
      py      :     0.010509

 16 H s       :     0.874021  s :     0.874021
      pz      :     0.012366  p :     0.020791
      px      :     0.004143
      py      :     0.004283

 17 H s       :     0.660825  s :     0.660825
      pz      :     0.011869  p :     0.046925
      px      :     0.017070
      py      :     0.017986


------------------------
MULLIKEN OVERLAP CHARGES
------------------------
B(  0-C ,  1-C ) :   0.5845 B(  0-C ,  2-C ) :  -0.0881 B(  0-C ,  6-H ) :   0.8156 
B(  0-C ,  7-H ) :   0.8366 B(  0-C ,  8-H ) :   0.8249 B(  0-C ,  9-H ) :  -0.0602 
B(  0-C , 10-H ) :  -0.0689 B(  1-C ,  2-C ) :   0.7321 B(  1-C ,  3-C ) :  -0.1287 
B(  1-C ,  4-C ) :  -0.1617 B(  1-C ,  6-H ) :  -0.0677 B(  1-C ,  7-H ) :  -0.0740 
B(  1-C ,  8-H ) :  -0.0809 B(  1-C ,  9-H ) :   0.8002 B(  1-C , 10-H ) :   0.8080 
B(  2-C ,  3-C ) :   0.7306 B(  2-C ,  4-C ) :   0.5310 B(  2-C ,  5-O ) :   0.5797 
B(  2-C ,  9-H ) :  -0.0642 B(  2-C , 10-H ) :  -0.0672 B(  2-C , 12-H ) :  -0.0928 
B(  2-C , 13-H ) :  -0.0641 B(  2-C , 14-H ) :  -0.0667 B(  2-C , 15-H ) :  -0.0724 
B(  2-C , 16-H ) :  -0.0527 B(  2-C , 17-H ) :  -0.0663 B(  3-C ,  4-C ) :  -0.1554 
B(  3-C ,  5-O ) :  -0.0676 B(  3-C , 11-H ) :   0.7849 B(  3-C , 12-H ) :   0.8468 
B(  3-C , 13-H ) :   0.8085 B(  4-C ,  5-O ) :  -0.1581 B(  4-C , 14-H ) :   0.8090 
B(  4-C , 15-H ) :   0.8299 B(  4-C , 16-H ) :   0.7882 B(  5-O , 17-H ) :   0.5820 
B(  9-H , 10-H ) :  -0.0525 


                     *******************************
                     * LOEWDIN POPULATION ANALYSIS *
                     *******************************

----------------------
LOEWDIN ATOMIC CHARGES
----------------------
   0 C :   -0.305263
   1 C :   -0.258865
   2 C :   -0.423877
   3 C :   -0.267692
   4 C :   -0.255950
   5 O :   -0.015511
   6 H :    0.120703
   7 H :    0.116297
   8 H :    0.116245
   9 H :    0.132667
  10 H :    0.138087
  11 H :    0.117369
  12 H :    0.123540
  13 H :    0.123255
  14 H :    0.124469
  15 H :    0.124950
  16 H :    0.123777
  17 H :    0.165797

-------------------------------
LOEWDIN REDUCED ORBITAL CHARGES
-------------------------------
  0 C s       :     2.825491  s :     2.825491
      pz      :     1.078385  p :     3.191419
      px      :     1.055529
      py      :     1.057505
      dz2     :     0.064581  d :     0.263546
      dxz     :     0.017277
      dyz     :     0.053927
      dx2y2   :     0.083199
      dxy     :     0.044562
      f0      :     0.003846  f :     0.024807
      f+1     :     0.001777
      f-1     :     0.002352
      f+2     :     0.003479
      f-2     :     0.004548
      f+3     :     0.004346
      f-3     :     0.004459

  1 C s       :     2.777191  s :     2.777191
      pz      :     1.024355  p :     3.049713
      px      :     0.999387
      py      :     1.025972
      dz2     :     0.096121  d :     0.394605
      dxz     :     0.046047
      dyz     :     0.048336
      dx2y2   :     0.093484
      dxy     :     0.110618
      f0      :     0.005232  f :     0.037355
      f+1     :     0.003619
      f-1     :     0.002411
      f+2     :     0.005683
      f-2     :     0.005920
      f+3     :     0.005954
      f-3     :     0.008536

  2 C s       :     2.718065  s :     2.718065
      pz      :     0.801110  p :     2.850244
      px      :     1.018217
      py      :     1.030917
      dz2     :     0.195568  d :     0.757862
      dxz     :     0.147926
      dyz     :     0.138556
      dx2y2   :     0.141161
      dxy     :     0.134652
      f0      :     0.019025  f :     0.097706
      f+1     :     0.021547
      f-1     :     0.019751
      f+2     :     0.008085
      f-2     :     0.007979
      f+3     :     0.007234
      f-3     :     0.014086

  3 C s       :     2.828296  s :     2.828296
      pz      :     1.064669  p :     3.156633
      px      :     1.059570
      py      :     1.032394
      dz2     :     0.074005  d :     0.258535
      dxz     :     0.019232
      dyz     :     0.033363
      dx2y2   :     0.073489
      dxy     :     0.058446
      f0      :     0.003827  f :     0.024228
      f+1     :     0.001049
      f-1     :     0.002568
      f+2     :     0.003997
      f-2     :     0.004229
      f+3     :     0.004514
      f-3     :     0.004044

  4 C s       :     2.822350  s :     2.822350
      pz      :     1.060368  p :     3.154888
      px      :     1.054524
      py      :     1.039996
      dz2     :     0.069647  d :     0.254291
      dxz     :     0.015724
      dyz     :     0.037432
      dx2y2   :     0.085810
      dxy     :     0.045678
      f0      :     0.003813  f :     0.024422
      f+1     :     0.001695
      f-1     :     0.002105
      f+2     :     0.003605
      f-2     :     0.004276
      f+3     :     0.004416
      f-3     :     0.004511

  5 O s       :     3.372089  s :     3.372089
      pz      :     1.355932  p :     4.576536
      px      :     1.697842
      py      :     1.522762
      dz2     :     0.021376  d :     0.062909
      dxz     :     0.012977
      dyz     :     0.016514
      dx2y2   :     0.003382
      dxy     :     0.008660
      f0      :     0.001137  f :     0.003978
      f+1     :     0.000817
      f-1     :     0.000943
      f+2     :     0.000126
      f-2     :     0.000323
      f+3     :     0.000627
      f-3     :     0.000005

  6 H s       :     0.818094  s :     0.818094
      pz      :     0.035109  p :     0.061203
      px      :     0.013087
      py      :     0.013007

  7 H s       :     0.823194  s :     0.823194
      pz      :     0.018055  p :     0.060510
      px      :     0.015857
      py      :     0.026597

  8 H s       :     0.823552  s :     0.823552
      pz      :     0.014712  p :     0.060202
      px      :     0.032425
      py      :     0.013065

  9 H s       :     0.810013  s :     0.810013
      pz      :     0.015695  p :     0.057320
      px      :     0.016593
      py      :     0.025031

 10 H s       :     0.804125  s :     0.804125
      pz      :     0.032495  p :     0.057788
      px      :     0.012543
      py      :     0.012749

 11 H s       :     0.822793  s :     0.822793
      pz      :     0.015128  p :     0.059838
      px      :     0.018299
      py      :     0.026411

 12 H s       :     0.815981  s :     0.815981
      pz      :     0.015270  p :     0.060479
      px      :     0.032827
      py      :     0.012382

 13 H s       :     0.816434  s :     0.816434
      pz      :     0.034587  p :     0.060311
      px      :     0.013073
      py      :     0.012652

 14 H s       :     0.815228  s :     0.815228
      pz      :     0.014353  p :     0.060303
      px      :     0.033215
      py      :     0.012735

 15 H s       :     0.814046  s :     0.814046
      pz      :     0.017088  p :     0.061004
      px      :     0.016100
      py      :     0.027817

 16 H s       :     0.816120  s :     0.816120
      pz      :     0.033851  p :     0.060103
      px      :     0.013214
      py      :     0.013037

 17 H s       :     0.678196  s :     0.678196
      pz      :     0.031336  p :     0.156006
      px      :     0.054464
      py      :     0.070207


---------------------------------
LOEWDIN BOND ORDERS (THRESH 0.050000)
---------------------------------
B(  0-C ,  1-C ) :   1.2770 B(  0-C ,  2-C ) :   0.1296 B(  0-C ,  6-H ) :   0.9045 
B(  0-C ,  7-H ) :   0.9051 B(  0-C ,  8-H ) :   0.9065 B(  0-C ,  9-H ) :   0.0740 
B(  0-C , 10-H ) :   0.0740 B(  1-C ,  2-C ) :   1.1218 B(  1-C ,  3-C ) :   0.1487 
B(  1-C ,  4-C ) :   0.1307 B(  1-C ,  5-O ) :   0.1082 B(  1-C ,  6-H ) :   0.0765 
B(  1-C ,  7-H ) :   0.0760 B(  1-C ,  8-H ) :   0.0827 B(  1-C ,  9-H ) :   0.8389 
B(  1-C , 10-H ) :   0.8388 B(  2-C ,  3-C ) :   1.1887 B(  2-C ,  4-C ) :   1.1868 
B(  2-C ,  5-O ) :   1.4123 B(  2-C ,  9-H ) :   0.0791 B(  2-C , 10-H ) :   0.0762 
B(  2-C , 11-H ) :   0.0800 B(  2-C , 12-H ) :   0.0782 B(  2-C , 13-H ) :   0.0782 
B(  2-C , 14-H ) :   0.0805 B(  2-C , 15-H ) :   0.0785 B(  2-C , 16-H ) :   0.0800 
B(  2-C , 17-H ) :   0.0897 B(  3-C ,  4-C ) :   0.1462 B(  3-C ,  5-O ) :   0.1166 
B(  3-C , 11-H ) :   0.8961 B(  3-C , 12-H ) :   0.8978 B(  3-C , 13-H ) :   0.8952 
B(  4-C ,  5-O ) :   0.1155 B(  4-C , 14-H ) :   0.8943 B(  4-C , 15-H ) :   0.8931 
B(  4-C , 16-H ) :   0.8943 B(  5-O , 17-H ) :   1.0267 

------------------------------------------
LOEWDIN REDUCED ORBITAL POPULATIONS PER MO
-------------------------------------------
THRESHOLD FOR PRINTING IS 0.1%%
                      0         1         2         3         4         5   
                 -21.66301 -12.10199 -12.04319 -12.03618 -12.03131 -12.03103
                   2.00000   2.00000   2.00000   2.00000   2.00000   2.00000
                  --------  --------  --------  --------  --------  --------
 0 C  s               0.0       0.0       0.3       0.0      91.0       8.3
 1 C  s               0.0       0.0      99.1       0.1       0.3       0.0
 2 C  s               0.0      99.2       0.0       0.0       0.0       0.0
 3 C  s               0.0       0.0       0.1      99.3       0.1       0.1
 4 C  s               0.0       0.0       0.0       0.1       8.2      91.2
 5 O  s              99.9       0.0       0.0       0.0       0.0       0.0

                      6         7         8         9        10        11   
                  -1.66138  -1.32027  -1.24009  -1.18669  -1.12026  -1.08323
                   2.00000   2.00000   2.00000   2.00000   2.00000   2.00000
                  --------  --------  --------  --------  --------  --------
 0 C  s               0.0       4.3      20.0       0.0      13.2       3.0
 0 C  pz              0.0       0.1       0.2       0.0       0.1       0.4
 0 C  px              0.1       0.9       0.3       0.1       1.1       0.5
 0 C  py              0.1       1.3       1.5       0.0       2.3       1.7
 0 C  dx2y2           0.0       0.0       0.1       0.0       0.0       0.1
 0 C  dxy             0.0       0.3       0.2       0.0       0.4       0.1
 1 C  s               0.3      13.5      13.2       0.2       5.1       3.6
 1 C  pz              0.5       0.2       0.2       0.0       0.1       1.2
 1 C  px              0.7       2.0       4.1       0.0       3.8       0.1
 1 C  py              0.0       0.2       2.5       1.0       4.9       1.7
 1 C  dz2             0.0       0.3       0.0       0.0       0.2       0.0
 1 C  dxz             0.2       0.0       0.1       0.0       0.4       0.2
 1 C  dyz             0.0       0.0       0.1       0.0       0.1       0.1
 1 C  dx2y2           0.0       0.3       0.4       0.0       0.3       0.0
 1 C  dxy             0.0       0.1       0.3       0.4       0.5       0.2
 1 C  f+3             0.0       0.1       0.1       0.0       0.0       0.0
 2 C  s               5.6      19.2       2.2       0.0       2.3       1.8
 2 C  pz              9.3       3.2       0.2       0.1       0.4       9.4
 2 C  px              0.0       0.2       9.4       0.3       8.3       1.3
 2 C  py              0.0       0.0       0.2      19.4       0.0       0.0
 2 C  dz2             4.0       1.2       0.0       0.0       0.0       0.5
 2 C  dxz             0.0       0.0       0.3       0.0       0.5       0.0
 2 C  dyz             0.0       0.0       0.0       0.7       0.0       0.4
 2 C  dx2y2           0.0       0.0       1.1       0.0       0.8       0.0
 2 C  dxy             0.0       0.0       0.1       1.9       0.1       0.2
 2 C  f0              0.6       0.0       0.0       0.0       0.0       0.0
 2 C  f+3             0.0       0.2       0.0       0.0       0.0       0.0
 3 C  s               0.4       8.0       6.0      18.9       5.6       0.3
 3 C  pz              0.5       0.1       0.0       0.0       0.2       0.6
 3 C  px              0.1       0.8       0.1       0.1       1.2       0.1
 3 C  py              0.5       2.5       0.4       0.6       0.6       0.2
 3 C  dz2             0.0       0.2       0.0       0.0       0.0       0.0
 3 C  dyz             0.2       0.1       0.0       0.0       0.0       0.3
 3 C  dx2y2           0.0       0.1       0.1       0.1       0.0       0.0
 3 C  dxy             0.0       0.3       0.0       0.0       0.3       0.0
 4 C  s               0.3       8.0       4.8      19.0       3.9       3.6
 4 C  pz              0.5       0.1       0.0       0.0       0.2       1.7
 4 C  px              0.2       1.1       0.2       0.0       0.7       0.2
 4 C  py              0.5       2.3       0.5       0.5       0.3       1.1
 4 C  dz2             0.0       0.2       0.0       0.0       0.0       0.0
 4 C  dxz             0.1       0.0       0.0       0.0       0.1       0.2
 4 C  dyz             0.2       0.0       0.0       0.0       0.0       0.5
 4 C  dx2y2           0.0       0.1       0.2       0.1       0.0       0.1
 4 C  dxy             0.0       0.4       0.0       0.0       0.3       0.0
 5 O  s              58.5       2.3       0.1       0.0       0.2       0.0
 5 O  pz              0.3       6.1       1.4       0.2       4.8      25.6
 5 O  px              0.2       0.0       0.3       0.1       0.2       3.1
 5 O  py              0.5       0.3       0.1       1.3       0.5       8.1
 5 O  dz2             0.0       0.2       0.1       0.0       0.1       0.5
 5 O  dxy             0.0       0.0       0.0       0.0       0.0       0.1
 6 H  s               0.0       0.7       4.1       0.0       4.9       1.6
 6 H  pz              0.0       0.1       0.4       0.0       0.5       0.2
 7 H  s               0.0       0.7       4.1       0.0       5.3       1.4
 7 H  pz              0.0       0.0       0.1       0.0       0.1       0.1
 7 H  py              0.0       0.1       0.3       0.0       0.3       0.1
 8 H  s               0.0       0.7       4.4       0.0       5.3       1.3
 8 H  px              0.0       0.1       0.4       0.0       0.4       0.1
 9 H  s               0.1       2.4       2.9       0.1       2.3       1.9
 9 H  px              0.0       0.1       0.0       0.0       0.2       0.0
 9 H  py              0.0       0.1       0.3       0.0       0.1       0.1
10 H  s               0.0       2.4       2.8       0.1       1.9       2.6
10 H  pz              0.0       0.2       0.3       0.0       0.2       0.2
11 H  s               0.1       1.4       1.2       5.6       1.9       0.2
11 H  px              0.0       0.0       0.0       0.1       0.1       0.0
11 H  py              0.0       0.1       0.1       0.4       0.1       0.0
12 H  s               0.1       1.3       1.4       4.9       2.5       0.1
12 H  px              0.0       0.1       0.2       0.4       0.2       0.0
13 H  s               0.0       1.4       1.3       5.1       2.2       0.4
13 H  pz              0.0       0.1       0.1       0.5       0.2       0.0
14 H  s               0.1       1.4       1.1       4.9       1.8       1.3
14 H  px              0.0       0.1       0.1       0.5       0.1       0.1
15 H  s               0.1       1.4       0.9       5.4       1.4       1.4
15 H  pz              0.0       0.0       0.0       0.1       0.0       0.1
15 H  py              0.0       0.1       0.1       0.4       0.1       0.0
16 H  s               0.0       1.4       1.0       5.0       1.6       2.6
16 H  pz              0.0       0.1       0.1       0.5       0.1       0.2
17 H  s              11.7       1.5       0.3       0.2       0.9       9.9
17 H  pz              0.4       0.0       0.0       0.0       0.0       0.1
17 H  px              0.7       0.1       0.0       0.0       0.0       0.1
17 H  py              2.1       0.2       0.0       0.0       0.0       0.4

                     12        13        14        15        16        17   
                  -0.98744  -0.93776  -0.92922  -0.86745  -0.86166  -0.84759
                   2.00000   2.00000   2.00000   2.00000   2.00000   2.00000
                  --------  --------  --------  --------  --------  --------
 0 C  s               0.6       0.1       0.0       0.1       0.0       0.1
 0 C  pz              0.7       0.0       1.2      11.7       0.4      11.4
 0 C  px              0.2       0.1       1.2       6.4       1.5       8.2
 0 C  py              2.9       2.7       0.3       0.3       8.0       5.1
 0 C  dxz             0.0       0.0       0.0       0.3       0.1       0.0
 0 C  dyz             0.1       0.0       0.1       0.1       0.1       0.0
 0 C  dx2y2           0.2       0.2       0.1       0.0       0.0       0.1
 0 C  dxy             0.0       0.0       0.0       0.0       0.0       0.3
 1 C  s               2.0       0.4       0.2       0.1       0.0       0.3
 1 C  pz              1.6       0.8       4.0       7.6       1.2      15.8
 1 C  px              4.1       7.5       3.3       0.1       7.1       0.0
 1 C  py              0.3       1.7       0.6      13.7       0.1       2.2
 1 C  dz2             0.1       0.2       0.0       0.2       0.0       0.3
 1 C  dxz             0.1       0.1       0.2       0.3       0.1       0.3
 1 C  dyz             0.0       0.1       0.0       0.0       0.0       0.2
 1 C  dx2y2           0.3       0.3       0.0       0.1       0.1       0.0
 1 C  dxy             0.2       0.0       0.1       0.0       0.1       0.2
 2 C  s               3.0       1.8       0.1       0.1       0.1       0.0
 2 C  pz              0.3      13.0       0.4       0.8       0.1       0.7
 2 C  px              0.3       0.0       9.5       0.4       5.5       0.2
 2 C  py              1.3       1.7       2.4       5.9       1.3       2.1
 2 C  dz2             0.1       0.1       0.0       0.1       0.0       1.0
 2 C  dxz             0.7       0.0       1.4       0.1       2.6       0.1
 2 C  dyz             1.5       0.3       0.5       0.7       0.1       0.4
 2 C  dx2y2           0.0       0.0       0.1       0.0       0.6       0.1
 2 C  dxy             0.0       0.1       0.0       0.6       0.0       0.2
 2 C  f+1             0.1       0.0       0.2       0.0       0.2       0.2
 2 C  f-1             0.2       0.0       0.1       0.1       0.0       0.1
 3 C  s               1.3       0.1       0.6       0.1       0.0       0.0
 3 C  pz              1.1       1.6       2.3       0.2       0.5       0.4
 3 C  px              1.6       0.4       0.1       8.3       9.9       2.5
 3 C  py              3.8       4.6       7.1       1.4       5.5       0.8
 3 C  dz2             0.0       0.2       0.0       0.1       0.0       0.0
 3 C  dxz             0.1       0.1       0.0       0.1       0.1       0.0
 3 C  dyz             0.1       0.1       0.2       0.0       0.0       0.0
 3 C  dx2y2           0.1       0.2       0.2       0.0       0.0       0.0
 3 C  dxy             0.3       0.2       0.0       0.0       0.0       0.0
 4 C  s               0.1       1.1       0.0       0.1       0.1       0.0
 4 C  pz              0.3       0.0       0.0       1.0       0.6       1.2
 4 C  px              0.3       5.3       1.2       3.8       1.8       2.8
 4 C  py              0.7       8.9       2.5       0.3      11.9       0.0
 4 C  dz2             0.2       0.1       0.0       0.0       0.1       0.1
 4 C  dxz             0.0       0.0       0.1       0.0       0.0       0.0
 4 C  dx2y2           0.0       0.1       0.2       0.0       0.0       0.0
 4 C  dxy             0.1       0.6       0.0       0.0       0.1       0.0
 5 O  s               4.9       1.6       0.0       0.4       0.1       0.0
 5 O  pz              2.4      18.3       0.0       2.5       0.0       1.1
 5 O  px             10.7       1.0      36.5       0.4      14.9      11.6
 5 O  py             30.8       7.6      11.5       4.7       1.2       3.7
 5 O  dxz             0.0       0.0       0.1       0.0       0.1       0.0
 5 O  dyz             0.0       0.0       0.0       0.1       0.0       0.1
 5 O  dxy             0.2       0.0       0.0       0.0       0.0       0.0
 6 H  s               0.9       0.1       0.6       5.2       0.0       3.3
 6 H  pz              0.1       0.0       0.0       0.1       0.0       0.1
 6 H  py              0.0       0.0       0.0       0.0       0.1       0.1
 7 H  s               0.8       0.9       0.0       1.3       4.2       2.9
 7 H  px              0.0       0.0       0.0       0.0       0.0       0.3
 7 H  py              0.0       0.0       0.0       0.2       0.1       0.0
 8 H  s               0.3       0.0       0.4       1.6       0.5       5.7
 8 H  pz              0.0       0.0       0.0       0.2       0.0       0.0
 8 H  px              0.0       0.0       0.0       0.0       0.0       0.1
 8 H  py              0.0       0.0       0.0       0.0       0.1       0.1
 9 H  s               1.8       3.8       0.5       6.0       1.4       0.2
 9 H  pz              0.1       0.0       0.1       0.0       0.0       0.1
 9 H  px              0.0       0.0       0.0       0.2       0.0       0.0
 9 H  py              0.1       0.2       0.0       0.1       0.1       0.1
10 H  s               2.5       0.0       2.0       3.2       0.2       7.7
10 H  pz              0.2       0.0       0.1       0.1       0.0       0.1
10 H  px              0.0       0.1       0.0       0.0       0.1       0.0
10 H  py              0.0       0.0       0.0       0.2       0.0       0.0
11 H  s               1.1       1.7       2.1       0.1       5.7       0.0
11 H  py              0.0       0.0       0.0       0.1       0.1       0.0
12 H  s               1.7       0.8       0.2       3.6       2.9       1.5
13 H  s               1.6       0.1       1.7       0.3       0.1       0.0
13 H  px              0.0       0.0       0.0       0.1       0.1       0.0
14 H  s               0.3       3.3       0.3       1.3       0.9       0.9
14 H  px              0.0       0.1       0.0       0.0       0.0       0.0
14 H  py              0.0       0.1       0.0       0.0       0.1       0.0
15 H  s               0.3       2.6       1.3       0.1       4.5       0.4
15 H  pz              0.0       0.1       0.0       0.0       0.1       0.0
15 H  px              0.0       0.2       0.0       0.0       0.0       0.0
16 H  s               0.0       0.6       0.1       0.7       0.9       0.6
16 H  py              0.0       0.1       0.0       0.0       0.1       0.0
17 H  s               6.8       0.1       0.0       0.7       0.4       0.1
17 H  pz              0.3       0.5       0.0       0.1       0.0       0.0
17 H  px              0.0       0.0       0.9       0.0       0.3       0.4
17 H  py              0.0       0.1       0.2       0.0       0.1       0.1

                     18        19        20        21        22        23   
                  -0.81872  -0.81458  -0.80987  -0.80105  -0.78037  -0.76629
                   2.00000   2.00000   2.00000   2.00000   2.00000   2.00000
                  --------  --------  --------  --------  --------  --------
 0 C  s               0.0       0.1       0.0       0.2       0.0       0.0
 0 C  pz              0.5       0.0       0.5       2.7       8.1      15.8
 0 C  px              2.2       8.1      11.8       0.4       0.7       0.3
 0 C  py              0.9       0.0       3.6      12.8       2.8       3.7
 0 C  dz2             0.0       0.0       0.2       0.1       0.6       1.9
 0 C  dyz             0.0       0.0       0.0       0.0       0.2       1.7
 0 C  dx2y2           0.1       0.2       0.6       0.1       0.0       0.1
 0 C  dxy             0.0       0.0       0.0       0.2       0.0       0.0
 0 C  f-2             0.0       0.0       0.0       0.0       0.0       0.1
 1 C  pz              0.2       0.3       0.0       0.9       4.3      12.4
 1 C  px              0.1       0.1       0.5       1.4       1.1       0.5
 1 C  py              0.1       2.4       0.0      11.5       1.9       2.5
 1 C  dz2             0.0       0.0       0.1       0.3       0.8       2.0
 1 C  dyz             0.0       0.0       0.1       0.0       0.2       1.3
 1 C  dx2y2           0.1       0.2       0.6       0.1       0.0       0.1
 1 C  dxy             0.0       0.1       0.0       0.9       1.0       0.4
 1 C  f-2             0.0       0.0       0.0       0.0       0.0       0.1
 1 C  f-3             0.0       0.1       0.1       0.0       0.0       0.0
 2 C  s               0.1       0.1       0.1       0.1       0.0       0.0
 2 C  pz              1.5       0.3       0.1       0.0       0.1       0.1
 2 C  px              0.2       0.3       0.2       0.5       0.0       2.0
 2 C  py              0.8       3.0       0.9       0.0       9.5       2.6
 2 C  dz2             1.9       0.4       0.0       0.0       0.1       0.2
 2 C  dxz             0.0       0.2       0.0       0.1       0.3       0.1
 2 C  dyz             0.0       0.3       0.9       0.0       0.8       0.2
 2 C  dx2y2           0.0       0.6       0.9       0.3       0.1       0.8
 2 C  dxy             0.1       0.9       0.1       0.0       1.5       0.7
 2 C  f+1             0.2       0.0       0.0       0.0       0.0       0.1
 2 C  f-1             0.1       0.2       0.1       0.0       0.0       0.0
 2 C  f-2             0.0       0.0       0.1       0.0       0.2       0.0
 2 C  f-3             0.0       0.0       0.1       0.5       0.0       0.0
 3 C  s               0.0       0.0       0.0       0.0       0.4       0.1
 3 C  pz             32.2       2.3      10.5       0.1       0.1       0.5
 3 C  px              0.1       1.0       0.2      20.9       0.1       1.3
 3 C  py              0.1       0.8       1.9       2.6      15.8       2.4
 3 C  dz2             2.2       0.1       0.7       0.0       0.2       0.0
 3 C  dxz             0.0       0.0       0.0       0.3       0.0       0.0
 3 C  dyz             0.1       0.0       0.1       0.0       0.2       0.0
 3 C  dx2y2           0.0       0.1       0.0       1.6       0.1       0.0
 3 C  dxy             0.0       0.0       0.0       0.6       0.4       0.0
 4 C  s               0.0       0.1       0.1       0.1       0.1       0.0
 4 C  pz              7.5      34.0       5.5       0.0       0.2       0.1
 4 C  px              2.8       3.2      17.7       2.3       1.0       0.6
 4 C  py              0.0       0.6       0.0       3.1      13.9       3.3
 4 C  dz2             0.6       1.3       0.6       0.0       0.1       0.0
 4 C  dyz             0.0       0.3       0.0       0.0       0.3       0.1
 4 C  dx2y2           0.1       0.2       0.6       0.2       1.1       0.5
 4 C  dxy             0.0       0.0       0.0       0.1       0.3       0.1
 5 O  s               0.1       0.2       0.0       0.0       0.1       0.0
 5 O  pz              3.6       0.3       0.2       0.1       0.5       0.2
 5 O  px              2.1       0.0       0.1       0.1       0.1       1.8
 5 O  py              3.0       1.2       0.2       0.0       1.2       0.4
 5 O  dyz             0.0       0.1       0.0       0.0       0.2       0.0
 6 H  s               0.1       0.1       0.9       2.5       5.7      10.1
 6 H  pz              0.0       0.0       0.0       0.1       0.1       0.1
 6 H  px              0.0       0.1       0.1       0.0       0.0       0.0
 6 H  py              0.0       0.0       0.0       0.1       0.0       0.1
 7 H  s               1.3       0.5       3.2       2.4       0.1       7.1
 7 H  pz              0.0       0.0       0.1       0.1       0.1       0.0
 7 H  px              0.0       0.0       0.0       0.0       0.0       0.1
 7 H  py              0.0       0.0       0.1       0.0       0.1       0.1
 8 H  s               0.9       4.3       7.5       0.1       0.0       1.1
 8 H  pz              0.0       0.0       0.0       0.0       0.1       0.2
 8 H  px              0.0       0.1       0.1       0.0       0.0       0.0
 8 H  py              0.0       0.0       0.0       0.2       0.0       0.1
 9 H  s               0.1       0.6       0.1       2.5       0.0       5.3
 9 H  px              0.0       0.0       0.0       0.1       0.0       0.1
10 H  s               0.1       0.1       0.1       1.4       4.0       9.1
10 H  py              0.0       0.0       0.0       0.2       0.0       0.1
11 H  s               2.2       0.3       2.4       7.7       6.3       0.2
11 H  pz              0.2       0.0       0.1       0.1       0.0       0.0
11 H  px              0.1       0.0       0.1       0.0       0.1       0.0
11 H  py              0.1       0.0       0.0       0.2       0.0       0.0
12 H  s               2.5       0.9       1.2      11.6       0.2       0.6
12 H  pz              0.2       0.0       0.1       0.1       0.0       0.0
12 H  px              0.2       0.0       0.1       0.1       0.0       0.0
12 H  py              0.0       0.0       0.0       0.0       0.2       0.0
13 H  s              18.9       1.3       5.8       0.0       0.2       0.1
13 H  pz              0.3       0.0       0.1       0.0       0.0       0.0
13 H  px              0.0       0.0       0.0       0.3       0.0       0.0
13 H  py              0.0       0.0       0.0       0.0       0.2       0.0
14 H  s               3.1       0.1      12.1       1.5       1.2       0.7
14 H  pz              0.0       0.5       0.0       0.0       0.0       0.0
14 H  px              0.1       0.0       0.2       0.1       0.0       0.0
14 H  py              0.0       0.0       0.0       0.0       0.2       0.0
15 H  s               0.2       7.5       0.2       2.3       8.5       2.3
15 H  pz              0.1       0.1       0.1       0.0       0.1       0.0
15 H  px              0.0       0.0       0.2       0.0       0.0       0.0
15 H  py              0.0       0.4       0.0       0.0       0.0       0.0
16 H  s               4.5      17.5       4.1       0.1       0.0       0.0
16 H  pz              0.1       0.3       0.1       0.0       0.0       0.0
16 H  px              0.0       0.1       0.2       0.0       0.0       0.0
16 H  py              0.0       0.0       0.0       0.0       0.2       0.0
17 H  s               0.1       0.6       0.0       0.0       0.2       0.0

                     24        25        26        27        28        29   
                  -0.75888  -0.14703  -0.05987  -0.02990  -0.01504  -0.01248
                   2.00000   0.00000   0.00000   0.00000   0.00000   0.00000
                  --------  --------  --------  --------  --------  --------
 0 C  s               0.0       0.2       0.5       5.5       1.4       1.0
 0 C  pz              0.0       0.0       0.1       1.2       0.3       0.3
 0 C  px              8.9       0.1       0.0       1.4       0.2       0.3
 0 C  py              2.9       0.2       0.1       5.5       0.0       0.6
 0 C  dz2             0.1       0.0       0.0       2.3       0.9       0.0
 0 C  dxz             0.0       0.0       0.0       0.1       0.0       0.3
 0 C  dyz             0.1       0.0       0.1       0.3       0.4       0.3
 0 C  dx2y2           2.4       0.0       1.1       0.0       0.9       0.2
 0 C  dxy             0.5       0.0       0.0       3.2       0.6       1.0
 0 C  f+3             0.0       0.0       0.0       0.3       0.0       0.0
 0 C  f-3             0.1       0.0       0.0       0.1       0.0       0.0
 1 C  s               0.3       0.1       1.1       5.1       2.4       4.4
 1 C  pz              0.1       0.1       0.4       1.2       2.5       2.2
 1 C  px             13.1       0.2       2.4       0.1       9.9       1.2
 1 C  py              4.0       0.0       2.4       4.4       0.7       0.0
 1 C  dz2             0.0       1.4       0.4       1.6       1.9       0.2
 1 C  dxz             0.1       3.0       0.7       0.0       1.5       0.2
 1 C  dyz             0.0       0.0       0.5       0.4       0.3       0.1
 1 C  dx2y2           1.6       0.0       1.0       0.0       6.2       0.1
 1 C  dxy             1.0       0.0       0.4       6.9       1.4       0.2
 1 C  f0              0.0       0.1       0.0       0.1       0.0       0.1
 1 C  f+1             0.0       0.1       0.0       0.0       0.1       0.0
 1 C  f+2             0.1       0.2       0.1       0.0       0.1       0.0
 1 C  f-2             0.0       0.0       0.0       0.3       0.1       0.0
 1 C  f+3             0.0       0.0       0.0       0.4       0.3       0.0
 2 C  s               0.1       5.2       2.9       1.1      10.2       2.1
 2 C  pz              0.0      28.7       0.3       0.3       1.8       0.5
 2 C  px             12.2       0.0       0.2       2.0       2.8       9.2
 2 C  py              0.2       0.0       0.9       6.1       2.5       0.8
 2 C  dz2             0.0       6.9       0.0       0.5       1.9       0.1
 2 C  dxz             0.8       0.1       0.1       0.0       0.2       1.1
 2 C  dyz             0.0       0.0       0.2       0.6       0.3       0.1
 2 C  dx2y2           1.4       0.0       0.0       0.9       1.4       6.2
 2 C  dxy             0.3       0.0       0.4       7.5       1.6       0.2
 2 C  f0              0.0       1.7       0.0       0.1       0.2       0.0
[...]
 5 O  dyz             0.1       0.6       0.3       4.8       1.4       3.7
 5 O  dx2y2           3.2       0.9       0.1       0.0       0.1       0.2
 5 O  dxy             0.9       3.0       0.0       0.1       0.2       0.5
 5 O  f0              0.0       0.0       0.0       0.0      15.8      16.3
 5 O  f+1             0.0       0.9       0.0      42.1      10.4      12.4
 5 O  f-1             0.1       1.3       0.3      22.9      16.7      27.7
 5 O  f+2            21.0       5.6      46.5       0.2       6.0       0.0
 5 O  f-2             3.7      32.4      15.0       0.0      13.0       0.1
 5 O  f+3             0.5      38.9       0.1       0.1       2.9       2.8
 5 O  f-3            62.4       0.5      26.9       0.0       0.0       0.0
10 H  s               0.0       0.0       0.0       0.1       0.0       0.1
13 H  s               0.0       0.0       0.0       0.1       0.0       0.1
15 H  s               0.1       0.0       0.0       0.0       0.0       0.0
16 H  s               0.0       0.1       0.0       0.0       0.2       0.0
17 H  s               0.0       0.3       0.0       0.0       0.6       0.5
17 H  pz              0.0       0.9       0.0       0.0       0.4       1.7
17 H  px              0.5       0.0       1.7       0.0       0.1       0.0
17 H  py              0.2       0.0       0.6       0.0       0.2       0.1

                    246       247       248       249       250       251   
                   5.86356   6.03180   6.31432   6.39825   6.57419   6.78041
                   0.00000   0.00000   0.00000   0.00000   0.00000   0.00000
                  --------  --------  --------  --------  --------  --------
 1 C  s               0.0       0.3       0.1       0.0       0.0       0.0
 1 C  pz              0.1       0.1       0.0       0.2       0.0       0.0
 1 C  px              0.0       0.1       0.1       0.0       0.1       0.0
 2 C  s               0.1       0.0       0.2       0.0       0.8       0.0
 2 C  pz              0.1       0.0       0.5       0.0       3.1       0.0
 2 C  px              0.0       0.1       0.1       0.5       0.0       0.1
 2 C  py              0.2       0.1       0.1       0.2       0.1       0.2
 2 C  dz2             0.7       0.0       0.4       0.0       1.9       0.0
 2 C  dxz             0.1       0.0       0.3       1.7       0.0       0.2
 2 C  dyz             0.1       0.0       0.8       0.5       0.1       0.5
 2 C  dx2y2           0.2       0.9       0.0       0.1       0.0       0.1
 2 C  dxy             1.0       0.2       0.0       0.0       0.0       0.3
 2 C  f0              0.2       0.0       0.0       0.0       0.2       0.1
 2 C  f+1             0.1       0.0       0.1       1.0       0.0       0.2
 2 C  f-1             0.1       0.0       0.3       0.3       0.0       0.5
 2 C  f-2             0.2       0.0       0.0       0.0       0.0       0.0
 3 C  s               0.1       0.2       0.1       0.0       0.1       0.0
 3 C  pz              0.1       0.1       0.0       0.2       0.0       0.0
 4 C  s               0.1       0.0       0.1       0.0       0.1       0.0
 4 C  pz              0.1       0.0       0.1       0.0       0.0       0.0
 4 C  py              0.0       0.0       0.0       0.0       0.1       0.0
 4 C  dz2             0.1       0.0       0.0       0.0       0.0       0.1
 4 C  dyz             0.2       0.0       0.0       0.0       0.0       0.0
 5 O  s               4.5       0.0       1.8       0.0       2.5       3.5
 5 O  pz              0.0       0.0       0.1       0.0       3.2       0.5
 5 O  px              0.8       0.0       0.9       0.9       0.0       0.5
 5 O  py              2.2       0.0       2.5       0.3       0.1       1.4
 5 O  dz2             0.6       0.0       0.6       0.5      74.4       3.3
 5 O  dxz             1.1       0.5      12.4      60.7       0.1       8.3
 5 O  dyz             5.2       0.0      31.4      19.7       4.0      26.8
 5 O  dx2y2          10.2      72.2       6.0       0.4       0.0       4.6
 5 O  dxy            32.7      20.6      28.7       0.0       0.1      11.8
 5 O  f0              8.9       0.0       2.6       0.1       7.8       3.9
 5 O  f+1             0.0       0.1       0.3       8.2       0.1       1.9
 5 O  f-1             0.0       0.0       0.6       2.8       0.0       6.2
 5 O  f+2             3.7       0.2       0.2       0.5       0.0       1.3
 5 O  f-2            11.9       0.0       0.2       0.1       0.0       4.7
 5 O  f+3             6.9       0.0       5.3       0.0       0.3       9.8
 5 O  f-3             0.0       2.9       0.0       0.0       0.0       0.0
17 H  s               4.6       0.0       2.0       0.0       0.0       8.0
17 H  pz              0.0       0.0       0.2       0.0       0.1       0.1
17 H  px              0.5       0.3       0.0       0.0       0.0       0.1
17 H  py              1.5       0.1       0.1       0.0       0.1       0.4

                    252       253       254       255       256       257   
                  20.73363  20.78683  20.83295  20.89539  21.01015  41.70592
                   0.00000   0.00000   0.00000   0.00000   0.00000   0.00000
                  --------  --------  --------  --------  --------  --------
 0 C  s              85.0       1.0      11.5       1.0       0.0       0.0
 1 C  s               1.0       5.0       0.3      85.7       6.6       0.0
 2 C  s               0.1       3.9       0.3       4.3      90.1       0.2
 2 C  px              0.0       0.0       0.0       0.1       0.0       0.0
 2 C  py              0.0       0.0       0.2       0.0       0.0       0.0
 3 C  s               4.4      72.3      15.0       5.5       1.2       0.0
 4 C  s               8.1      16.2      71.2       2.0       0.9       0.0
 5 O  s               0.0       0.0       0.0       0.0       0.2      99.7
 5 O  pz              0.0       0.0       0.0       0.0       0.3       0.0
 5 O  dz2             0.0       0.0       0.0       0.0       0.1       0.0
 6 H  s               0.2       0.0       0.0       0.0       0.0       0.0
 6 H  pz              0.1       0.0       0.0       0.0       0.0       0.0
 7 H  s               0.2       0.0       0.0       0.0       0.0       0.0
 8 H  s               0.2       0.0       0.0       0.0       0.0       0.0
 9 H  s               0.0       0.0       0.0       0.2       0.0       0.0
10 H  s               0.0       0.0       0.0       0.2       0.0       0.0
11 H  s               0.0       0.2       0.0       0.0       0.0       0.0
12 H  s               0.0       0.2       0.0       0.0       0.0       0.0
13 H  s               0.0       0.2       0.0       0.0       0.0       0.0
14 H  s               0.0       0.0       0.2       0.0       0.0       0.0
15 H  s               0.0       0.1       0.2       0.0       0.0       0.0
16 H  s               0.0       0.0       0.2       0.0       0.0       0.0



                      *****************************
                      * MAYER POPULATION ANALYSIS *
                      *****************************

  NA   - Mulliken gross atomic population
  ZA   - Total nuclear charge
  QA   - Mulliken gross atomic charge
  VA   - Mayer's total valence
  BVA  - Mayer's bonded valence
  FA   - Mayer's free valence

  ATOM       NA         ZA         QA         VA         BVA        FA
  0 C      6.3583     6.0000    -0.3583     3.9059     3.9059     0.0000
  1 C      6.1952     6.0000    -0.1952     3.8944     3.8944    -0.0000
  2 C      5.7927     6.0000     0.2073     3.9132     3.9132     0.0000
  3 C      6.3467     6.0000    -0.3467     3.9088     3.9088     0.0000
  4 C      6.3615     6.0000    -0.3615     3.8531     3.8531     0.0000
  5 O      8.4483     8.0000    -0.4483     1.9541     1.9541     0.0000
  6 H      0.8786     1.0000     0.1214     0.9937     0.9937     0.0000
  7 H      0.8856     1.0000     0.1144     0.9701     0.9701     0.0000
  8 H      0.8860     1.0000     0.1140     0.9717     0.9717    -0.0000
  9 H      0.9136     1.0000     0.0864     0.9779     0.9779    -0.0000
 10 H      0.9083     1.0000     0.0917     0.9782     0.9782     0.0000
 11 H      0.8994     1.0000     0.1006     0.9821     0.9821     0.0000
 12 H      0.8744     1.0000     0.1256     0.9799     0.9799    -0.0000
 13 H      0.8929     1.0000     0.1071     0.9789     0.9789     0.0000
 14 H      0.8840     1.0000     0.1160     0.9847     0.9847    -0.0000
 15 H      0.8720     1.0000     0.1280     0.9788     0.9788     0.0000
 16 H      0.8948     1.0000     0.1052     0.9749     0.9749     0.0000
 17 H      0.7078     1.0000     0.2922     0.9328     0.9328     0.0000

  Mayer bond orders larger than 0.100000
B(  0-C ,  1-C ) :   0.9786 B(  0-C ,  6-H ) :   0.9767 B(  0-C ,  7-H ) :   0.9828 
B(  0-C ,  8-H ) :   0.9826 B(  1-C ,  2-C ) :   0.9926 B(  1-C ,  9-H ) :   0.9658 
B(  1-C , 10-H ) :   0.9671 B(  2-C ,  3-C ) :   0.9927 B(  2-C ,  4-C ) :   0.9361 
B(  2-C ,  5-O ) :   0.9882 B(  3-C , 11-H ) :   0.9655 B(  3-C , 12-H ) :   0.9861 
B(  3-C , 13-H ) :   0.9726 B(  4-C , 14-H ) :   0.9792 B(  4-C , 15-H ) :   0.9862 
B(  4-C , 16-H ) :   0.9730 B(  5-O , 17-H ) :   0.9038 

-------
TIMINGS
-------

Total SCF time: 0 days 0 hours 1 min 41 sec 

Total time                  ....     101.599 sec
Sum of individual times     ....      99.216 sec  ( 97.7%)

SCF preparation             ....       0.227 sec  (  0.2%)
Fock matrix formation       ....      97.963 sec  ( 96.4%)
  Startup                   ....       0.051 sec  (  0.1% of F)
  Split-RI-J                ....       3.619 sec  (  3.7% of F)
  Chain of spheres X        ....      83.320 sec  ( 85.1% of F)
  XC integration            ....      12.504 sec  ( 12.8% of F)
    XC Preparation          ....       0.000 sec  (  0.0% of XC)
    Basis function eval.    ....       2.799 sec  ( 22.4% of XC)
    Density eval.           ....       2.523 sec  ( 20.2% of XC)
    XC-Functional eval.     ....       2.770 sec  ( 22.1% of XC)
    XC-Potential eval.      ....       3.733 sec  ( 29.8% of XC)
Diagonalization             ....       0.000 sec  (  0.0%)
Density matrix formation    ....       0.180 sec  (  0.2%)
Total Energy calculation    ....       0.037 sec  (  0.0%)
Population analysis         ....       0.141 sec  (  0.1%)
Orbital Transformation      ....       0.069 sec  (  0.1%)
Orbital Orthonormalization  ....       0.000 sec  (  0.0%)
DIIS solution               ....       0.281 sec  (  0.3%)
  MO trafo                  ....       0.000 sec  (  0.0 % of DIIS)
  Orb grad                  ....       0.000 sec  (  0.0 % of DIIS)
  Energy W gradient         ....       0.000 sec  (  0.0 % of DIIS)
  DIIS error                ....       0.010 sec  (  3.5 % of DIIS)
  DIIS work                 ....       0.228 sec  ( 80.9 % of DIIS)
  Form Q                    ....       0.000 sec  (  0.0 % of DIIS)
  Form QpQm                 ....       0.000 sec  (  0.0 % of DIIS)
  Exp/Cayley                ....       0.000 sec  (  0.0 % of DIIS)
  Orb update                ....       0.000 sec  (  0.0 % of DIIS)
  Wake-sleep                ....       0.011 sec  (  4.0 % of DIIS)
SOSCF solution              ....       0.135 sec  (  0.1%)
  MO trafo                  ....       0.063 sec  ( 46.5 % of SOSCF)
  Orb grad                  ....       0.002 sec  (  1.4 % of SOSCF)
  Rot update                ....       0.031 sec  ( 23.0 % of SOSCF)
  Step                      ....       0.039 sec  ( 29.1 % of SOSCF)
Grid generation             ....       0.181 sec  (  0.2%)
Finished LeanSCF after 101.7 sec

Maximum memory used throughout the entire LEANSCF-calculation: 33.2 MB
------------------   -----------------
gCP correction             0.013095187
------------------   -----------------

-------------------------   --------------------
FINAL SINGLE POINT ENERGY      -273.000624566192
-------------------------   --------------------


------------------------------------------------------------------------------
                              ORCA PROPERTY CALCULATIONS
------------------------------------------------------------------------------

GBWName                                 ... sp_gas.gbw
Number of atoms                         ...     18
Number of basis functions               ...    258
Max core memory                         ...   1024 MB

Electric properties:
Dipole moment                           ... YES
Quadrupole moment                       ...  NO
Static polarizability (Dipole/Dipole)   ...  NO
Static polarizability (Dipole/Quad.)    ...  NO
Static polarizability (Quad./Quad.)     ...  NO
Static polarizability (Velocity)        ...  NO

Atomic electric properties:
Dipole moment                           ...  NO
Quadrupole moment                       ...  NO
Static polarizability                   ...  NO

Choice of electric origin               ... Center of mass
Position of electric origin             ...    -0.014674     0.006639    -0.007726

General magnetic properties:
Magnetizability                         ...  NO

EPR properties:
g-Tensor (aka g-matrix)                 ...  NO
Zero-Field splitting spin-orbit         ...  NO
Zero-field splitting spin-spin          ...  NO
Hyperfine couplings                     ...  NO (   0 nuclei)
Quadrupole couplings                    ...  NO (   0 nuclei)
Contact density                         ...  NO (   0 nuclei)

NMR properties:
Chemical shifts                         ...  NO (   0 nuclei)
Spin-rotation constants                 ...  NO (   0 nuclei)
Spin-spin couplings                     ...  NO (   0 nuclei,    0 pairs)

Choice of magnetic origin               ... GIAO
Position of magnetic origin             ...     0.000000     0.000000     0.000000

Properties with geometric perturbations:
SCF Hessian                             ...  NO
IR spectrum                             ...  NO
VCD spectrum                            ...  NO
X-ray spectroscopy properties:
SCF XES/XAS/RIXS spectra                ...  NO


-------------
DIPOLE MOMENT
-------------

Method             : SCF
Type of density    : Electron Density
Multiplicity       :   1
Irrep              :   0
Energy             :  -273.0137197527918147 Eh
Relativity type    : 
Basis              : AO
                                X                 Y                 Z
Electronic contribution:     -1.078188368       0.774910757      -2.940324948
Nuclear contribution   :      1.351505680      -0.363162260       3.344685022
                        -----------------------------------------
Total Dipole Moment    :      0.273317312       0.411748497       0.404360074
                        -----------------------------------------
Magnitude (a.u.)       :      0.638550114
Magnitude (Debye)      :      1.623065401



--------------------
Rotational spectrum 
--------------------
 
Rotational constants in cm-1:             0.150114             0.086342             0.084394 
Rotational constants in MHz :          4500.305590          2588.460905          2530.060737 

Dipole components along the rotational axes: 
x,y,z [a.u.] :     0.036391     0.520851    -0.367609 
x,y,z [Debye]:     0.092500     1.323897    -0.934388 

 

Dipole moment calculation done in   0.0 sec 

Maximum memory used throughout the entire PROP-calculation: 19.5 MB

--------------------------------
SUGGESTED CITATIONS FOR THIS RUN
--------------------------------

Below you find a list of papers that are relevant to this ORCA run
We neither can nor want to force you to cite these papers, but we appreciate if you do
You receive ORCA, which is the product of decades of hard work by many enthusiastic individuals, for free
The only thing we kindly ask in return is that you cite our papers,
We deeply appreciate it, if you show your appreciation for ORCA by not just citing the generic ORCA reference.

Please note that relegating all ORCA citations to the supporting information does *not* help us.
SI sections are not indexed - citations you put there will not count into any citation statistics
But we need these citations in order to attract the funding resources that allow us to do what we are doing

Therefore, if you are a happy ORCA user, please consider citing a few of the papers listed below in the main body of your paper

In addition to the list printed below, the program has created the file sp_gas.bibtex that contains the list in bibtex format
You can import this file easily into all common literature databanks and citation aid programs


List of essential papers. We consider these as the minimum necessary citations

  1. Neese,F.
     Software update: the ORCA program system, version 5.0
     WIRES Comput. Molec. Sci., 2022 12(1)e1606
     doi.org/10.1002/wcms.1606

List of papers to cite with high priority. The work reported in these papers was absolutely
necessary for this run to complete.
Our perspective: the developers of density functionals and basis sets usually get cited in chemistry papers
Good! But without the algorithms to do something with them, the functionals or basis sets would not do anything.
Hence, in our opinion, the algorithm design and method developments papers are equally worthy of getting cited

  1. Neese,F.
     An improvement of the resolution of the identity approximation for the formation of the Coulomb matrix
     J. Comp. Chem., 2003 24(14)1740-1747
     doi.org/10.1002/jcc.10318
  2. Neese,F.; Wennmohs,F.; Hansen,A.; Becker,U.
     Efficient, approximate and parallel Hartree-Fock and hybrid DFT calculations. A 'chain-of-spheres' algorithm for the Hartree-Fock exchange
     Chem. Phys., 2009 356(1-3)98-109
     doi.org/10.1016/j.chemphys.2008.10.036
  3. Helmich-Paris,B.; de Souza,B.; Neese,F.; Izsák,R.
     An improved chain of spheres for exchange algorithm
     J. Chem. Phys., 2021 155 104109
     doi.org/doi: 10.1063/5.0058766.
  4. Neese,F.
     The SHARK Integral Generation and Digestion System
     J. Comp. Chem., 2022  1-16
     doi.org/10.1002/jcc.26942

List of suggested additional citations. These are papers that are important in the 'surrounding' of 
of this run, or papers that preceded the highly important papers. If you like your results we are grateful for a citation.

  1. Izsak,R.; Neese,F.
     An overlap fitted chain of spheres exchange method
     J. Chem. Phys., 2011 135 144105
     doi.org/10.1063/1.3646921
  2. Izsak,R.; Hansen,A.; Neese,F.
     The resolution of identity and chain of spheres approximations for the LPNO-CCSD singles Fock term
     Molec. Phys., 2012 110 2413-2417
     doi.org/10.1080/00268976.2012.687466
  3. Neese,F.
     The ORCA program system
     WIRES Comput. Molec. Sci., 2012 2(1)73-78
     doi.org/10.1002/wcms.81
  4. Izsak,R.; Neese,F.; Klopper,W.
     Robust fitting techniques in the chain of spheres approximation to the Fock exchange: The role of the complementary space
     J. Chem. Phys., 2013 139 
     doi.org/10.1063/1.4819264
  5. Neese,F.
     Software update: the ORCA program system, version 4.0
     WIRES Comput. Molec. Sci., 2018 8(1)1-6
     doi.org/10.1002/wcms.1327
  6. Neese,F.; Wennmohs,F.; Becker,U.; Riplinger,C.
     The ORCA quantum chemistry program package
     J. Chem. Phys., 2020 152 Art. No. L224108
     doi.org/10.1063/5.0004608

List of optional additional citations

  1. Neese,F.
     Approximate second-order SCF convergence for spin unrestricted wavefunctions
     Chem. Phys. Lett., 2000 325(1-3)93-98
     doi.org/10.1016/s0009-2614(00)00662-x

Timings for individual modules:

Sum of individual times          ...      104.212 sec (=   1.737 min)
Startup calculation              ...        2.074 sec (=   0.035 min)   2.0 %
SCF iterations                   ...      102.023 sec (=   1.700 min)  97.9 %
Property calculations            ...        0.115 sec (=   0.002 min)   0.1 %
                             ****ORCA TERMINATED NORMALLY****
TOTAL RUN TIME: 0 days 0 hours 1 minutes 44 seconds 851 msec
