      -----------------------------------------------------------      
     |                   =====================                   |     
     |                           x T B                           |     
     |                   =====================                   |     
     |                         S. Grimme                         |     
     |          Mulliken Center for Theoretical Chemistry        |     
     |                    University of Bonn                     |     
      -----------------------------------------------------------      

   * xtb version 6.7.1 (edcfbbe) compiled by 'albert@albert-system' on 2024-07-22

   xtb is free software: you can redistribute it and/or modify it under
   the terms of the GNU Lesser General Public License as published by
   the Free Software Foundation, either version 3 of the License, or
   (at your option) any later version.
   
   xtb is distributed in the hope that it will be useful,
   but WITHOUT ANY WARRANTY; without even the implied warranty of
   MERCHANTABILITY or FITNESS FOR A PARTICULAR PURPOSE.  See the
   GNU Lesser General Public License for more details.
   
   Cite this work as:
   * C. Bannwarth, E. Caldeweyher, S. Ehlert, A. Hansen, P. Pracht,
     J. Seibert, S. Spicher, S. Grimme, WIREs Comput. Mol. Sci., 2020, 11,
     e01493. DOI: 10.1002/wcms.1493
   
   for GFN2-xTB:
   * C. Bannwarth, S. Ehlert and S. Grimme., J. Chem. Theory Comput., 2019,
     15, 1652-1671. DOI: 10.1021/acs.jctc.8b01176
   for GFN1-xTB:
   * S. Grimme, C. Bannwarth, P. Shushkov, J. Chem. Theory Comput., 2017,
     13, 1989-2009. DOI: 10.1021/acs.jctc.7b00118
   for GFN0-xTB:
   * P. Pracht, E. Caldeweyher, S. Ehlert, S. Grimme, ChemRxiv, 2019, preprint.
     DOI: 10.26434/chemrxiv.8326202.v1
   for GFN-FF:
   * S. Spicher and S. Grimme, Angew. Chem. Int. Ed., 2020, 59, 15665-15673.
     DOI: 10.1002/anie.202004239
   
   for ALPB and GBSA implicit solvation:
   * S. Ehlert, M. Stahn, S. Spicher, S. Grimme, J. Chem. Theory Comput.,
     2021, 17, 4250-4261. DOI: 10.1021/acs.jctc.1c00471
   
   for ddCOSMO and CPCM-X implicit solvation:
   * M. Stahn, S. Ehlert, S. Grimme, J. Phys. Chem. A,
     2023, XX, XXXX-XXXX. DOI: 10.1021/acs.jpca.3c04382
   
   for DFT-D4:
   * E. Caldeweyher, C. Bannwarth and S. Grimme, J. Chem. Phys., 2017,
     147, 034112. DOI: 10.1063/1.4993215
   * E. Caldeweyher, S. Ehlert, A. Hansen, H. Neugebauer, S. Spicher,
     C. Bannwarth and S. Grimme, J. Chem. Phys., 2019, 150, 154122.
     DOI: 10.1063/1.5090222
   * E. Caldeweyher, J.-M. Mewes, S. Ehlert and S. Grimme, Phys. Chem. Chem. Phys.
     2020, 22, 8499-8512. DOI: 10.1039/D0CP00502A
   
   for sTDA-xTB:
   * S. Grimme and C. Bannwarth, J. Chem. Phys., 2016, 145, 054103.
     DOI: 10.1063/1.4959605
   
   in the mass-spec context:
   * V. Asgeirsson, C. Bauer and S. Grimme, Chem. Sci., 2017, 8, 4879.
     DOI: 10.1039/c7sc00601b
   * J. Koopman and S. Grimme, ACS Omega 2019, 4, 12, 15120-15133.
     DOI: 10.1021/acsomega.9b02011
   
   for metadynamics refer to:
   * S. Grimme, J. Chem. Theory Comput., 2019, 155, 2847-2862
     DOI: 10.1021/acs.jctc.9b00143
   
   for SPH calculations refer to:
   * S. Spicher and S. Grimme, J. Chem. Theory Comput., 2021, 17, 1701-1714
     DOI: 10.1021/acs.jctc.0c01306
   
   for ONIOM refer to:
   * C. Plett, A. Katbashev, S. Ehlert, S. Grimme, M. Bursch,
     Phys. Chem. Chem. Phys., 2023, 25, 17860-17868. DOI: 10.1039/D3CP02178E
   
   for DIPRO refer to:
   * J. Kohn, N. Gildemeister, S. Grimme, D. Fazzi, A. Hansen,
     J. Chem. Phys., 2023, just accepted.
   
   for PTB refer to:
   * S. Grimme, M. Mueller, A. Hansen, J. Chem. Phys., 2023, 158, 124111.
     DOI: 10.1063/5.0137838
   
   with help from (in alphabetical order)
   P. Atkinson, C. Bannwarth, F. Bohle, G. Brandenburg, E. Caldeweyher
   M. Checinski, S. Dohm, S. Ehlert, S. Ehrlich, I. Gerasimov, C. Hölzer
   A. Katbashev, J. Kohn, J. Koopman, C. Lavigne, S. Lehtola, F. März, M. Müller,
   F. Musil, H. Neugebauer, J. Pisarek, C. Plett, P. Pracht, F. Pultar,
   J. Seibert, P. Shushkov, S. Spicher, M. Stahn, M. Steiner, T. Strunk,
   J. Stückrath, T. Rose, and J. Unsleber
   
 * started run on 2025/04/06 at 18:55:19.654     
   ID    Z sym.   atoms
    1    6 C      1, 2, 4, 6, 8, 10
    2    1 H      3, 5, 7, 9, 11, 18-24
    3    8 O      12-17

           -------------------------------------------------
          |                Calculation Setup                |
           -------------------------------------------------

          program call               : /srv/scratch/z5358697/.xtb/bin/xtb xtb_opt.coord --opt normal --orca -I xtb_opt-xcontrol-inp
          hostname                   : k155
          coordinate file            : xtb_opt.coord
          omp threads                :                    16

           -------------------------------------------------
          |                   Orca driver                   |
           -------------------------------------------------
orca executable           : /apps/z_install_tree/linux-rocky8-ivybridge/gcc-12.2.0/orca-6.0.0-srtngmq3qlimg2qxbl6avaaiffipurdx/bin/orca
orca input file           : xtb_opt.inp
orca input line           : 
orca parallel             : true
orca number of threads    : 16
                         * ORCA takes the control...
  ------------------------------------------------------------------------

                                 *****************
                                 * O   R   C   A *
                                 *****************

                                            #,                                       
                                            ###                                      
                                            ####                                     
                                            #####                                    
                                            ######                                   
                                           ########,                                 
                                     ,,################,,,,,                         
                               ,,#################################,,                 
                          ,,##########################################,,             
                       ,#########################################, ''#####,          
                    ,#############################################,,   '####,        
                  ,##################################################,,,,####,       
                ,###########''''           ''''###############################       
              ,#####''   ,,,,##########,,,,          '''####'''          '####       
            ,##' ,,,,###########################,,,                        '##       
           ' ,,###''''                  '''############,,,                           
         ,,##''                                '''############,,,,        ,,,,,,###''
      ,#''                                            '''#######################'''  
     '                                                          ''''####''''         
             ,#######,   #######,   ,#######,      ##                                
            ,#'     '#,  ##    ##  ,#'     '#,    #''#        ,####,   ,####,        
            ##       ##  ##   ,#'  ##            #'  '#       #'       #'  '#        
            ##       ##  #######   ##           ,######,      #####,   #    #        
            '#,     ,#'  ##    ##  '#,     ,#' ,#      #,     #,   #   #,  ,#        
             '#######'   ##     ##  '#######'  #'      '#     '####' # '####'        



                #########################################################
                #                        -***-                          #
                #          Department of theory and spectroscopy        #
                #                                                       #
                #                      Frank Neese                      #
                #                                                       #
                #     Directorship, Architecture, Infrastructure        #
                #                    SHARK, DRIVERS                     #
                #        Core code/Algorithms in most modules           #
                #                                                       #
                #        Max Planck Institute fuer Kohlenforschung      #
                #                Kaiser Wilhelm Platz 1                 #
                #                 D-45470 Muelheim/Ruhr                 #
                #                      Germany                          #
                #                                                       #
                #                  All rights reserved                  #
                #                        -***-                          #
                #########################################################


                         Program Version 6.0.0  -   RELEASE  -


 With contributions from (in alphabetic order):
   Daniel Aravena         : Magnetic Suceptibility
   Michael Atanasov       : Ab Initio Ligand Field Theory (pilot matlab implementation)
   Alexander A. Auer      : GIAO ZORA, VPT2 properties, NMR spectrum
   Ute Becker             : All parallelization in ORCA, NUMFREQ, NUMCALC
   Giovanni Bistoni       : ED, misc. LED, open-shell LED, HFLD
   Martin Brehm           : Molecular dynamics
   Dmytro Bykov           : pre 5.0 version of the SCF Hessian
   Marcos Casanova-Páez   : Triplet and SCS-CIS(D). UHF-(DLPNO)-IP/EA/STEOM-CCSD. UHF-CVS-IP/STEOM-CCSD
   Vijay G. Chilkuri      : MRCI spin determinant printing, contributions to CSF-ICE
   Pauline Colinet        : FMM embedding
   Dipayan Datta          : RHF DLPNO-CCSD density
   Achintya Kumar Dutta   : EOM-CC, STEOM-CC
   Nicolas Foglia         : Exact transition moments, OPA infrastructure, MCD improvements
   Dmitry Ganyushin       : Spin-Orbit,Spin-Spin,Magnetic field MRCI
   Miquel Garcia          : C-PCM and meta-GGA Hessian, CCSD/C-PCM, Gaussian charge scheme
   Tiago L. C. Gouveia    : GS-ROHF, GS-ROCIS
   Yang Guo               : DLPNO-NEVPT2, F12-NEVPT2, CIM, IAO-localization
   Andreas Hansen         : Spin unrestricted coupled pair/coupled cluster methods
   Ingolf Harden          : AUTO-CI MPn and infrastructure 
   Benjamin Helmich-Paris : MC-RPA, TRAH-(SCF,CASSCF), AVAS, COSX integrals, SCF dyn. polar.
   Lee Huntington         : MR-EOM, pCC
   Robert Izsak           : Overlap fitted RIJCOSX, COSX-SCS-MP3, EOM
   Riya Kayal             : Wick's Theorem for AUTO-CI, AUTO-CI UHF-CCSDT
   Emily Kempfer          : AUTO-CI, RHF CISDT and CCSDT
   Christian Kollmar      : KDIIS, OOCD, Brueckner-CCSD(T), CCSD density, CASPT2, CASPT2-K, improved NEVPT2
   Axel Koslowski         : Symmetry handling
   Simone Kossmann        : Meta GGA functionals, TD-DFT gradient, OOMP2, (MP2 Hessian; deprecated post 5.0)
   Lucas Lang             : DCDCAS
   Marvin Lechner         : AUTO-CI (C++ implementation), FIC-MRCC
   Spencer Leger          : CASSCF response
   Dagmar Lenk            : GEPOL surface, SMD, ORCA-2-JSON
   Dimitrios Liakos       : Extrapolation schemes; Compound Job, initial MDCI parallelization
   Dimitrios Manganas     : Further ROCIS development; embedding schemes. LFT, Crystal Embedding
   Dimitrios Pantazis     : SARC Basis sets
   Anastasios Papadopoulos: AUTO-CI, single reference methods and gradients
   Taras Petrenko         : pre 6.0 DFT Hessian and TD-DFT gradient, (ASA, deprecated), ECA, 1-Electron XAS/XES, NRVS
   Peter Pinski           : DLPNO-MP2, DLPNO-MP2 Gradient
   Christoph Reimann      : Effective Core Potentials
   Marius Retegan         : Local ZFS, SOC
   Christoph Riplinger    : Optimizer, TS searches, QM/MM, DLPNO-CCSD(T), (RO)-DLPNO pert. Triples
   Michael Roemelt        : Original ROCIS implementation
   Masaaki Saitow         : Open-shell DLPNO-CCSD energy and density
   Barbara Sandhoefer     : DKH picture change effects
   Kantharuban Sivalingam : CASSCF convergence/infrastructure, NEVPT2 and variants, FIC-MRCI
   Bernardo de Souza      : ESD, SOC TD-DFT
   Georgi Stoychev        : AutoAux, RI-MP2 NMR, DLPNO-MP2 response, X2C
   Van Anh Tran           : RI-MP2 g-tensors
   Willem Van den Heuvel  : Paramagnetic NMR
   Zikuan Wang            : NOTCH, Electric field optimization 
   Frank Wennmohs         : Technical directorship and infrastructure
   Hang Xu                : AUTO-CI-Response properties 


 We gratefully acknowledge several colleagues who have allowed us to
 interface, adapt or use parts of their codes:
   Stefan Grimme, W. Hujo, H. Kruse, P. Pracht,  : VdW corrections, initial TS optimization,
                  C. Bannwarth, S. Ehlert,         DFT functionals, gCP, sTDA/sTD-DF
                  L. Wittmann, M. Mueller
   Ed Valeev, F. Pavosevic, A. Kumar             : LibInt (2-el integral package), F12 methods
   Garnet Chan, S. Sharma, J. Yang, R. Olivares  : DMRG
   Ulf Ekstrom                                   : XCFun DFT Library
   Mihaly Kallay                                 : mrcc  (arbitrary order and MRCC methods)
   Frank Weinhold                                : gennbo (NPA and NBO analysis)
   Simon Mueller                                 : openCOSMO-RS
   Christopher J. Cramer and Donald G. Truhlar   : smd solvation model
   Lars Goerigk                                  : TD-DFT with DH, B97 family of functionals
   V. Asgeirsson, H. Jonsson                     : NEB implementation
   FAccTs GmbH                                   : IRC, NEB, NEB-TS, DLPNO-Multilevel, CI-OPT
                                                   MM, QMMM, 2- and 3-layer-ONIOM, Crystal-QMMM,
                                                   LR-CPCM, SF, NACMEs, symmetry and pop. for TD-DFT,
                                                   nearIR, NL-DFT gradient (VV10), updates on ESD,
                                                   ML-optimized integration grids, MBIS, APM,
                                                   GOAT, DOCKER, SOLVATOR, interface openCOSMO-RS
   S Lehtola, MJT Oliveira, MAL Marques          : LibXC Library
   Liviu Ungur et al                             : ANISO software


 Your calculation uses the libint2 library for the computation of 2-el integrals
 For citations please refer to: http://libint.valeyev.net

 Your ORCA version has been built with support for libXC version: 6.2.2
 For citations please refer to: https://libxc.gitlab.io

 This ORCA versions uses:
   CBLAS   interface :  Fast vector & matrix operations
   LAPACKE interface :  Fast linear algebra routines
   SCALAPACK package :  Parallel linear algebra routines
   Shared memory     :  Shared parallel matrices
   BLAS/LAPACK       :  OpenBLAS 0.3.27  USE64BITINT DYNAMIC_ARCH NO_AFFINITY SkylakeX SINGLE_THREADED
        Core in use  :  SkylakeX
   Copyright (c) 2011-2014, The OpenBLAS Project




***************************************
The coordinates will be read from file: xtb_opt.xyz
***************************************


Your calculation utilizes the geometrical counterpoise correction gCP
Please cite in your paper:
H.Kruse, S. Grimme J.Chem.Phys., 136, (2012), 154101 
   

Your calculation utilizes the atom-pairwise dispersion correction
based on EEQ partial charges (D4)


Your calculation utilizes the SMD solvation module
Please cite in your paper:
A.V. Marenich, C.J. Cramer, D.G. Truhlar J. Phys. Chem. B, 113, (2009), 6378 

================================================================================

----- Orbital basis set information -----
Your calculation utilizes the basis: def2-mTZVPP
   Stefan Grimme, Andreas Hansen, Sebastian Ehlert, and Jan-Michael Mewes 
   J. Chem. Phys. 154, 064103 (2021). DOI: 10.1063/5.0040021

----- AuxJ basis set information -----
Your calculation utilizes the auxiliary basis: def2/J
   F. Weigend, Phys. Chem. Chem. Phys. 8, 1057 (2006).

================================================================================
                                        WARNINGS
                       Please study these warnings very carefully!
================================================================================

WARNING: Old DensityContainer found on disk!
         Will remove this file - 
         If you want to keep old densities, please start your calculation with a different basename. 

Using LibXC functional ID 497 : Re-regularized SCAN exchange by Furness et al
[ 1]  J. W. Furness, A. D. Kaplan, J. Ning, J. P. Perdew, and J. Sun.,  J. Phys. Chem. Lett. 11, 8208-8215 (2020)
[ 2]  J. W. Furness, A. D. Kaplan, J. Ning, J. P. Perdew, and J. Sun.,  J. Phys. Chem. Lett. 11, 9248-9248 (2020)
Using LibXC functional ID 498 : Re-regularized SCAN correlation by Furness et al
[ 1]  J. W. Furness, A. D. Kaplan, J. Ning, J. P. Perdew, and J. Sun.,  J. Phys. Chem. Lett. 11, 8208-8215 (2020)
[ 2]  J. W. Furness, A. D. Kaplan, J. Ning, J. P. Perdew, and J. Sun.,  J. Phys. Chem. Lett. 11, 9248-9248 (2020)
Using LibXC functional ID 497 : Re-regularized SCAN exchange by Furness et al
[ 1]  J. W. Furness, A. D. Kaplan, J. Ning, J. P. Perdew, and J. Sun.,  J. Phys. Chem. Lett. 11, 8208-8215 (2020)
[ 2]  J. W. Furness, A. D. Kaplan, J. Ning, J. P. Perdew, and J. Sun.,  J. Phys. Chem. Lett. 11, 9248-9248 (2020)
Using LibXC functional ID 498 : Re-regularized SCAN correlation by Furness et al
[ 1]  J. W. Furness, A. D. Kaplan, J. Ning, J. P. Perdew, and J. Sun.,  J. Phys. Chem. Lett. 11, 8208-8215 (2020)
[ 2]  J. W. Furness, A. D. Kaplan, J. Ning, J. P. Perdew, and J. Sun.,  J. Phys. Chem. Lett. 11, 9248-9248 (2020)

================================================================================
                                       INPUT FILE
================================================================================
NAME = xtb_opt.inp
|  1> ! r2scan-3c def2/J RI DEFGRID2 scfconv7 ENGRAD tightSCF miniprint
|  2> %cpcm
|  3>     smd true
|  4>     smdsolvent "water"
|  5> end
|  6> * xyzfile 0 1 xtb_opt.xyz
|  7> 
|  8>                          ****END OF INPUT****
================================================================================

                     *******************************
                     * Energy+Gradient Calculation *
                     *******************************

---------------------------------
CARTESIAN COORDINATES (ANGSTROEM)
---------------------------------
  C     -2.584757   -0.617431   -0.320134
  C     -1.202699   -0.268966    0.194663
  H     -1.212134   -0.248525    1.296293
  C     -0.694410    1.071196   -0.334313
  H     -0.716142    1.057712   -1.435380
  C      0.739380    1.283935    0.134117
  H      0.729118    1.389149    1.232866
  C      1.631217    0.095349   -0.223925
  H      1.727064    0.013197   -1.313203
  C      0.994760   -1.189110    0.300478
  H      0.914193   -1.166626    1.401147
  O     -0.320353   -1.309471   -0.260230
  O      1.751363   -2.282846   -0.136027
  O      2.953682    0.286948    0.281685
  O      1.215420    2.490984   -0.467111
  O     -1.554778    2.096985    0.169509
  O     -3.075631   -1.831513    0.258597
  H     -2.558129   -0.690665   -1.416974
  H     -3.286302    0.170872   -0.039597
  H      1.483323   -3.060484    0.375881
  H      2.890586    0.394709    1.239669
  H      2.113721    2.636887   -0.143954
  H     -1.205090    2.941285   -0.145055
  H     -2.471684   -2.537276   -0.006612

----------------------------
CARTESIAN COORDINATES (A.U.)
----------------------------
  NO LB      ZA    FRAG     MASS         X           Y           Z
   0 C     6.0000    0    12.011   -4.884483   -1.166775   -0.604965
   1 C     6.0000    0    12.011   -2.272773   -0.508273    0.367860
   2 H     1.0000    0     1.008   -2.290601   -0.469644    2.449639
   3 C     6.0000    0    12.011   -1.312245    2.024268   -0.631760
   4 H     1.0000    0     1.008   -1.353312    1.998785   -2.712476
   5 C     6.0000    0    12.011    1.397226    2.426285    0.253444
   6 H     1.0000    0     1.008    1.377833    2.625111    2.329779
   7 C     6.0000    0    12.011    3.082554    0.180184   -0.423157
   8 H     1.0000    0     1.008    3.263678    0.024940   -2.481595
   9 C     6.0000    0    12.011    1.879824   -2.247092    0.567822
  10 H     1.0000    0     1.008    1.727573   -2.204604    2.647785
  11 O     8.0000    0    15.999   -0.605379   -2.474541   -0.491764
  12 O     8.0000    0    15.999    3.309596   -4.313954   -0.257053
  13 O     8.0000    0    15.999    5.581650    0.542253    0.532308
  14 O     8.0000    0    15.999    2.296810    4.707277   -0.882713
  15 O     8.0000    0    15.999   -2.938105    3.962727    0.320325
  16 O     8.0000    0    15.999   -5.812101   -3.461058    0.488678
  17 H     1.0000    0     1.008   -4.834162   -1.305167   -2.677692
  18 H     1.0000    0     1.008   -6.210211    0.322901   -0.074827
  19 H     1.0000    0     1.008    2.803074   -5.783477    0.710312
  20 H     1.0000    0     1.008    5.462416    0.745891    2.342636
  21 H     1.0000    0     1.008    3.994354    4.982994   -0.272033
  22 H     1.0000    0     1.008   -2.277291    5.558223   -0.274114
  23 H     1.0000    0     1.008   -4.670806   -4.794757   -0.012494

------------------------------------------------------------------------------
                   ___                                                        
                  /   \      - P O W E R E D   B Y -                         
                 /     \                                                     
                 |  |  |   _    _      __       _____    __    __             
                 |  |  |  | |  | |    /  \     |  _  \  |  |  /  |          
                  \  \/   | |  | |   /    \    | | | |  |  | /  /          
                 / \  \   | |__| |  /  /\  \   | |_| |  |  |/  /          
                |  |  |   |  __  | /  /__\  \  |    /   |      \           
                |  |  |   | |  | | |   __   |  |    \   |  |\   \          
                \     /   | |  | | |  |  |  |  | |\  \  |  | \   \       
                 \___/    |_|  |_| |__|  |__|  |_| \__\ |__|  \__/        
                                                                              
                      - O R C A' S   B I G   F R I E N D -                    
                                      &                                       
                       - I N T E G R A L  F E E D E R -                       
                                                                              
 v1 FN, 2020, v2 2021, v3 2022-2024                                           
------------------------------------------------------------------------------


----------------------
SHARK INTEGRAL PACKAGE
----------------------

Number of atoms                             ...     24
Number of basis functions                   ...    318
Number of shells                            ...    150
Maximum angular momentum                    ...      2
Integral batch strategy                     ... SHARK/LIBINT Hybrid
RI-J (if used) integral strategy            ... SPLIT-RIJ (Revised 2003 algorithm where possible)
Printlevel                                  ...      1
Contraction scheme used                     ... SEGMENTED contraction
Prescreening option                         ... SCHWARTZ
   Thresh                                   ... 3.000e-11
   Tcut                                     ... 1.000e-12
   Tpresel                                  ... 1.000e-12 
Coulomb Range Separation                    ... NOT USED
Exchange Range Separation                   ... NOT USED
Multipole approximations                    ... NOT USED
Finite Nucleus Model                        ... NOT USED
CABS basis                                  ... NOT available
Auxiliary Coulomb fitting basis             ... AVAILABLE
   # of basis functions in Aux-J            ...    720
   # of shells in Aux-J                     ...    240
   Maximum angular momentum in Aux-J        ...      4
Auxiliary J/K fitting basis                 ... NOT available
Auxiliary Correlation fitting basis         ... NOT available
Auxiliary 'external' fitting basis          ... NOT available

Checking pre-screening integrals            ... done (  0.0 sec) Dimension = 150
Check shell pair data                       ... done (  0.0 sec)
Shell pair information
Shell pair cut-off parameter TPreSel        ...   1.0e-12
Total number of shell pairs                 ...     11325
Shell pairs after pre-screening             ...      9773
Total number of primitive shell pairs       ...     40203
Primitive shell pairs kept                  ...     23808
          la=0 lb=0:   2949 shell pairs
          la=1 lb=0:   3495 shell pairs
          la=1 lb=1:   1051 shell pairs
          la=2 lb=0:   1330 shell pairs
          la=2 lb=1:    790 shell pairs
          la=2 lb=2:    158 shell pairs

Calculating one electron integrals          ... done (  0.1 sec)
Calculating RI/J V-Matrix + Cholesky decomp.... done (  0.1 sec)
Calculating Nuclear repulsion               ... done (  0.0 sec) ENN=    822.012804408363 Eh

Diagonalization of the overlap matrix:
Smallest eigenvalue                        ... 3.042e-05
Time for diagonalization                   ...    0.009 sec
Threshold for overlap eigenvalues          ... 1.000e-07
Number of eigenvalues below threshold      ... 0
Time for construction of square roots      ...    0.017 sec
Total time needed                          ...    0.036 sec

-------------------
DFT GRID GENERATION
-------------------

General Integration Accuracy     IntAcc      ... 4.388
Radial Grid Type                 RadialGrid  ... OptM3 with GC (2021)
Angular Grid (max. ang.)         AngularGrid ... 4 (Lebedev-302)
Angular grid pruning method      GridPruning ... 4 (adaptive)
Weight generation scheme         WeightScheme... mBecke (2022)
Basis function cutoff            BFCut       ... 1.0000e-11
Integration weight cutoff        WCut        ... 1.0000e-14
Partially contracted basis set               ... off
Rotationally invariant grid construction     ... off
Angular grids for H and He will be reduced by one unit
Diffuse basis detected: some atoms will have their outermost
                        angular grid increased by 1.

Total number of grid points                  ...   112040
Total number of batches                      ...     1766
Average number of points per batch           ...       63
Average number of grid points per atom       ...     4668
Initializing property integral containers    ... done (  0.0 sec)

SHARK setup successfully completed in   1.7 seconds

Maximum memory used throughout the entire STARTUP-calculation: 55.1 MB
Occupation numbers will be reassigned to an Aufbau configuration
             **** ENERGY FILE WAS UPDATED (xtb_opt.en.tmp) ****
Finished Guess after   0.3 sec
Maximum memory used throughout the entire GUESS-calculation: 25.8 MB
--------------------
CPCM SOLVATION MODEL
--------------------
CPCM parameters:
  Epsilon                                         ...      78.3550
  Refrac                                          ...       1.3328
  Rsolv                                           ...       1.3000
  Surface type                                    ... GAUSSIAN VDW
  Discretization scheme                           ... Constant charge density
    Threshold for H atoms                         ...       5.0000 (charges/Ang^2)
    Threshold for non-H atoms                     ...       5.0000 (charges/Ang^2)
  Epsilon function type                           ...         CPCM
Solvent:                                          ... WATER
SMD-CDS solvent descriptors:
  Soln                                            ...       1.3328
  Soln25                                          ...       1.3323
  Sola                                            ...       0.0000
  Solb                                            ...       0.0000
  Solg                                            ...       0.0000
  Solc                                            ...       0.0000
  Solh                                            ...       0.0000
Radii:
  Scheme                                          ... Element-dependent radii
  Radius for C  used is    3.4960 Bohr (=   1.8500 Ang.)
  Radius for H  used is    2.2677 Bohr (=   1.2000 Ang.)
  Radius for O  used is    2.8724 Bohr (=   1.5200 Ang.)
Calculating surface                               ...        done! (  0.0s)
Cavity surface points                             ...         1613
Cavity Volume                                     ...    1043.4423
Cavity Surface-area                               ...     670.4858
Calculating surface distance matrix               ...        done! (  0.0s)
Performing Cholesky decomposition & store         ...        done! (  0.1s)
Overall time for CPCM initialization              ...                 0.1s

----------------------------------------D-I-I-S--------------------------------------------
Iteration    Energy (Eh)           Delta-E    RMSDP     MaxDP     DIISErr   Damp  Time(sec)
-------------------------------------------------------------------------------------------
               ***  Starting incremental Fock matrix formation  ***
                              *** Initializing SOSCF ***
---------------------------------------S-O-S-C-F--------------------------------------
Iteration    Energy (Eh)           Delta-E    RMSDP     MaxDP     MaxGrad    Time(sec)
--------------------------------------------------------------------------------------
    1    -687.1342326904367610     0.00e+00  3.79e-06  1.30e-04  7.71e-06     6.3
               *** Restarting incremental Fock matrix formation ***
    2    -687.1342326653631289     2.51e-08  6.40e-06  2.49e-04  2.95e-05     6.3
    3    -687.1342324453711399     2.20e-07  4.87e-06  2.10e-04  5.51e-05     4.4
    4    -687.1342327527992211    -3.07e-07  7.54e-07  3.67e-05  2.49e-06     4.2
                  *** Gradient check signals convergence ***

               *****************************************************
               *                     SUCCESS                       *
               *           SCF CONVERGED AFTER   4 CYCLES          *
               *****************************************************


SMD CDS free energy correction energy :                 4.02424     Kcal/mol
Total Energy after SMD CDS correction =              -687.127819711 Eh
             **** ENERGY FILE WAS UPDATED (xtb_opt.en.tmp) ****

----------------
TOTAL SCF ENERGY
----------------

Total Energy       :       -687.12781971132506 Eh          -18697.69855 eV

Components:
Nuclear Repulsion  :        822.01280440836319 Eh           22368.10558 eV
Electronic Energy  :      -1509.09116102572921 Eh          -41064.45817 eV
One Electron Energy:      -2574.10507835970793 Eh          -70044.96020 eV
Two Electron Energy:       1065.01391733397872 Eh           28980.50203 eV
CPCM Dielectric    :         -0.05587613543327 Eh              -1.52047 eV
SMD CDS (Gcds)     :          0.00641304147421 Eh               0.17451 eV

Virial components:
Potential Energy   :      -1371.31824784824494 Eh          -37315.46661 eV
Kinetic Energy     :        684.19042813691988 Eh           18617.76806 eV
Virial Ratio       :          2.00429323687325

DFT components:
N(Alpha)           :       47.999997106657 electrons
N(Beta)            :       47.999997106657 electrons
N(Total)           :       95.999994213313 electrons
E(X)               :      -85.237947772125 Eh       
E(C)               :       -3.188420410285 Eh       
E(XC)              :      -88.426368182411 Eh       

CPCM Solvation Model Properties:
Surface-charge          :         -0.05126506774674
Corrected charge        :          0.00000000000000
Outlying charge corr.   :          0.00018956253352 Eh               0.00516 eV
Free-energy (cav+disp)  :          0.00641304147421 Eh               0.17451 eV

---------------
SCF CONVERGENCE
---------------

  Last Energy change         ...    3.0743e-07  Tolerance :   1.0000e-07
  Last MAX-Density change    ...    3.6722e-05  Tolerance :   1.0000e-07
  Last RMS-Density change    ...    7.5366e-07  Tolerance :   5.0000e-09
  Last DIIS Error            ...    1.8536e-04  Tolerance :   1.0000e-07
  Last Orbital Gradient      ...    2.4898e-06  Tolerance :   1.0000e-04
  Last Orbital Rotation      ...    4.5720e-06  Tolerance :   1.0000e-04


----------------
ORBITAL ENERGIES
----------------

  NO   OCC          E(Eh)            E(eV) 
   0   2.0000     -18.972935      -516.2798 
   1   2.0000     -18.971694      -516.2460 
   2   2.0000     -18.964554      -516.0518 
   3   2.0000     -18.961351      -515.9646 
   4   2.0000     -18.961292      -515.9630 
   5   2.0000     -18.957006      -515.8464 
   6   2.0000     -10.138819      -275.8913 
   7   2.0000     -10.091339      -274.5993 
   8   2.0000     -10.090826      -274.5853 
   9   2.0000     -10.089827      -274.5582 
  10   2.0000     -10.089623      -274.5526 
  11   2.0000     -10.078508      -274.2501 
  12   2.0000      -1.043832       -28.4041 
  13   2.0000      -1.008674       -27.4474 
  14   2.0000      -0.999278       -27.1917 
  15   2.0000      -0.989600       -26.9284 
  16   2.0000      -0.980416       -26.6785 
  17   2.0000      -0.975874       -26.5549 
  18   2.0000      -0.754312       -20.5259 
  19   2.0000      -0.738030       -20.0828 
  20   2.0000      -0.658738       -17.9252 
  21   2.0000      -0.607320       -16.5260 
  22   2.0000      -0.589764       -16.0483 
  23   2.0000      -0.560572       -15.2539 
  24   2.0000      -0.520127       -14.1534 
  25   2.0000      -0.502800       -13.6819 
  26   2.0000      -0.490793       -13.3552 
  27   2.0000      -0.483298       -13.1512 
  28   2.0000      -0.467344       -12.7171 
  29   2.0000      -0.448093       -12.1932 
  30   2.0000      -0.440265       -11.9802 
  31   2.0000      -0.417310       -11.3556 
  32   2.0000      -0.410661       -11.1746 
  33   2.0000      -0.384362       -10.4590 
  34   2.0000      -0.381448       -10.3797 
  35   2.0000      -0.378591       -10.3020 
  36   2.0000      -0.352896        -9.6028 
  37   2.0000      -0.335917        -9.1408 
  38   2.0000      -0.329902        -8.9771 
  39   2.0000      -0.320723        -8.7273 
  40   2.0000      -0.312833        -8.5126 
  41   2.0000      -0.305497        -8.3130 
  42   2.0000      -0.279878        -7.6159 
  43   2.0000      -0.277992        -7.5646 
  44   2.0000      -0.257239        -6.9998 
  45   2.0000      -0.252078        -6.8594 
  46   2.0000      -0.245115        -6.6699 
  47   2.0000      -0.232203        -6.3186 
  48   0.0000       0.033615         0.9147 
  49   0.0000       0.056268         1.5311 
  50   0.0000       0.077318         2.1039 
  51   0.0000       0.082817         2.2536 
  52   0.0000       0.088125         2.3980 
  53   0.0000       0.101257         2.7553 
  54   0.0000       0.109386         2.9766 
  55   0.0000       0.123764         3.3678 
  56   0.0000       0.135021         3.6741 
  57   0.0000       0.139424         3.7939 
  58   0.0000       0.149229         4.0607 
*Only the first 10 virtual orbitals were printed.
Total SCF time: 0 days 0 hours 0 min 21 sec 
Finished LeanSCF after  22.0 sec

Maximum memory used throughout the entire LEANSCF-calculation: 42.8 MB


-------------------------------------------------------------------------------
                          DFT DISPERSION CORRECTION                            
                                                                               
                                DFTD4 V3.4.0                                   
-------------------------------------------------------------------------------
-------------------------   ----------------
Dispersion correction           -0.007958102
-------------------------   ----------------

------------------   -----------------
gCP correction             0.018859441
------------------   -----------------

-------------------------   --------------------
FINAL SINGLE POINT ENERGY      -687.116918372885
-------------------------   --------------------

------------------------------------------------------------------------------
                         ORCA SCF GRADIENT CALCULATION
------------------------------------------------------------------------------

Nuc. rep. gradient        (SHARK) ... done (  0.0 sec)
HCore & Overlap gradient  (SHARK) ... done (  0.6 sec)
Split-RIJ-J gradient      (SHARK) ... done (  3.5 sec)
XC gradient                       ... done ( 11.9 sec)
CPCM gradient                     ... done (  1.7 sec)
SMD gradient                      ... done (  0.0 sec)
Dispersion correction             ... done (  0.0 sec)

-------------------
DISPERSION GRADIENT
-------------------

   1   C   :   -0.000110952   -0.000025588   -0.000020136
   2   C   :   -0.000049953   -0.000020831    0.000010629
   3   H   :   -0.000038965   -0.000008936    0.000024222
   4   C   :   -0.000035346    0.000058593   -0.000019182
   5   H   :   -0.000018161    0.000033370   -0.000026719
   6   C   :    0.000038582    0.000054260    0.000008504
   7   H   :    0.000016938    0.000039770    0.000017020
   8   C   :    0.000077227   -0.000004129   -0.000006892
   9   H   :    0.000045023   -0.000004128   -0.000021127
  10   C   :    0.000042893   -0.000047576    0.000019464
  11   H   :    0.000031081   -0.000039215    0.000017022
  12   O   :   -0.000007551   -0.000070525   -0.000003792
  13   O   :    0.000063958   -0.000110477    0.000006322
  14   O   :    0.000099460    0.000012828    0.000032693
  15   O   :    0.000059424    0.000102962   -0.000012364
  16   O   :   -0.000057070    0.000112747    0.000000277
  17   O   :   -0.000079318   -0.000070254   -0.000000291
  18   H   :   -0.000047819   -0.000020636   -0.000017821
  19   H   :   -0.000044845   -0.000009513    0.000000779
  20   H   :    0.000026986   -0.000037364   -0.000006113
  21   H   :    0.000050327    0.000002187   -0.000001756
  22   H   :    0.000013676    0.000035214   -0.000011655
  23   H   :   -0.000024351    0.000033360    0.000005325
  24   H   :   -0.000051244   -0.000016119    0.000005591

Difference to translation invariance:
           :   -0.0000000000    0.0000000000    0.0000000000

Difference to rotation invariance:
           :    0.0000000000    0.0000000000    0.0000000000

Norm of the Dispersion gradient    ...    0.0003718872
RMS gradient                       ...    0.0000438273
MAX gradient                       ...    0.0001127469
gCP correction                   ... done

------------------
CARTESIAN GRADIENT
------------------

   1   C   :   -0.000452589   -0.000308241    0.000188164
   2   C   :    0.000057351    0.000130975    0.000182457
   3   H   :    0.000071737   -0.000070250   -0.000251981
   4   C   :   -0.000446407    0.000259665    0.000020160
   5   H   :    0.000041959    0.000165108    0.000045360
   6   C   :    0.000191607    0.000683037   -0.000253396
   7   H   :   -0.000032006   -0.000108526    0.000069455
   8   C   :    0.000604412   -0.000021835    0.000138260
   9   H   :   -0.000057613   -0.000003094   -0.000036421
  10   C   :    0.000536304   -0.001160083   -0.000389528
  11   H   :   -0.000190952    0.000284327    0.000004637
  12   O   :    0.000045256    0.000095083   -0.000213171
  13   O   :    0.000088377    0.002158069   -0.000100988
  14   O   :   -0.000559681    0.000304375    0.002304850
  15   O   :    0.001017797    0.000071536    0.000939767
  16   O   :    0.000474621   -0.000150405   -0.000007825
  17   O   :    0.000488529    0.000001894   -0.000170280
  18   H   :   -0.000110642   -0.000161498    0.000055718
  19   H   :    0.000190377   -0.000073618   -0.000072098
  20   H   :   -0.000675679   -0.001358982    0.000520590
  21   H   :    0.000161878   -0.000170734   -0.002416992
  22   H   :   -0.001148174   -0.000549131   -0.000564527
  23   H   :   -0.000127816   -0.000310569   -0.000085693
  24   H   :   -0.000168646    0.000292898    0.000093482

Difference to translation invariance:
           :   -0.0000000000   -0.0000000000   -0.0000000000

Difference to rotation invariance:
           :    0.0007063596   -0.0002705644    0.0007179470

Norm of the Cartesian gradient     ...    0.0052219934
RMS gradient                       ...    0.0006154178
MAX gradient                       ...    0.0024169920

-------
TIMINGS
-------

Total SCF gradient time     ....       19.069 sec

Densities                   ....       0.001 sec  (  0.0%)
One electron gradient       ....       0.644 sec  (  3.4%)
RI-J Coulomb gradient       ....       3.510 sec  ( 18.4%)
XC gradient                 ....      11.878 sec  ( 62.3%)
CPCM gradient               ....       1.664 sec  (  8.7%)
   A-Matrix (El+Nuc)        ....       0.084 sec  (  0.4%)
   Potential                ....       1.580 sec  (  8.3%)
SMD gradient                ....       0.013 sec  (  0.1%)

Maximum memory used throughout the entire SCFGRAD-calculation: 46.0 MB

------------------------------------------------------------------------------
                              ORCA PROPERTY CALCULATIONS
------------------------------------------------------------------------------

GBWName                                 ... xtb_opt.gbw
Number of atoms                         ...     24
Number of basis functions               ...    318
Max core memory                         ...   1024 MB

Electric properties:
Dipole moment                           ... YES
Quadrupole moment                       ...  NO
Static polarizability (Dipole/Dipole)   ...  NO
Static polarizability (Dipole/Quad.)    ...  NO
Static polarizability (Quad./Quad.)     ...  NO
Static polarizability (Velocity)        ...  NO

Atomic electric properties:
Dipole moment                           ...  NO
Quadrupole moment                       ...  NO
Static polarizability                   ...  NO

Choice of electric origin               ... Center of mass
Position of electric origin             ...     0.005241    -0.035358    -0.046109

General magnetic properties:
Magnetizability                         ...  NO

EPR properties:
g-Tensor (aka g-matrix)                 ...  NO
Zero-Field splitting spin-orbit         ...  NO
Zero-field splitting spin-spin          ...  NO
Hyperfine couplings                     ...  NO (   0 nuclei)
Quadrupole couplings                    ...  NO (   0 nuclei)
Contact density                         ...  NO (   0 nuclei)

NMR properties:
Chemical shifts                         ...  NO (   0 nuclei)
Spin-rotation constants                 ...  NO (   0 nuclei)
Spin-spin couplings                     ...  NO (   0 nuclei,    0 pairs)

Choice of magnetic origin               ... GIAO
Position of magnetic origin             ...     0.000000     0.000000     0.000000

Properties with geometric perturbations:
SCF Hessian                             ...  NO
IR spectrum                             ...  NO
VCD spectrum                            ...  NO
X-ray spectroscopy properties:
SCF XES/XAS/RIXS spectra                ...  NO


-------------
DIPOLE MOMENT
-------------

Method             : SCF
Type of density    : Electron Density
Multiplicity       :   1
Irrep              :   0
Energy             :  -687.1278197113250599 Eh
Relativity type    : 
Basis              : AO
                                X                 Y                 Z
Electronic contribution:      2.317482500      -0.854534545      -0.094080237
Nuclear contribution   :     -1.510215136       1.048766697       1.255059371
                        -----------------------------------------
Total Dipole Moment    :      0.807267364       0.194232153       1.160979133
                        -----------------------------------------
Magnitude (a.u.)       :      1.427332923
Magnitude (Debye)      :      3.627991969



--------------------
Rotational spectrum 
--------------------
 
Rotational constants in cm-1:             0.038826             0.026000             0.016313 
Rotational constants in MHz :          1163.962402           779.448194           489.043414 

Dipole components along the rotational axes: 
x,y,z [a.u.] :     0.823187    -0.106332     1.161179 
x,y,z [Debye]:     2.092375    -0.270274     2.951482 

 

Dipole moment calculation done in   0.0 sec 

Maximum memory used throughout the entire PROP-calculation: 24.4 MB

--------------------------------
SUGGESTED CITATIONS FOR THIS RUN
--------------------------------

Below you find a list of papers that are relevant to this ORCA run
We neither can nor want to force you to cite these papers, but we appreciate if you do
You receive ORCA, which is the product of decades of hard work by many enthusiastic individuals, for free
The only thing we kindly ask in return is that you cite our papers,
We deeply appreciate it, if you show your appreciation for ORCA by not just citing the generic ORCA reference.

Please note that relegating all ORCA citations to the supporting information does *not* help us.
SI sections are not indexed - citations you put there will not count into any citation statistics
But we need these citations in order to attract the funding resources that allow us to do what we are doing

Therefore, if you are a happy ORCA user, please consider citing a few of the papers listed below in the main body of your paper

In addition to the list printed below, the program has created the file xtb_opt.bibtex that contains the list in bibtex format
You can import this file easily into all common literature databanks and citation aid programs


List of essential papers. We consider these as the minimum necessary citations

  1. Neese,F.
     Software update: the ORCA program system, version 5.0
     WIRES Comput. Molec. Sci., 2022 12(1)e1606
     doi.org/10.1002/wcms.1606
  2. Grimme,S.; Hansen,A.; Ehlert,S.; Mewes,J.
     r2SCAN-3c: A 'Swiss army knife' composite electronic-structure method
     J. Chem. Phys., 2021 154 064103
     doi.org/10.1063/5.0040021

List of papers to cite with high priority. The work reported in these papers was absolutely
necessary for this run to complete.
Our perspective: the developers of density functionals and basis sets usually get cited in chemistry papers
Good! But without the algorithms to do something with them, the functionals or basis sets would not do anything.
Hence, in our opinion, the algorithm design and method developments papers are equally worthy of getting cited

  1. Neese,F.
     An improvement of the resolution of the identity approximation for the formation of the Coulomb matrix
     J. Comp. Chem., 2003 24(14)1740-1747
     doi.org/10.1002/jcc.10318
  2. Garcia-Rates,M.; Neese,F.
     Effect of the Solute Cavity on the Solvation Energy and its Derivatives within the Framework of the Gaussian Charge Scheme
     J. Comput. Chem., 2020 41 922-939
     doi.org/10.1002/jcc.26139
  3. Neese,F.
     The SHARK Integral Generation and Digestion System
     J. Comp. Chem., 2022  1-16
     doi.org/10.1002/jcc.26942
  4. Lehtola,S.; Steigemann,C.; Oliveira,M.; Marques,M.
     Recent developments in Libxc - A comprehensive library of functionals for density functional theory
     Software X, 2018 7 
     doi.org/10.1016/j.softx.2017.11.002
  5. Caldeweyher,E.; Bannwarth,C.; Grimme,S.
     Extension of the D3 dispersion coefficient model
     J. Chem. Phys., 2017 147 034112-XXXX
     doi.org/10.1063/1.4993215
  6. Caldeweyher,E.; Ehlert,S.; Hansen,A.; Neugebauer,H.; Spicher,S.; Bannwarth,C.; Grimme,S.
     A generally applicable atomic-charge dependent London dispersion correction
     J. Chem. Phys., 2019 150 154122-XXXX
     doi.org/10.1063/1.5090222
  7. Caldeweyher,E.; Mewes,J.; Ehlert,S.; Grimme,S.
     Extension and evaluation of the D4 London-dispersion model for periodic systems
     Phys. Chem. Chem. Phys., 2020 22(16)8499-8512
     doi.org/10.1039/D0CP00502A

List of suggested additional citations. These are papers that are important in the 'surrounding' of 
of this run, or papers that preceded the highly important papers. If you like your results we are grateful for a citation.

  1. Neese,F.
     The ORCA program system
     WIRES Comput. Molec. Sci., 2012 2(1)73-78
     doi.org/10.1002/wcms.81
  2. Neese,F.
     Software update: the ORCA program system, version 4.0
     WIRES Comput. Molec. Sci., 2018 8(1)1-6
     doi.org/10.1002/wcms.1327
  3. Neese,F.; Wennmohs,F.; Becker,U.; Riplinger,C.
     The ORCA quantum chemistry program package
     J. Chem. Phys., 2020 152 Art. No. L224108
     doi.org/10.1063/5.0004608

List of optional additional citations

  1. Neese,F.
     Approximate second-order SCF convergence for spin unrestricted wavefunctions
     Chem. Phys. Lett., 2000 325(1-3)93-98
     doi.org/10.1016/s0009-2614(00)00662-x

Timings for individual modules:

Sum of individual times          ...       43.362 sec (=   0.723 min)
Startup calculation              ...        1.735 sec (=   0.029 min)   4.0 %
SCF iterations                   ...       22.338 sec (=   0.372 min)  51.5 %
Property calculations            ...        0.116 sec (=   0.002 min)   0.3 %
SCF Gradient evaluation          ...       19.174 sec (=   0.320 min)  44.2 %
                             ****ORCA TERMINATED NORMALLY****
TOTAL RUN TIME: 0 days 0 hours 0 minutes 44 seconds 230 msec
  ------------------------------------------------------------------------
          * successful ORCA run, taking over control again...

         :::::::::::::::::::::::::::::::::::::::::::::::::::::
         ::                  ORCA SUMMARY                   ::
         :::::::::::::::::::::::::::::::::::::::::::::::::::::
         :: total energy            -687.116918372885 Eh    ::
         :: gradient norm              0.005221993403 Eh/a0 ::
         :: HOMO-LUMO gap              0.000000000000 eV    ::
         :::::::::::::::::::::::::::::::::::::::::::::::::::::

      ----------------------------------------------------------- 
     |                       L-ANC optimizer                     |
      ----------------------------------------------------------- 
          low memory version by Sebastian Ehlert

          ...................................................
          :                      SETUP                      :
          :.................................................:
          :   energy convergence        0.5000000E-05 Eh    :
          :   grad. convergence         0.1000000E-02 Eh/a0 :
          :   optimization log               true           :
          :   writing optlog all                1     steps :
          :   Hessian reset                     8     steps :
          :   maximium step len.        1.0000000     a0    :
          :   LBFGS images                      8           :
          ...................................................
 * calculating model hessian...
Using Lindh-Hessian (1995)
 Shifting diagonal of input Hessian by   1.000000000000000E-002
 Lowest  eigenvalues of input Hessian
    0.000000    0.000000    0.000000    0.000000    0.000000    0.000000
    0.012736    0.014627    0.015919    0.016446    0.019521    0.022728
    0.025415    0.025633    0.028081    0.033339    0.035415    0.038708
 Highest eigenvalues
    1.406085    1.439004    1.454516    1.463965    1.495218    1.576072
 

........................................................................
.............................. CYCLE    1 ..............................
........................................................................
                         * ORCA takes the control...
  ------------------------------------------------------------------------

                                 *****************
                                 * O   R   C   A *
                                 *****************

                                            #,                                       
                                            ###                                      
                                            ####                                     
                                            #####                                    
                                            ######                                   
                                           ########,                                 
                                     ,,################,,,,,                         
                               ,,#################################,,                 
                          ,,##########################################,,             
                       ,#########################################, ''#####,          
                    ,#############################################,,   '####,        
                  ,##################################################,,,,####,       
                ,###########''''           ''''###############################       
              ,#####''   ,,,,##########,,,,          '''####'''          '####       
            ,##' ,,,,###########################,,,                        '##       
           ' ,,###''''                  '''############,,,                           
         ,,##''                                '''############,,,,        ,,,,,,###''
      ,#''                                            '''#######################'''  
     '                                                          ''''####''''         
             ,#######,   #######,   ,#######,      ##                                
            ,#'     '#,  ##    ##  ,#'     '#,    #''#        ,####,   ,####,        
            ##       ##  ##   ,#'  ##            #'  '#       #'       #'  '#        
            ##       ##  #######   ##           ,######,      #####,   #    #        
            '#,     ,#'  ##    ##  '#,     ,#' ,#      #,     #,   #   #,  ,#        
             '#######'   ##     ##  '#######'  #'      '#     '####' # '####'        



                #########################################################
                #                        -***-                          #
                #          Department of theory and spectroscopy        #
                #                                                       #
                #                      Frank Neese                      #
                #                                                       #
                #     Directorship, Architecture, Infrastructure        #
                #                    SHARK, DRIVERS                     #
                #        Core code/Algorithms in most modules           #
                #                                                       #
                #        Max Planck Institute fuer Kohlenforschung      #
                #                Kaiser Wilhelm Platz 1                 #
                #                 D-45470 Muelheim/Ruhr                 #
                #                      Germany                          #
                #                                                       #
                #                  All rights reserved                  #
                #                        -***-                          #
                #########################################################


                         Program Version 6.0.0  -   RELEASE  -


 With contributions from (in alphabetic order):
   Daniel Aravena         : Magnetic Suceptibility
   Michael Atanasov       : Ab Initio Ligand Field Theory (pilot matlab implementation)
   Alexander A. Auer      : GIAO ZORA, VPT2 properties, NMR spectrum
   Ute Becker             : All parallelization in ORCA, NUMFREQ, NUMCALC
   Giovanni Bistoni       : ED, misc. LED, open-shell LED, HFLD
   Martin Brehm           : Molecular dynamics
   Dmytro Bykov           : pre 5.0 version of the SCF Hessian
   Marcos Casanova-Páez   : Triplet and SCS-CIS(D). UHF-(DLPNO)-IP/EA/STEOM-CCSD. UHF-CVS-IP/STEOM-CCSD
   Vijay G. Chilkuri      : MRCI spin determinant printing, contributions to CSF-ICE
   Pauline Colinet        : FMM embedding
   Dipayan Datta          : RHF DLPNO-CCSD density
   Achintya Kumar Dutta   : EOM-CC, STEOM-CC
   Nicolas Foglia         : Exact transition moments, OPA infrastructure, MCD improvements
   Dmitry Ganyushin       : Spin-Orbit,Spin-Spin,Magnetic field MRCI
   Miquel Garcia          : C-PCM and meta-GGA Hessian, CCSD/C-PCM, Gaussian charge scheme
   Tiago L. C. Gouveia    : GS-ROHF, GS-ROCIS
   Yang Guo               : DLPNO-NEVPT2, F12-NEVPT2, CIM, IAO-localization
   Andreas Hansen         : Spin unrestricted coupled pair/coupled cluster methods
   Ingolf Harden          : AUTO-CI MPn and infrastructure 
   Benjamin Helmich-Paris : MC-RPA, TRAH-(SCF,CASSCF), AVAS, COSX integrals, SCF dyn. polar.
   Lee Huntington         : MR-EOM, pCC
   Robert Izsak           : Overlap fitted RIJCOSX, COSX-SCS-MP3, EOM
   Riya Kayal             : Wick's Theorem for AUTO-CI, AUTO-CI UHF-CCSDT
   Emily Kempfer          : AUTO-CI, RHF CISDT and CCSDT
   Christian Kollmar      : KDIIS, OOCD, Brueckner-CCSD(T), CCSD density, CASPT2, CASPT2-K, improved NEVPT2
   Axel Koslowski         : Symmetry handling
   Simone Kossmann        : Meta GGA functionals, TD-DFT gradient, OOMP2, (MP2 Hessian; deprecated post 5.0)
   Lucas Lang             : DCDCAS
   Marvin Lechner         : AUTO-CI (C++ implementation), FIC-MRCC
   Spencer Leger          : CASSCF response
   Dagmar Lenk            : GEPOL surface, SMD, ORCA-2-JSON
   Dimitrios Liakos       : Extrapolation schemes; Compound Job, initial MDCI parallelization
   Dimitrios Manganas     : Further ROCIS development; embedding schemes. LFT, Crystal Embedding
   Dimitrios Pantazis     : SARC Basis sets
   Anastasios Papadopoulos: AUTO-CI, single reference methods and gradients
   Taras Petrenko         : pre 6.0 DFT Hessian and TD-DFT gradient, (ASA, deprecated), ECA, 1-Electron XAS/XES, NRVS
   Peter Pinski           : DLPNO-MP2, DLPNO-MP2 Gradient
   Christoph Reimann      : Effective Core Potentials
   Marius Retegan         : Local ZFS, SOC
   Christoph Riplinger    : Optimizer, TS searches, QM/MM, DLPNO-CCSD(T), (RO)-DLPNO pert. Triples
   Michael Roemelt        : Original ROCIS implementation
   Masaaki Saitow         : Open-shell DLPNO-CCSD energy and density
   Barbara Sandhoefer     : DKH picture change effects
   Kantharuban Sivalingam : CASSCF convergence/infrastructure, NEVPT2 and variants, FIC-MRCI
   Bernardo de Souza      : ESD, SOC TD-DFT
   Georgi Stoychev        : AutoAux, RI-MP2 NMR, DLPNO-MP2 response, X2C
   Van Anh Tran           : RI-MP2 g-tensors
   Willem Van den Heuvel  : Paramagnetic NMR
   Zikuan Wang            : NOTCH, Electric field optimization 
   Frank Wennmohs         : Technical directorship and infrastructure
   Hang Xu                : AUTO-CI-Response properties 


 We gratefully acknowledge several colleagues who have allowed us to
 interface, adapt or use parts of their codes:
   Stefan Grimme, W. Hujo, H. Kruse, P. Pracht,  : VdW corrections, initial TS optimization,
                  C. Bannwarth, S. Ehlert,         DFT functionals, gCP, sTDA/sTD-DF
                  L. Wittmann, M. Mueller
   Ed Valeev, F. Pavosevic, A. Kumar             : LibInt (2-el integral package), F12 methods
   Garnet Chan, S. Sharma, J. Yang, R. Olivares  : DMRG
   Ulf Ekstrom                                   : XCFun DFT Library
   Mihaly Kallay                                 : mrcc  (arbitrary order and MRCC methods)
   Frank Weinhold                                : gennbo (NPA and NBO analysis)
   Simon Mueller                                 : openCOSMO-RS
   Christopher J. Cramer and Donald G. Truhlar   : smd solvation model
   Lars Goerigk                                  : TD-DFT with DH, B97 family of functionals
   V. Asgeirsson, H. Jonsson                     : NEB implementation
   FAccTs GmbH                                   : IRC, NEB, NEB-TS, DLPNO-Multilevel, CI-OPT
                                                   MM, QMMM, 2- and 3-layer-ONIOM, Crystal-QMMM,
                                                   LR-CPCM, SF, NACMEs, symmetry and pop. for TD-DFT,
                                                   nearIR, NL-DFT gradient (VV10), updates on ESD,
                                                   ML-optimized integration grids, MBIS, APM,
                                                   GOAT, DOCKER, SOLVATOR, interface openCOSMO-RS
   S Lehtola, MJT Oliveira, MAL Marques          : LibXC Library
   Liviu Ungur et al                             : ANISO software


 Your calculation uses the libint2 library for the computation of 2-el integrals
 For citations please refer to: http://libint.valeyev.net

 Your ORCA version has been built with support for libXC version: 6.2.2
 For citations please refer to: https://libxc.gitlab.io

 This ORCA versions uses:
   CBLAS   interface :  Fast vector & matrix operations
   LAPACKE interface :  Fast linear algebra routines
   SCALAPACK package :  Parallel linear algebra routines
   Shared memory     :  Shared parallel matrices
   BLAS/LAPACK       :  OpenBLAS 0.3.27  USE64BITINT DYNAMIC_ARCH NO_AFFINITY SkylakeX SINGLE_THREADED
        Core in use  :  SkylakeX
   Copyright (c) 2011-2014, The OpenBLAS Project




***************************************
The coordinates will be read from file: xtb_opt.xyz
***************************************


Your calculation utilizes the geometrical counterpoise correction gCP
Please cite in your paper:
H.Kruse, S. Grimme J.Chem.Phys., 136, (2012), 154101 
   

Your calculation utilizes the atom-pairwise dispersion correction
based on EEQ partial charges (D4)


Your calculation utilizes the SMD solvation module
Please cite in your paper:
A.V. Marenich, C.J. Cramer, D.G. Truhlar J. Phys. Chem. B, 113, (2009), 6378 

================================================================================

----- Orbital basis set information -----
Your calculation utilizes the basis: def2-mTZVPP
   Stefan Grimme, Andreas Hansen, Sebastian Ehlert, and Jan-Michael Mewes 
   J. Chem. Phys. 154, 064103 (2021). DOI: 10.1063/5.0040021

----- AuxJ basis set information -----
Your calculation utilizes the auxiliary basis: def2/J
   F. Weigend, Phys. Chem. Chem. Phys. 8, 1057 (2006).

================================================================================
                                        WARNINGS
                       Please study these warnings very carefully!
================================================================================

WARNING: Old DensityContainer found on disk!
         Will remove this file - 
         If you want to keep old densities, please start your calculation with a different basename. 

Using LibXC functional ID 497 : Re-regularized SCAN exchange by Furness et al
[ 1]  J. W. Furness, A. D. Kaplan, J. Ning, J. P. Perdew, and J. Sun.,  J. Phys. Chem. Lett. 11, 8208-8215 (2020)
[ 2]  J. W. Furness, A. D. Kaplan, J. Ning, J. P. Perdew, and J. Sun.,  J. Phys. Chem. Lett. 11, 9248-9248 (2020)
Using LibXC functional ID 498 : Re-regularized SCAN correlation by Furness et al
[ 1]  J. W. Furness, A. D. Kaplan, J. Ning, J. P. Perdew, and J. Sun.,  J. Phys. Chem. Lett. 11, 8208-8215 (2020)
[ 2]  J. W. Furness, A. D. Kaplan, J. Ning, J. P. Perdew, and J. Sun.,  J. Phys. Chem. Lett. 11, 9248-9248 (2020)
Using LibXC functional ID 497 : Re-regularized SCAN exchange by Furness et al
[ 1]  J. W. Furness, A. D. Kaplan, J. Ning, J. P. Perdew, and J. Sun.,  J. Phys. Chem. Lett. 11, 8208-8215 (2020)
[ 2]  J. W. Furness, A. D. Kaplan, J. Ning, J. P. Perdew, and J. Sun.,  J. Phys. Chem. Lett. 11, 9248-9248 (2020)
Using LibXC functional ID 498 : Re-regularized SCAN correlation by Furness et al
[ 1]  J. W. Furness, A. D. Kaplan, J. Ning, J. P. Perdew, and J. Sun.,  J. Phys. Chem. Lett. 11, 8208-8215 (2020)
[ 2]  J. W. Furness, A. D. Kaplan, J. Ning, J. P. Perdew, and J. Sun.,  J. Phys. Chem. Lett. 11, 9248-9248 (2020)

================================================================================
                                       INPUT FILE
================================================================================
NAME = xtb_opt.inp
|  1> ! r2scan-3c def2/J RI DEFGRID2 scfconv7 ENGRAD tightSCF miniprint
|  2> %cpcm
|  3>     smd true
|  4>     smdsolvent "water"
|  5> end
|  6> * xyzfile 0 1 xtb_opt.xyz
|  7> 
|  8>                          ****END OF INPUT****
================================================================================

                     *******************************
                     * Energy+Gradient Calculation *
                     *******************************

---------------------------------
CARTESIAN COORDINATES (ANGSTROEM)
---------------------------------
  C     -2.584568   -0.616252   -0.320439
  C     -1.203225   -0.269226    0.196851
  H     -1.213940   -0.247650    1.298705
  C     -0.694506    1.070210   -0.333676
  H     -0.716260    1.054564   -1.434788
  C      0.739270    1.283508    0.133916
  H      0.729513    1.390915    1.232389
  C      1.630591    0.094852   -0.224122
  H      1.725883    0.012666   -1.313400
  C      0.995077   -1.189561    0.301044
  H      0.918018   -1.168981    1.401955
  O     -0.321300   -1.310734   -0.256503
  O      1.751031   -2.283717   -0.138613
  O      2.953952    0.285746    0.280376
  O      1.214235    2.490039   -0.470407
  O     -1.555587    2.097046    0.168335
  O     -3.078170   -1.830864    0.255800
  H     -2.555586   -0.687597   -1.417415
  H     -3.286647    0.171958   -0.040144
  H      1.489240   -3.058968    0.377694
  H      2.891419    0.392486    1.240594
  H      2.111387    2.641408   -0.143083
  H     -1.204038    2.941653   -0.144005
  H     -2.474072   -2.537205   -0.008675

----------------------------
CARTESIAN COORDINATES (A.U.)
----------------------------
  NO LB      ZA    FRAG     MASS         X           Y           Z
   0 C     6.0000    0    12.011   -4.884126   -1.164548   -0.605541
   1 C     6.0000    0    12.011   -2.273765   -0.508763    0.371994
   2 H     1.0000    0     1.008   -2.294014   -0.467991    2.454196
   3 C     6.0000    0    12.011   -1.312426    2.022403   -0.630556
   4 H     1.0000    0     1.008   -1.353535    1.992837   -2.711357
   5 C     6.0000    0    12.011    1.397018    2.425478    0.253065
   6 H     1.0000    0     1.008    1.378580    2.628448    2.328877
   7 C     6.0000    0    12.011    3.081371    0.179245   -0.423529
   8 H     1.0000    0     1.008    3.261446    0.023935   -2.481966
   9 C     6.0000    0    12.011    1.880423   -2.247944    0.568890
  10 H     1.0000    0     1.008    1.734802   -2.209053    2.649312
  11 O     8.0000    0    15.999   -0.607170   -2.476929   -0.484721
  12 O     8.0000    0    15.999    3.308968   -4.315600   -0.261940
  13 O     8.0000    0    15.999    5.582160    0.539981    0.529835
  14 O     8.0000    0    15.999    2.294572    4.705492   -0.888941
  15 O     8.0000    0    15.999   -2.939633    3.962842    0.318108
  16 O     8.0000    0    15.999   -5.816898   -3.459832    0.483393
  17 H     1.0000    0     1.008   -4.829358   -1.299370   -2.678526
  18 H     1.0000    0     1.008   -6.210863    0.324954   -0.075861
  19 H     1.0000    0     1.008    2.814257   -5.780612    0.713739
  20 H     1.0000    0     1.008    5.463989    0.741692    2.344383
  21 H     1.0000    0     1.008    3.989943    4.991538   -0.270388
  22 H     1.0000    0     1.008   -2.275302    5.558919   -0.272131
  23 H     1.0000    0     1.008   -4.675319   -4.794622   -0.016392

------------------------------------------------------------------------------
                   ___                                                        
                  /   \      - P O W E R E D   B Y -                         
                 /     \                                                     
                 |  |  |   _    _      __       _____    __    __             
                 |  |  |  | |  | |    /  \     |  _  \  |  |  /  |          
                  \  \/   | |  | |   /    \    | | | |  |  | /  /          
                 / \  \   | |__| |  /  /\  \   | |_| |  |  |/  /          
                |  |  |   |  __  | /  /__\  \  |    /   |      \           
                |  |  |   | |  | | |   __   |  |    \   |  |\   \          
                \     /   | |  | | |  |  |  |  | |\  \  |  | \   \       
                 \___/    |_|  |_| |__|  |__|  |_| \__\ |__|  \__/        
                                                                              
                      - O R C A' S   B I G   F R I E N D -                    
                                      &                                       
                       - I N T E G R A L  F E E D E R -                       
                                                                              
 v1 FN, 2020, v2 2021, v3 2022-2024                                           
------------------------------------------------------------------------------


----------------------
SHARK INTEGRAL PACKAGE
----------------------

Number of atoms                             ...     24
Number of basis functions                   ...    318
Number of shells                            ...    150
Maximum angular momentum                    ...      2
Integral batch strategy                     ... SHARK/LIBINT Hybrid
RI-J (if used) integral strategy            ... SPLIT-RIJ (Revised 2003 algorithm where possible)
Printlevel                                  ...      1
Contraction scheme used                     ... SEGMENTED contraction
Prescreening option                         ... SCHWARTZ
   Thresh                                   ... 3.000e-11
   Tcut                                     ... 1.000e-12
   Tpresel                                  ... 1.000e-12 
Coulomb Range Separation                    ... NOT USED
Exchange Range Separation                   ... NOT USED
Multipole approximations                    ... NOT USED
Finite Nucleus Model                        ... NOT USED
CABS basis                                  ... NOT available
Auxiliary Coulomb fitting basis             ... AVAILABLE
   # of basis functions in Aux-J            ...    720
   # of shells in Aux-J                     ...    240
   Maximum angular momentum in Aux-J        ...      4
Auxiliary J/K fitting basis                 ... NOT available
Auxiliary Correlation fitting basis         ... NOT available
Auxiliary 'external' fitting basis          ... NOT available

Checking pre-screening integrals            ... done (  0.0 sec) Dimension = 150
Check shell pair data                       ... done (  0.0 sec)
Shell pair information
Shell pair cut-off parameter TPreSel        ...   1.0e-12
Total number of shell pairs                 ...     11325
Shell pairs after pre-screening             ...      9773
Total number of primitive shell pairs       ...     40203
Primitive shell pairs kept                  ...     23801
          la=0 lb=0:   2948 shell pairs
          la=1 lb=0:   3495 shell pairs
          la=1 lb=1:   1051 shell pairs
          la=2 lb=0:   1330 shell pairs
          la=2 lb=1:    791 shell pairs
          la=2 lb=2:    158 shell pairs

Calculating one electron integrals          ... done (  0.1 sec)
Calculating RI/J V-Matrix + Cholesky decomp.... done (  0.1 sec)
Calculating Nuclear repulsion               ... done (  0.0 sec) ENN=    821.909050084240 Eh

Diagonalization of the overlap matrix:
Smallest eigenvalue                        ... 3.044e-05
Time for diagonalization                   ...    0.009 sec
Threshold for overlap eigenvalues          ... 1.000e-07
Number of eigenvalues below threshold      ... 0
Time for construction of square roots      ...    0.017 sec
Total time needed                          ...    0.034 sec

-------------------
DFT GRID GENERATION
-------------------

General Integration Accuracy     IntAcc      ... 4.388
Radial Grid Type                 RadialGrid  ... OptM3 with GC (2021)
Angular Grid (max. ang.)         AngularGrid ... 4 (Lebedev-302)
Angular grid pruning method      GridPruning ... 4 (adaptive)
Weight generation scheme         WeightScheme... mBecke (2022)
Basis function cutoff            BFCut       ... 1.0000e-11
Integration weight cutoff        WCut        ... 1.0000e-14
Partially contracted basis set               ... off
Rotationally invariant grid construction     ... off
Angular grids for H and He will be reduced by one unit
Diffuse basis detected: some atoms will have their outermost
                        angular grid increased by 1.

Total number of grid points                  ...   112040
Total number of batches                      ...     1764
Average number of points per batch           ...       63
Average number of grid points per atom       ...     4668
Initializing property integral containers    ... done (  0.0 sec)

SHARK setup successfully completed in   1.7 seconds

Maximum memory used throughout the entire STARTUP-calculation: 55.1 MB
Occupation numbers will be reassigned to an Aufbau configuration
             **** ENERGY FILE WAS UPDATED (xtb_opt.en.tmp) ****
Finished Guess after   0.3 sec
Maximum memory used throughout the entire GUESS-calculation: 25.8 MB
--------------------
CPCM SOLVATION MODEL
--------------------
CPCM parameters:
  Epsilon                                         ...      78.3550
  Refrac                                          ...       1.3328
  Rsolv                                           ...       1.3000
  Surface type                                    ... GAUSSIAN VDW
  Discretization scheme                           ... Constant charge density
    Threshold for H atoms                         ...       5.0000 (charges/Ang^2)
    Threshold for non-H atoms                     ...       5.0000 (charges/Ang^2)
  Epsilon function type                           ...         CPCM
Solvent:                                          ... WATER
SMD-CDS solvent descriptors:
  Soln                                            ...       1.3328
  Soln25                                          ...       1.3323
  Sola                                            ...       0.0000
  Solb                                            ...       0.0000
  Solg                                            ...       0.0000
  Solc                                            ...       0.0000
  Solh                                            ...       0.0000
Radii:
  Scheme                                          ... Element-dependent radii
  Radius for C  used is    3.4960 Bohr (=   1.8500 Ang.)
  Radius for H  used is    2.2677 Bohr (=   1.2000 Ang.)
  Radius for O  used is    2.8724 Bohr (=   1.5200 Ang.)
Calculating surface                               ...        done! (  0.0s)
Cavity surface points                             ...         1613
Cavity Volume                                     ...    1043.6972
Cavity Surface-area                               ...     670.6147
Calculating surface distance matrix               ...        done! (  0.0s)
Performing Cholesky decomposition & store         ...        done! (  0.1s)
Overall time for CPCM initialization              ...                 0.1s

----------------------------------------D-I-I-S--------------------------------------------
Iteration    Energy (Eh)           Delta-E    RMSDP     MaxDP     DIISErr   Damp  Time(sec)
-------------------------------------------------------------------------------------------
               ***  Starting incremental Fock matrix formation  ***
                              *** Initializing SOSCF ***
---------------------------------------S-O-S-C-F--------------------------------------
Iteration    Energy (Eh)           Delta-E    RMSDP     MaxDP     MaxGrad    Time(sec)
--------------------------------------------------------------------------------------
    1    -687.1342239657897153     0.00e+00  7.70e-05  2.67e-03  7.92e-05     6.2
               *** Restarting incremental Fock matrix formation ***
    2    -687.1342545059283111    -3.05e-05  2.71e-05  1.41e-03  8.52e-05     6.2
    3    -687.1342554663654028    -9.60e-07  1.76e-05  1.24e-03  9.43e-05     4.5
    4    -687.1342561224400924    -6.56e-07  8.30e-06  2.82e-04  3.15e-05     4.5
    5    -687.1342563482628520    -2.26e-07  3.39e-06  2.13e-04  7.91e-06     4.4
                  *** Gradient check signals convergence ***

               *****************************************************
               *                     SUCCESS                       *
               *           SCF CONVERGED AFTER   5 CYCLES          *
               *****************************************************


SMD CDS free energy correction energy :                 4.02158     Kcal/mol
Total Energy after SMD CDS correction =              -687.127847554 Eh
             **** ENERGY FILE WAS UPDATED (xtb_opt.en.tmp) ****

----------------
TOTAL SCF ENERGY
----------------

Total Energy       :       -687.12784755407097 Eh          -18697.69930 eV

Components:
Nuclear Repulsion  :        821.90905008423965 Eh           22365.28228 eV
Electronic Energy  :      -1508.98732462108319 Eh          -41061.63264 eV
One Electron Energy:      -2573.90387608497622 Eh          -70039.48521 eV
Two Electron Energy:       1064.91655146389303 Eh           28977.85257 eV
CPCM Dielectric    :         -0.05598181141934 Eh              -1.52334 eV
SMD CDS (Gcds)     :          0.00640879419191 Eh               0.17439 eV

Virial components:
Potential Energy   :      -1371.30970200449019 Eh          -37315.23406 eV
Kinetic Energy     :        684.18185445041922 Eh           18617.53476 eV
Virial Ratio       :          2.00430586266574

DFT components:
N(Alpha)           :       47.999995263339 electrons
N(Beta)            :       47.999995263339 electrons
N(Total)           :       95.999990526678 electrons
E(X)               :      -85.235466046239 Eh       
E(C)               :       -3.188293805922 Eh       
E(XC)              :      -88.423759852161 Eh       

CPCM Solvation Model Properties:
Surface-charge          :         -0.05126729800876
Corrected charge        :         -0.00000000000000
Outlying charge corr.   :          0.00018955809348 Eh               0.00516 eV
Free-energy (cav+disp)  :          0.00640879419191 Eh               0.17439 eV

---------------
SCF CONVERGENCE
---------------

  Last Energy change         ...    2.2582e-07  Tolerance :   1.0000e-07
  Last MAX-Density change    ...    2.1348e-04  Tolerance :   1.0000e-07
  Last RMS-Density change    ...    3.3900e-06  Tolerance :   5.0000e-09
  Last DIIS Error            ...    1.5658e-03  Tolerance :   1.0000e-07
  Last Orbital Gradient      ...    7.9073e-06  Tolerance :   1.0000e-04
  Last Orbital Rotation      ...    1.5116e-05  Tolerance :   1.0000e-04


----------------
ORBITAL ENERGIES
----------------

  NO   OCC          E(Eh)            E(eV) 
   0   2.0000     -18.973046      -516.2828 
   1   2.0000     -18.971527      -516.2415 
   2   2.0000     -18.964724      -516.0564 
   3   2.0000     -18.961457      -515.9675 
   4   2.0000     -18.961307      -515.9634 
   5   2.0000     -18.957057      -515.8478 
   6   2.0000     -10.138987      -275.8959 
   7   2.0000     -10.091444      -274.6021 
   8   2.0000     -10.090921      -274.5879 
   9   2.0000     -10.089891      -274.5599 
  10   2.0000     -10.089720      -274.5552 
  11   2.0000     -10.078554      -274.2514 
  12   2.0000      -1.043759       -28.4021 
[...]
  30   2.0000      -0.438903       -11.9431 
  31   2.0000      -0.416745       -11.3402 
  32   2.0000      -0.409689       -11.1482 
  33   2.0000      -0.384332       -10.4582 
  34   2.0000      -0.381466       -10.3802 
  35   2.0000      -0.378993       -10.3129 
  36   2.0000      -0.352485        -9.5916 
  37   2.0000      -0.336496        -9.1565 
  38   2.0000      -0.328927        -8.9506 
  39   2.0000      -0.320787        -8.7290 
  40   2.0000      -0.312643        -8.5074 
  41   2.0000      -0.304500        -8.2859 
  42   2.0000      -0.280146        -7.6232 
  43   2.0000      -0.277478        -7.5506 
  44   2.0000      -0.258023        -7.0212 
  45   2.0000      -0.251829        -6.8526 
  46   2.0000      -0.245294        -6.6748 
  47   2.0000      -0.232164        -6.3175 
  48   0.0000       0.033520         0.9121 
  49   0.0000       0.056376         1.5341 
  50   0.0000       0.077214         2.1011 
  51   0.0000       0.082378         2.2416 
  52   0.0000       0.087050         2.3687 
  53   0.0000       0.100830         2.7437 
  54   0.0000       0.108722         2.9585 
  55   0.0000       0.124151         3.3783 
  56   0.0000       0.135995         3.7006 
  57   0.0000       0.139690         3.8012 
  58   0.0000       0.148848         4.0504 
*Only the first 10 virtual orbitals were printed.
Total SCF time: 0 days 0 hours 0 min 12 sec 
Finished LeanSCF after  13.1 sec

Maximum memory used throughout the entire LEANSCF-calculation: 42.9 MB


-------------------------------------------------------------------------------
                          DFT DISPERSION CORRECTION                            
                                                                               
                                DFTD4 V3.4.0                                   
-------------------------------------------------------------------------------
-------------------------   ----------------
Dispersion correction           -0.007954451
-------------------------   ----------------

------------------   -----------------
gCP correction             0.018835966
------------------   -----------------

-------------------------   --------------------
FINAL SINGLE POINT ENERGY      -687.117024783054
-------------------------   --------------------

------------------------------------------------------------------------------
                         ORCA SCF GRADIENT CALCULATION
------------------------------------------------------------------------------

Nuc. rep. gradient        (SHARK) ... done (  0.0 sec)
HCore & Overlap gradient  (SHARK) ... done (  0.6 sec)
Split-RIJ-J gradient      (SHARK) ... done (  3.5 sec)
XC gradient                       ... done ( 11.7 sec)
CPCM gradient                     ... done (  1.7 sec)
SMD gradient                      ... done (  0.0 sec)
Dispersion correction             ... done (  0.0 sec)

-------------------
DISPERSION GRADIENT
-------------------

   1   C   :   -0.000110680   -0.000025101   -0.000019924
   2   C   :   -0.000050657   -0.000020688    0.000010936
   3   H   :   -0.000038911   -0.000008859    0.000024510
   4   C   :   -0.000035340    0.000058099   -0.000019183
   5   H   :   -0.000018073    0.000033160   -0.000026706
   6   C   :    0.000038582    0.000054792    0.000008180
   7   H   :    0.000017016    0.000039695    0.000016752
   8   C   :    0.000077138   -0.000004803   -0.000007109
   9   H   :    0.000045001   -0.000004300   -0.000021399
  10   C   :    0.000043739   -0.000048158    0.000019684
  11   H   :    0.000030848   -0.000039209    0.000016962
  12   O   :   -0.000007817   -0.000070541   -0.000003031
  13   O   :    0.000064774   -0.000109668    0.000006976
  14   O   :    0.000099630    0.000011662    0.000032637
  15   O   :    0.000057856    0.000104280   -0.000011906
  16   O   :   -0.000055870    0.000112741    0.000000737
  17   O   :   -0.000079274   -0.000069961   -0.000000834
  18   H   :   -0.000047986   -0.000020434   -0.000017805
  19   H   :   -0.000044797   -0.000009422    0.000000797
  20   H   :    0.000025949   -0.000037454   -0.000006162
  21   H   :    0.000050485    0.000001983   -0.000001959
  22   H   :    0.000013899    0.000035156   -0.000012477
  23   H   :   -0.000024530    0.000033125    0.000004834
  24   H   :   -0.000050981   -0.000016097    0.000005493

Difference to translation invariance:
           :   -0.0000000000   -0.0000000000   -0.0000000000

Difference to rotation invariance:
           :   -0.0000000000    0.0000000000    0.0000000000

Norm of the Dispersion gradient    ...    0.0003717008
RMS gradient                       ...    0.0000438054
MAX gradient                       ...    0.0001127409
gCP correction                   ... done

------------------
CARTESIAN GRADIENT
------------------

   1   C   :   -0.000059128   -0.000121858    0.000022278
   2   C   :    0.000095175    0.000013940   -0.000019444
   3   H   :   -0.000004450   -0.000008499    0.000011379
   4   C   :   -0.000042050    0.000032412    0.000026617
   5   H   :   -0.000010242    0.000003330   -0.000011387
   6   C   :   -0.000025844   -0.000062806    0.000011034
   7   H   :   -0.000011826    0.000002277    0.000013864
   8   C   :    0.000110419    0.000079141   -0.000024374
   9   H   :    0.000007593   -0.000001511   -0.000003408
  10   C   :    0.000062702   -0.000077195   -0.000036871
  11   H   :   -0.000020042    0.000011527    0.000011956
  12   O   :   -0.000032937    0.000016084   -0.000010447
  13   O   :   -0.000211578   -0.000158129    0.000211399
  14   O   :   -0.000023452    0.000008347   -0.000132506
  15   O   :    0.000012288   -0.000008027    0.000070841
  16   O   :    0.000001294    0.000040499    0.000001633
  17   O   :    0.000043982    0.000063159   -0.000025812
  18   H   :    0.000001617    0.000011703   -0.000019603
  19   H   :   -0.000014846    0.000005065   -0.000000642
  20   H   :    0.000168628    0.000223072   -0.000179799
  21   H   :    0.000000112   -0.000001462    0.000137418
  22   H   :   -0.000024391   -0.000019204   -0.000047559
  23   H   :   -0.000034844   -0.000035830    0.000022097
  24   H   :    0.000011820   -0.000016033   -0.000028664

Difference to translation invariance:
           :    0.0000000000   -0.0000000000   -0.0000000000

Difference to rotation invariance:
           :    0.0005576433   -0.0000820291    0.0009167193

Norm of the Cartesian gradient     ...    0.0005947737
RMS gradient                       ...    0.0000700948
MAX gradient                       ...    0.0002230718

-------
TIMINGS
-------

Total SCF gradient time     ....       18.960 sec

Densities                   ....       0.001 sec  (  0.0%)
One electron gradient       ....       0.647 sec  (  3.4%)
RI-J Coulomb gradient       ....       3.490 sec  ( 18.4%)
XC gradient                 ....      11.747 sec  ( 62.0%)
CPCM gradient               ....       1.665 sec  (  8.8%)
   A-Matrix (El+Nuc)        ....       0.087 sec  (  0.5%)
   Potential                ....       1.578 sec  (  8.3%)
SMD gradient                ....       0.014 sec  (  0.1%)

Maximum memory used throughout the entire SCFGRAD-calculation: 46.1 MB

------------------------------------------------------------------------------
                              ORCA PROPERTY CALCULATIONS
------------------------------------------------------------------------------

GBWName                                 ... xtb_opt.gbw
Number of atoms                         ...     24
Number of basis functions               ...    318
Max core memory                         ...   1024 MB

Electric properties:
Dipole moment                           ... YES
Quadrupole moment                       ...  NO
Static polarizability (Dipole/Dipole)   ...  NO
Static polarizability (Dipole/Quad.)    ...  NO
Static polarizability (Quad./Quad.)     ...  NO
Static polarizability (Velocity)        ...  NO

Atomic electric properties:
Dipole moment                           ...  NO
Quadrupole moment                       ...  NO
Static polarizability                   ...  NO

Choice of electric origin               ... Center of mass
Position of electric origin             ...    -0.000255    -0.042426    -0.055971

General magnetic properties:
Magnetizability                         ...  NO

EPR properties:
g-Tensor (aka g-matrix)                 ...  NO
Zero-Field splitting spin-orbit         ...  NO
Zero-field splitting spin-spin          ...  NO
Hyperfine couplings                     ...  NO (   0 nuclei)
Quadrupole couplings                    ...  NO (   0 nuclei)
Contact density                         ...  NO (   0 nuclei)

NMR properties:
Chemical shifts                         ...  NO (   0 nuclei)
Spin-rotation constants                 ...  NO (   0 nuclei)
Spin-spin couplings                     ...  NO (   0 nuclei,    0 pairs)

Choice of magnetic origin               ... GIAO
Position of magnetic origin             ...     0.000000     0.000000     0.000000

Properties with geometric perturbations:
SCF Hessian                             ...  NO
IR spectrum                             ...  NO
VCD spectrum                            ...  NO
X-ray spectroscopy properties:
SCF XES/XAS/RIXS spectra                ...  NO


-------------
DIPOLE MOMENT
-------------

Method             : SCF
Type of density    : Electron Density
Multiplicity       :   1
Irrep              :   0
Energy             :  -687.1279062978239836 Eh
Relativity type    : 
Basis              : AO
                                X                 Y                 Z
Electronic contribution:      2.310388274      -0.873262999      -0.079509998
Nuclear contribution   :     -1.442661103       1.137254308       1.375082641
                        -----------------------------------------
Total Dipole Moment    :      0.867727170       0.263991309       1.295572644
                        -----------------------------------------
Magnitude (a.u.)       :      1.581502554
Magnitude (Debye)      :      4.019860028



--------------------
Rotational spectrum 
--------------------
 
Rotational constants in cm-1:             0.038767             0.026002             0.016303 
Rotational constants in MHz :          1162.207044           779.512220           488.744674 

Dipole components along the rotational axes: 
x,y,z [a.u.] :     0.899719    -0.063751     1.299074 
x,y,z [Debye]:     2.286903    -0.162043     3.301983 

 

Dipole moment calculation done in   0.0 sec 

Maximum memory used throughout the entire PROP-calculation: 24.4 MB

--------------------------------
SUGGESTED CITATIONS FOR THIS RUN
--------------------------------

Below you find a list of papers that are relevant to this ORCA run
We neither can nor want to force you to cite these papers, but we appreciate if you do
You receive ORCA, which is the product of decades of hard work by many enthusiastic individuals, for free
The only thing we kindly ask in return is that you cite our papers,
We deeply appreciate it, if you show your appreciation for ORCA by not just citing the generic ORCA reference.

Please note that relegating all ORCA citations to the supporting information does *not* help us.
SI sections are not indexed - citations you put there will not count into any citation statistics
But we need these citations in order to attract the funding resources that allow us to do what we are doing

Therefore, if you are a happy ORCA user, please consider citing a few of the papers listed below in the main body of your paper

In addition to the list printed below, the program has created the file xtb_opt.bibtex that contains the list in bibtex format
You can import this file easily into all common literature databanks and citation aid programs


List of essential papers. We consider these as the minimum necessary citations

  1. Neese,F.
     Software update: the ORCA program system, version 5.0
     WIRES Comput. Molec. Sci., 2022 12(1)e1606
     doi.org/10.1002/wcms.1606
  2. Grimme,S.; Hansen,A.; Ehlert,S.; Mewes,J.
     r2SCAN-3c: A 'Swiss army knife' composite electronic-structure method
     J. Chem. Phys., 2021 154 064103
     doi.org/10.1063/5.0040021

List of papers to cite with high priority. The work reported in these papers was absolutely
necessary for this run to complete.
Our perspective: the developers of density functionals and basis sets usually get cited in chemistry papers
Good! But without the algorithms to do something with them, the functionals or basis sets would not do anything.
Hence, in our opinion, the algorithm design and method developments papers are equally worthy of getting cited

  1. Neese,F.
     An improvement of the resolution of the identity approximation for the formation of the Coulomb matrix
     J. Comp. Chem., 2003 24(14)1740-1747
     doi.org/10.1002/jcc.10318
  2. Garcia-Rates,M.; Neese,F.
     Effect of the Solute Cavity on the Solvation Energy and its Derivatives within the Framework of the Gaussian Charge Scheme
     J. Comput. Chem., 2020 41 922-939
     doi.org/10.1002/jcc.26139
  3. Neese,F.
     The SHARK Integral Generation and Digestion System
     J. Comp. Chem., 2022  1-16
     doi.org/10.1002/jcc.26942
  4. Lehtola,S.; Steigemann,C.; Oliveira,M.; Marques,M.
     Recent developments in Libxc - A comprehensive library of functionals for density functional theory
     Software X, 2018 7 
     doi.org/10.1016/j.softx.2017.11.002
  5. Caldeweyher,E.; Bannwarth,C.; Grimme,S.
     Extension of the D3 dispersion coefficient model
     J. Chem. Phys., 2017 147 034112-XXXX
     doi.org/10.1063/1.4993215
  6. Caldeweyher,E.; Ehlert,S.; Hansen,A.; Neugebauer,H.; Spicher,S.; Bannwarth,C.; Grimme,S.
     A generally applicable atomic-charge dependent London dispersion correction
     J. Chem. Phys., 2019 150 154122-XXXX
     doi.org/10.1063/1.5090222
  7. Caldeweyher,E.; Mewes,J.; Ehlert,S.; Grimme,S.
     Extension and evaluation of the D4 London-dispersion model for periodic systems
     Phys. Chem. Chem. Phys., 2020 22(16)8499-8512
     doi.org/10.1039/D0CP00502A

List of suggested additional citations. These are papers that are important in the 'surrounding' of 
of this run, or papers that preceded the highly important papers. If you like your results we are grateful for a citation.

  1. Neese,F.
     The ORCA program system
     WIRES Comput. Molec. Sci., 2012 2(1)73-78
     doi.org/10.1002/wcms.81
  2. Neese,F.
     Software update: the ORCA program system, version 4.0
     WIRES Comput. Molec. Sci., 2018 8(1)1-6
     doi.org/10.1002/wcms.1327
  3. Neese,F.; Wennmohs,F.; Becker,U.; Riplinger,C.
     The ORCA quantum chemistry program package
     J. Chem. Phys., 2020 152 Art. No. L224108
     doi.org/10.1063/5.0004608

List of optional additional citations

  1. Neese,F.
     Approximate second-order SCF convergence for spin unrestricted wavefunctions
     Chem. Phys. Lett., 2000 325(1-3)93-98
     doi.org/10.1016/s0009-2614(00)00662-x

Timings for individual modules:

Sum of individual times          ...       34.347 sec (=   0.572 min)
Startup calculation              ...        1.626 sec (=   0.027 min)   4.7 %
SCF iterations                   ...       13.517 sec (=   0.225 min)  39.4 %
Property calculations            ...        0.137 sec (=   0.002 min)   0.4 %
SCF Gradient evaluation          ...       19.067 sec (=   0.318 min)  55.5 %
                             ****ORCA TERMINATED NORMALLY****
TOTAL RUN TIME: 0 days 0 hours 0 minutes 35 seconds 242 msec
  ------------------------------------------------------------------------
          * successful ORCA run, taking over control again...

         :::::::::::::::::::::::::::::::::::::::::::::::::::::
         ::                  ORCA SUMMARY                   ::
         :::::::::::::::::::::::::::::::::::::::::::::::::::::
         :: total energy            -687.117024783054 Eh    ::
         :: gradient norm              0.000594773739 Eh/a0 ::
         :: HOMO-LUMO gap              0.000000000000 eV    ::
         :::::::::::::::::::::::::::::::::::::::::::::::::::::

           -------------------------------------------------
          |                Property Printout                |
           -------------------------------------------------
           -------------------------------------------------
          |                Geometry Summary                 |
           -------------------------------------------------

      molecular mass/u    :      180.1561339
   center of mass at/Å    :       -0.0001308      -0.0224532      -0.0296191
  moments of inertia/u·Å² :        0.4348487E+03   0.6483318E+03   0.1034045E+04
rotational constants/cm⁻¹ :        0.3876666E-01   0.2600155E-01   0.1630261E-01

 * 24 selected distances

     #   Z          #   Z                                           value/Å
     1   6 C        2   6 C                                       1.5156059
     2   6 C        3   1 H                                       1.1022037
     2   6 C        4   6 C                                       1.5277136
     4   6 C        5   1 H                                       1.1017362
     4   6 C        6   6 C                                       1.5223668
     6   6 C        7   1 H                                       1.1031867
     6   6 C        8   6 C                                       1.5278801 (max)
     8   6 C        9   1 H                                       1.0965268
     8   6 C       10   6 C                                       1.5266079
    10   6 C       11   1 H                                       1.1035329
     2   6 C       12   8 O                                       1.4378212
    10   6 C       12   8 O                                       1.4348169
    10   6 C       13   8 O                                       1.4013754
     8   6 C       14   8 O                                       1.4292283
     6   6 C       15   8 O                                       1.4317732
     4   6 C       16   8 O                                       1.4311852
     1   6 C       17   8 O                                       1.4320392
     1   6 C       18   1 H                                       1.0997557
     1   6 C       19   1 H                                       1.0922788
    13   8 O       20   1 H                                       0.9665338
    14   8 O       21   1 H                                       0.9686500
    15   8 O       22   1 H                                       0.9666389
    16   8 O       23   1 H                                       0.9670230
    17   8 O       24   1 H                                       0.9663890 (min)

 * 4 distinct bonds (by element types)

   Z      Z             #   av. dist./Å        max./Å        min./Å
   1 H    6 C           7     1.0998887     1.1035329     1.0922788
   6 C    6 C           5     1.5240349     1.5278801     1.5156059
   1 H    8 O           5     0.9670469     0.9686500     0.9663890
   6 C    8 O           7     1.4283199     1.4378212     1.4013754


optimized geometry written to: xtbopt.coord


           -------------------------------------------------
          | TOTAL ENERGY             -687.117024783054 Eh   |
          | GRADIENT NORM               0.000594773739 Eh/α |
           -------------------------------------------------

------------------------------------------------------------------------
 * finished run on 2025/04/06 at 19:02:08.300     
------------------------------------------------------------------------
 total:
 * wall-time:     0 d,  0 h,  6 min, 48.646 sec
 *  cpu-time:     0 d,  0 h,  0 min,  1.843 sec
 * ratio c/w:     0.005 speedup
 SCF:
 * wall-time:     0 d,  0 h,  0 min, 44.301 sec
 *  cpu-time:     0 d,  0 h,  0 min,  0.834 sec
 * ratio c/w:     0.019 speedup
 ANC optimizer:
 * wall-time:     0 d,  0 h,  6 min,  4.204 sec
 *  cpu-time:     0 d,  0 h,  0 min,  0.720 sec
 * ratio c/w:     0.002 speedup

