
                                 *****************
                                 * O   R   C   A *
                                 *****************

                                            #,                                       
                                            ###                                      
                                            ####                                     
                                            #####                                    
                                            ######                                   
                                           ########,                                 
                                     ,,################,,,,,                         
                               ,,#################################,,                 
                          ,,##########################################,,             
                       ,#########################################, ''#####,          
                    ,#############################################,,   '####,        
                  ,##################################################,,,,####,       
                ,###########''''           ''''###############################       
              ,#####''   ,,,,##########,,,,          '''####'''          '####       
            ,##' ,,,,###########################,,,                        '##       
           ' ,,###''''                  '''############,,,                           
         ,,##''                                '''############,,,,        ,,,,,,###''
      ,#''                                            '''#######################'''  
     '                                                          ''''####''''         
             ,#######,   #######,   ,#######,      ##                                
            ,#'     '#,  ##    ##  ,#'     '#,    #''#        ,####,   ,####,        
            ##       ##  ##   ,#'  ##            #'  '#       #'       #'  '#        
            ##       ##  #######   ##           ,######,      #####,   #    #        
            '#,     ,#'  ##    ##  '#,     ,#' ,#      #,     #,   #   #,  ,#        
             '#######'   ##     ##  '#######'  #'      '#     '####' # '####'        



                #########################################################
                #                        -***-                          #
                #          Department of theory and spectroscopy        #
                #                                                       #
                #                      Frank Neese                      #
                #                                                       #
                #     Directorship, Architecture, Infrastructure        #
                #                    SHARK, DRIVERS                     #
                #        Core code/Algorithms in most modules           #
                #                                                       #
                #        Max Planck Institute fuer Kohlenforschung      #
                #                Kaiser Wilhelm Platz 1                 #
                #                 D-45470 Muelheim/Ruhr                 #
                #                      Germany                          #
                #                                                       #
                #                  All rights reserved                  #
                #                        -***-                          #
                #########################################################


                         Program Version 6.0.0  -   RELEASE  -


 With contributions from (in alphabetic order):
   Daniel Aravena         : Magnetic Suceptibility
   Michael Atanasov       : Ab Initio Ligand Field Theory (pilot matlab implementation)
   Alexander A. Auer      : GIAO ZORA, VPT2 properties, NMR spectrum
   Ute Becker             : All parallelization in ORCA, NUMFREQ, NUMCALC
   Giovanni Bistoni       : ED, misc. LED, open-shell LED, HFLD
   Martin Brehm           : Molecular dynamics
   Dmytro Bykov           : pre 5.0 version of the SCF Hessian
   Marcos Casanova-Páez   : Triplet and SCS-CIS(D). UHF-(DLPNO)-IP/EA/STEOM-CCSD. UHF-CVS-IP/STEOM-CCSD
   Vijay G. Chilkuri      : MRCI spin determinant printing, contributions to CSF-ICE
   Pauline Colinet        : FMM embedding
   Dipayan Datta          : RHF DLPNO-CCSD density
   Achintya Kumar Dutta   : EOM-CC, STEOM-CC
   Nicolas Foglia         : Exact transition moments, OPA infrastructure, MCD improvements
   Dmitry Ganyushin       : Spin-Orbit,Spin-Spin,Magnetic field MRCI
   Miquel Garcia          : C-PCM and meta-GGA Hessian, CCSD/C-PCM, Gaussian charge scheme
   Tiago L. C. Gouveia    : GS-ROHF, GS-ROCIS
   Yang Guo               : DLPNO-NEVPT2, F12-NEVPT2, CIM, IAO-localization
   Andreas Hansen         : Spin unrestricted coupled pair/coupled cluster methods
   Ingolf Harden          : AUTO-CI MPn and infrastructure 
   Benjamin Helmich-Paris : MC-RPA, TRAH-(SCF,CASSCF), AVAS, COSX integrals, SCF dyn. polar.
   Lee Huntington         : MR-EOM, pCC
   Robert Izsak           : Overlap fitted RIJCOSX, COSX-SCS-MP3, EOM
   Riya Kayal             : Wick's Theorem for AUTO-CI, AUTO-CI UHF-CCSDT
   Emily Kempfer          : AUTO-CI, RHF CISDT and CCSDT
   Christian Kollmar      : KDIIS, OOCD, Brueckner-CCSD(T), CCSD density, CASPT2, CASPT2-K, improved NEVPT2
   Axel Koslowski         : Symmetry handling
   Simone Kossmann        : Meta GGA functionals, TD-DFT gradient, OOMP2, (MP2 Hessian; deprecated post 5.0)
   Lucas Lang             : DCDCAS
   Marvin Lechner         : AUTO-CI (C++ implementation), FIC-MRCC
   Spencer Leger          : CASSCF response
   Dagmar Lenk            : GEPOL surface, SMD, ORCA-2-JSON
   Dimitrios Liakos       : Extrapolation schemes; Compound Job, initial MDCI parallelization
   Dimitrios Manganas     : Further ROCIS development; embedding schemes. LFT, Crystal Embedding
   Dimitrios Pantazis     : SARC Basis sets
   Anastasios Papadopoulos: AUTO-CI, single reference methods and gradients
   Taras Petrenko         : pre 6.0 DFT Hessian and TD-DFT gradient, (ASA, deprecated), ECA, 1-Electron XAS/XES, NRVS
   Peter Pinski           : DLPNO-MP2, DLPNO-MP2 Gradient
   Christoph Reimann      : Effective Core Potentials
   Marius Retegan         : Local ZFS, SOC
   Christoph Riplinger    : Optimizer, TS searches, QM/MM, DLPNO-CCSD(T), (RO)-DLPNO pert. Triples
   Michael Roemelt        : Original ROCIS implementation
   Masaaki Saitow         : Open-shell DLPNO-CCSD energy and density
   Barbara Sandhoefer     : DKH picture change effects
   Kantharuban Sivalingam : CASSCF convergence/infrastructure, NEVPT2 and variants, FIC-MRCI
   Bernardo de Souza      : ESD, SOC TD-DFT
   Georgi Stoychev        : AutoAux, RI-MP2 NMR, DLPNO-MP2 response, X2C
   Van Anh Tran           : RI-MP2 g-tensors
   Willem Van den Heuvel  : Paramagnetic NMR
   Zikuan Wang            : NOTCH, Electric field optimization 
   Frank Wennmohs         : Technical directorship and infrastructure
   Hang Xu                : AUTO-CI-Response properties 


 We gratefully acknowledge several colleagues who have allowed us to
 interface, adapt or use parts of their codes:
   Stefan Grimme, W. Hujo, H. Kruse, P. Pracht,  : VdW corrections, initial TS optimization,
                  C. Bannwarth, S. Ehlert,         DFT functionals, gCP, sTDA/sTD-DF
                  L. Wittmann, M. Mueller
   Ed Valeev, F. Pavosevic, A. Kumar             : LibInt (2-el integral package), F12 methods
   Garnet Chan, S. Sharma, J. Yang, R. Olivares  : DMRG
   Ulf Ekstrom                                   : XCFun DFT Library
   Mihaly Kallay                                 : mrcc  (arbitrary order and MRCC methods)
   Frank Weinhold                                : gennbo (NPA and NBO analysis)
   Simon Mueller                                 : openCOSMO-RS
   Christopher J. Cramer and Donald G. Truhlar   : smd solvation model
   Lars Goerigk                                  : TD-DFT with DH, B97 family of functionals
   V. Asgeirsson, H. Jonsson                     : NEB implementation
   FAccTs GmbH                                   : IRC, NEB, NEB-TS, DLPNO-Multilevel, CI-OPT
                                                   MM, QMMM, 2- and 3-layer-ONIOM, Crystal-QMMM,
                                                   LR-CPCM, SF, NACMEs, symmetry and pop. for TD-DFT,
                                                   nearIR, NL-DFT gradient (VV10), updates on ESD,
                                                   ML-optimized integration grids, MBIS, APM,
                                                   GOAT, DOCKER, SOLVATOR, interface openCOSMO-RS
   S Lehtola, MJT Oliveira, MAL Marques          : LibXC Library
   Liviu Ungur et al                             : ANISO software


 Your calculation uses the libint2 library for the computation of 2-el integrals
 For citations please refer to: http://libint.valeyev.net

 Your ORCA version has been built with support for libXC version: 6.2.2
 For citations please refer to: https://libxc.gitlab.io

 This ORCA versions uses:
   CBLAS   interface :  Fast vector & matrix operations
   LAPACKE interface :  Fast linear algebra routines
   SCALAPACK package :  Parallel linear algebra routines
   Shared memory     :  Shared parallel matrices
   BLAS/LAPACK       :  OpenBLAS 0.3.27  USE64BITINT DYNAMIC_ARCH NO_AFFINITY SkylakeX SINGLE_THREADED
        Core in use  :  SkylakeX
   Copyright (c) 2011-2014, The OpenBLAS Project


Your calculation utilizes the geometrical counterpoise correction gCP
Please cite in your paper:
H.Kruse, S. Grimme J.Chem.Phys., 136, (2012), 154101 
   

Your calculation utilizes the atom-pairwise dispersion correction
based on EEQ partial charges (D4)


================================================================================

----- Orbital basis set information -----
Your calculation utilizes the basis: def2-mTZVPP
   Stefan Grimme, Andreas Hansen, Sebastian Ehlert, and Jan-Michael Mewes 
   J. Chem. Phys. 154, 064103 (2021). DOI: 10.1063/5.0040021

----- AuxJ basis set information -----
Your calculation utilizes the auxiliary basis: def2/J
   F. Weigend, Phys. Chem. Chem. Phys. 8, 1057 (2006).

================================================================================
                                        WARNINGS
                       Please study these warnings very carefully!
================================================================================

Using LibXC functional ID 497 : Re-regularized SCAN exchange by Furness et al
[ 1]  J. W. Furness, A. D. Kaplan, J. Ning, J. P. Perdew, and J. Sun.,  J. Phys. Chem. Lett. 11, 8208-8215 (2020)
[ 2]  J. W. Furness, A. D. Kaplan, J. Ning, J. P. Perdew, and J. Sun.,  J. Phys. Chem. Lett. 11, 9248-9248 (2020)
Using LibXC functional ID 498 : Re-regularized SCAN correlation by Furness et al
[ 1]  J. W. Furness, A. D. Kaplan, J. Ning, J. P. Perdew, and J. Sun.,  J. Phys. Chem. Lett. 11, 8208-8215 (2020)
[ 2]  J. W. Furness, A. D. Kaplan, J. Ning, J. P. Perdew, and J. Sun.,  J. Phys. Chem. Lett. 11, 9248-9248 (2020)
Using LibXC functional ID 497 : Re-regularized SCAN exchange by Furness et al
[ 1]  J. W. Furness, A. D. Kaplan, J. Ning, J. P. Perdew, and J. Sun.,  J. Phys. Chem. Lett. 11, 8208-8215 (2020)
[ 2]  J. W. Furness, A. D. Kaplan, J. Ning, J. P. Perdew, and J. Sun.,  J. Phys. Chem. Lett. 11, 9248-9248 (2020)
Using LibXC functional ID 498 : Re-regularized SCAN correlation by Furness et al
[ 1]  J. W. Furness, A. D. Kaplan, J. Ning, J. P. Perdew, and J. Sun.,  J. Phys. Chem. Lett. 11, 8208-8215 (2020)
[ 2]  J. W. Furness, A. D. Kaplan, J. Ning, J. P. Perdew, and J. Sun.,  J. Phys. Chem. Lett. 11, 9248-9248 (2020)

================================================================================
                                       INPUT FILE
================================================================================
NAME = sp_gas.inp
|  1> ! r2scan-3c def2/J RI DEFGRID2 scfconv6 printgap
|  2> %output
|  3>     printlevel normal
|  4> end
|  5> * xyz 0 1
|  6> C -2.3645449944 0.8504755715 -0.2452408989
|  7> O -1.0996487807 0.6327719295 0.3928197959
|  8> C -0.4343135485 -0.4751165796 0.141009895
|  9> O -0.8045471158 -1.3679083522 -0.5842475378
| 10> C 0.8967875089 -0.4808871946 0.8864190962
| 11> C 1.8705422486 0.1690304241 0.0533333702
| 12> N 2.6332353098 0.691691964 -0.6206951752
| 13> H -2.2359748313 1.6252670534 -0.9994444299
| 14> H -3.053322022 1.183383041 0.5272741897
| 15> H -2.7122030446 -0.0728628189 -0.7085050132
| 16> H 1.2105405731 -1.5103158302 1.0679453831
| 17> H 0.8002695391 0.0749153419 1.8205638217
| 18> *
| 19> 
| 20>                          ****END OF INPUT****
================================================================================

                       ****************************
                       * Single Point Calculation *
                       ****************************

---------------------------------
CARTESIAN COORDINATES (ANGSTROEM)
---------------------------------
  C     -2.364545    0.850476   -0.245241
  O     -1.099649    0.632772    0.392820
  C     -0.434314   -0.475117    0.141010
  O     -0.804547   -1.367908   -0.584248
  C      0.896788   -0.480887    0.886419
  C      1.870542    0.169030    0.053333
  N      2.633235    0.691692   -0.620695
  H     -2.235975    1.625267   -0.999444
  H     -3.053322    1.183383    0.527274
  H     -2.712203   -0.072863   -0.708505
  H      1.210541   -1.510316    1.067945
  H      0.800270    0.074915    1.820564

----------------------------
CARTESIAN COORDINATES (A.U.)
----------------------------
  NO LB      ZA    FRAG     MASS         X           Y           Z
   0 C     6.0000    0    12.011   -4.468342    1.607166   -0.463438
   1 O     8.0000    0    15.999   -2.078035    1.195766    0.742322
   2 C     6.0000    0    12.011   -0.820734   -0.897840    0.266470
   3 O     8.0000    0    15.999   -1.520374   -2.584972   -1.104068
   4 C     6.0000    0    12.011    1.694683   -0.908745    1.675089
   5 C     6.0000    0    12.011    3.534813    0.319421    0.100785
   6 N     7.0000    0    14.007    4.976094    1.307108   -1.172944
   7 H     1.0000    0     1.008   -4.225380    3.071310   -1.888676
   8 H     1.0000    0     1.008   -5.769942    2.236270    0.996404
   9 H     1.0000    0     1.008   -5.125321   -0.137691   -1.338880
  10 H     1.0000    0     1.008    2.287590   -2.854083    2.018124
  11 H     1.0000    0     1.008    1.512290    0.141569    3.440367

--------------------------------
INTERNAL COORDINATES (ANGSTROEM)
--------------------------------
 C      0   0   0     0.000000000000     0.00000000     0.00000000
 O      1   0   0     1.433345302926     0.00000000     0.00000000
 C      2   1   0     1.316623008303   119.24956120     0.00000000
 O      3   2   1     1.208365998946   125.56791780   358.79294372
 C      3   2   1     1.525614041048   110.52659264   178.22135019
 C      5   3   2     1.436879616060   107.83579574   272.22785033
 N      6   5   3     1.144198527751   179.13109079     9.93161043
 H      1   2   3     1.088877905661   108.19233545   252.15150719
 H      1   2   3     1.087207771823   106.81475235   133.25857609
 H      1   2   3     1.089969514552   109.99956507    12.63137642
 H      5   3   2     1.091382652384   109.61287093   153.49603173
 H      5   3   2     1.091264654542   109.82524776    30.90655251

---------------------------
INTERNAL COORDINATES (A.U.)
---------------------------
 C      0   0   0     0.000000000000     0.00000000     0.00000000
 O      1   0   0     2.708630077873     0.00000000     0.00000000
 C      2   1   0     2.488056907313   119.24956120     0.00000000
 O      3   2   1     2.283480807551   125.56791780   358.79294372
 C      3   2   1     2.882992723645   110.52659264   178.22135019
 C      5   3   2     2.715308961768   107.83579574   272.22785033
 N      6   5   3     2.162221860285   179.13109079     9.93161043
 H      1   2   3     2.057681034978   108.19233545   252.15150719
 H      1   2   3     2.054524939417   106.81475235   133.25857609
 H      1   2   3     2.059743876827   109.99956507    12.63137642
 H      5   3   2     2.062414320318   109.61287093   153.49603173
 H      5   3   2     2.062191336713   109.82524776    30.90655251

---------------------
BASIS SET INFORMATION
---------------------
There are 4 groups of distinct atoms

 Group   1 Type C   : 11s6p1d contracted to 5s3p1d pattern {62111/411/1}
 Group   2 Type O   : 11s6p2d contracted to 5s3p2d pattern {62111/411/11}
 Group   3 Type N   : 11s6p2d contracted to 5s3p2d pattern {62111/411/11}
 Group   4 Type H   : 4s1p contracted to 2s1p pattern {31/1}

Atom   0C    basis set group =>   1
Atom   1O    basis set group =>   2
Atom   2C    basis set group =>   1
Atom   3O    basis set group =>   2
Atom   4C    basis set group =>   1
Atom   5C    basis set group =>   1
Atom   6N    basis set group =>   3
Atom   7H    basis set group =>   4
Atom   8H    basis set group =>   4
Atom   9H    basis set group =>   4
Atom  10H    basis set group =>   4
Atom  11H    basis set group =>   4
---------------------------------
AUXILIARY/J BASIS SET INFORMATION
---------------------------------
There are 4 groups of distinct atoms

 Group   1 Type C   : 12s5p4d2f1g contracted to 6s4p3d1f1g pattern {711111/2111/211/2/1}
 Group   2 Type O   : 12s5p4d2f1g contracted to 6s4p3d1f1g pattern {711111/2111/211/2/1}
 Group   3 Type N   : 12s5p4d2f1g contracted to 6s4p3d1f1g pattern {711111/2111/211/2/1}
 Group   4 Type H   : 5s2p1d contracted to 3s1p1d pattern {311/2/1}

Atom   0C    basis set group =>   1
Atom   1O    basis set group =>   2
Atom   2C    basis set group =>   1
Atom   3O    basis set group =>   2
Atom   4C    basis set group =>   1
Atom   5C    basis set group =>   1
Atom   6N    basis set group =>   3
Atom   7H    basis set group =>   4
Atom   8H    basis set group =>   4
Atom   9H    basis set group =>   4
Atom  10H    basis set group =>   4
Atom  11H    basis set group =>   4

Checking for AutoStart:
The File: sp_gas.gbw exists
Trying to determine its content:
     ... Fine, the file contains calculation information
     ... Fine, the calculation information was read
     ... Fine, the file contains a basis set
     ... Fine, the basis set was read
     ... Fine, the file contains a geometry
     ... Fine, the geometry was read
     ... Fine, the file contains a set of orbitals
     ... Fine, the orbitals can be read
     => possible old guess file was deleted
     => GBW file was renamed to GES file
     => GES file is set as startup file
     => Guess is set to MORead
     ... now leaving AutoStart

------------------------------------------------------------------------------
                             ORCA STARTUP CALCULATIONS
                           -- RI-GTO INTEGRALS CHOSEN --
------------------------------------------------------------------------------
------------------------------------------------------------------------------
                   ___                                                        
                  /   \      - P O W E R E D   B Y -                         
                 /     \                                                     
                 |  |  |   _    _      __       _____    __    __             
                 |  |  |  | |  | |    /  \     |  _  \  |  |  /  |          
                  \  \/   | |  | |   /    \    | | | |  |  | /  /          
                 / \  \   | |__| |  /  /\  \   | |_| |  |  |/  /          
                |  |  |   |  __  | /  /__\  \  |    /   |      \           
                |  |  |   | |  | | |   __   |  |    \   |  |\   \          
                \     /   | |  | | |  |  |  |  | |\  \  |  | \   \       
                 \___/    |_|  |_| |__|  |__|  |_| \__\ |__|  \__/        
                                                                              
                      - O R C A' S   B I G   F R I E N D -                    
                                      &                                       
                       - I N T E G R A L  F E E D E R -                       
                                                                              
 v1 FN, 2020, v2 2021, v3 2022-2024                                           
------------------------------------------------------------------------------


----------------------
SHARK INTEGRAL PACKAGE
----------------------

Number of atoms                             ...     12
Number of basis functions                   ...    173
Number of shells                            ...     81
Maximum angular momentum                    ...      2
Integral batch strategy                     ... SHARK/LIBINT Hybrid
RI-J (if used) integral strategy            ... SPLIT-RIJ (Revised 2003 algorithm where possible)
Printlevel                                  ...      1
Contraction scheme used                     ... SEGMENTED contraction
Prescreening option                         ... SCHWARTZ
   Thresh                                   ... 1.000e-10
   Tcut                                     ... 1.000e-11
   Tpresel                                  ... 1.000e-11 
Coulomb Range Separation                    ... NOT USED
Exchange Range Separation                   ... NOT USED
Multipole approximations                    ... NOT USED
Finite Nucleus Model                        ... NOT USED
CABS basis                                  ... NOT available
Auxiliary Coulomb fitting basis             ... AVAILABLE
   # of basis functions in Aux-J            ...    398
   # of shells in Aux-J                     ...    130
   Maximum angular momentum in Aux-J        ...      4
Auxiliary J/K fitting basis                 ... NOT available
Auxiliary Correlation fitting basis         ... NOT available
Auxiliary 'external' fitting basis          ... NOT available

Checking pre-screening integrals            ... done (  0.0 sec) Dimension = 81
Check shell pair data                       ... done (  0.0 sec)
Shell pair information
Shell pair cut-off parameter TPreSel        ...   1.0e-11
Total number of shell pairs                 ...      3321
Shell pairs after pre-screening             ...      3020
Total number of primitive shell pairs       ...     12104
Primitive shell pairs kept                  ...      7990
          la=0 lb=0:    904 shell pairs
          la=1 lb=0:   1071 shell pairs
          la=1 lb=1:    331 shell pairs
          la=2 lb=0:    414 shell pairs
          la=2 lb=1:    247 shell pairs
          la=2 lb=2:     53 shell pairs

Calculating one electron integrals          ... done (  0.0 sec)
Calculating RI/J V-Matrix + Cholesky decomp.... done (  0.2 sec)
Calculating Nuclear repulsion               ... done (  0.0 sec) ENN=    278.213165020258 Eh

Diagonalization of the overlap matrix:
Smallest eigenvalue                        ... 9.427e-05
Time for diagonalization                   ...    0.002 sec
Threshold for overlap eigenvalues          ... 1.000e-07
Number of eigenvalues below threshold      ... 0
Time for construction of square roots      ...    0.017 sec
Total time needed                          ...    0.026 sec

-------------------
DFT GRID GENERATION
-------------------

General Integration Accuracy     IntAcc      ... 4.388
Radial Grid Type                 RadialGrid  ... OptM3 with GC (2021)
Angular Grid (max. ang.)         AngularGrid ... 4 (Lebedev-302)
Angular grid pruning method      GridPruning ... 4 (adaptive)
Weight generation scheme         WeightScheme... mBecke (2022)
Basis function cutoff            BFCut       ... 1.0000e-10
Integration weight cutoff        WCut        ... 1.0000e-14
Partially contracted basis set               ... off
Rotationally invariant grid construction     ... off
Angular grids for H and He will be reduced by one unit
Diffuse basis detected: some atoms will have their outermost
                        angular grid increased by 1.

Total number of grid points                  ...    59331
Total number of batches                      ...      931
Average number of points per batch           ...       63
Average number of grid points per atom       ...     4944
Initializing property integral containers    ... done (  0.0 sec)

SHARK setup successfully completed in   1.0 seconds

Maximum memory used throughout the entire STARTUP-calculation: 27.1 MB
-------------------------------------------------------------------------------
                                 ORCA GUESS
                   Start orbitals & Density for SCF / CASSCF
-------------------------------------------------------------------------------

------------
SCF SETTINGS
------------
Hamiltonian:
 Density Functional     Method          .... DFT(GTOs)
  Functional kind                       .... Exchange
  Functional name                       .... Re-regularized SCAN exchange by Furness et al
  Functional family                     .... MGGA
  Functional refs                              
    [ 0] J. W. Furness, A. D. Kaplan, J. Ning, J. P. Perdew, and J. Sun.,  J. Phys. Chem. Lett. 11, 8208-8215 (2020), doi: 10.1021/acs.jpclett.0c02405
    [ 1] J. W. Furness, A. D. Kaplan, J. Ning, J. P. Perdew, and J. Sun.,  J. Phys. Chem. Lett. 11, 9248-9248 (2020), doi: 10.1021/acs.jpclett.0c03077
  Functional external parameters        .... 6
    Parameter  0 _c1        =  6.670000e-01 : c1 parameter        
    Parameter  1 _c2        =  8.000000e-01 : c2 parameter        
    Parameter  2 _d         =  1.240000e+00 : d parameter         
    Parameter  3 _k1        =  6.500000e-02 : k1 parameter        
    Parameter  4 _eta       =  1.000000e-03 : eta parameter       
    Parameter  5 _dp2       =  3.610000e-01 : dp2 parameter       
  Functional kind                       .... Correlation
  Functional name                       .... Re-regularized SCAN correlation by Furness et al
  Functional family                     .... MGGA
  Functional refs                              
    [ 0] J. W. Furness, A. D. Kaplan, J. Ning, J. P. Perdew, and J. Sun.,  J. Phys. Chem. Lett. 11, 8208-8215 (2020), doi: 10.1021/acs.jpclett.0c02405
    [ 1] J. W. Furness, A. D. Kaplan, J. Ning, J. P. Perdew, and J. Sun.,  J. Phys. Chem. Lett. 11, 9248-9248 (2020), doi: 10.1021/acs.jpclett.0c03077
  Functional external parameters        .... 1
    Parameter  0 _eta       =  1.000000e-03 : Regularization parameter
 Gradients option       PostSCFGGA      .... off
 RI-approximation to the Coulomb term is turned on
   Number of AuxJ basis functions       .... 398


General Settings:
 Integral files         IntName         .... sp_gas
 Hartree-Fock type      HFTyp           .... RHF
 Total Charge           Charge          ....    0
 Multiplicity           Mult            ....    1
 Number of Electrons    NEL             ....   52
 Basis Dimension        Dim             ....  173
 Nuclear Repulsion      ENuc            ....    278.2131650203 Eh

Convergence Acceleration:
 AO-DIIS                CNVDIIS         .... on
   Start iteration      DIISMaxIt       ....    12
   Startup error        DIISStart       ....  0.200000
   # of expansion vecs  DIISMaxEq       ....     5
   Bias factor          DIISBfac        ....   1.050
   Max. coefficient     DIISMaxC        ....  10.000
 MO-DIIS                CNVKDIIS        .... off
 Trust-Rad. Augm. Hess. CNVTRAH         .... auto
   Auto Start mean grad. ratio tolernc. ....  1.125000
   Auto Start start iteration           ....     1
   Auto Start num. interpolation iter.  ....    10
   Max. Number of Micro iterations      ....    24
   Max. Number of Macro iterations      .... Maxiter - #DIIS iter
   Number of Davidson start vectors     ....     2
   Converg. threshold    (grad. norm)   ....   3.330e-04
   Grad. Scal. Fac. for Micro threshold ....   0.100
   Minimum threshold for Micro iter.    ....   1.000e-02
   NR start threshold (gradient norm)   ....   1.000e-04
   Initial trust radius                 ....   0.400
   Minimum AH scaling param. (alpha)    ....   1.000
   Maximum AH scaling param. (alpha)    .... 1000.000
   Quad. conv. algorithm                .... NR
   White noise on init. David. guess    .... on
   Maximum white noise                  ....   0.010
   Pseudo random numbers                .... off
   Inactive MOs                         .... canonical
   Orbital update algorithm             .... Taylor
   Preconditioner                       .... Diag
   Full preconditioner red. dimension   ....   250
   COSX micro iterations for RIJONX calc.... off
 SOSCF                  CNVSOSCF        .... on
   Start iteration      SOSCFMaxIt      ....   150
   Startup grad/error   SOSCFStart      ....  0.003300
   Hessian update       SOSCFHessUp     .... L-BFGS
 Level Shifting         CNVShift        .... on
   Level shift para.    LevelShift      ....    0.2500
   Turn off err/grad.   ShiftErr        ....    0.0010
 Zerner damping         CNVZerner       .... off
 Static damping         CNVDamp         .... on
   Fraction old density DampFac         ....    0.7000
   Max. Damping (<1)    DampMax         ....    0.9800
   Min. Damping (>=0)   DampMin         ....    0.0000
   Turn off err/grad.   DampErr         ....    0.1000

SCF Procedure:
 Maximum # iterations   MaxIter         ....   125
 SCF integral mode      SCFMode         .... Direct
   Integral package                     .... SHARK and LIBINT hybrid scheme
 Reset frequency        DirectResetFreq ....    20
 Integral Threshold     Thresh          ....  1.000e-10 Eh
 Primitive CutOff       TCut            ....  1.000e-11 Eh

Convergence Tolerance:
 Convergence Check Mode ConvCheckMode   .... Total+1el-Energy
 Convergence forced     ConvForced      .... 0
 Energy Change          TolE            ....  1.000e-06 Eh
 1-El. energy change                    ....  1.000e-03 Eh
 Orbital Gradient       TolG            ....  3.330e-04
 Orbital Rotation angle TolX            ....  3.330e-04
 DIIS Error             TolErr          ....  1.000e-06

---------------------
INITIAL GUESS: MOREAD
---------------------
Guess MOs are being read from file: sp_gas.ges
Input Geometry matches current geometry (good)
Atom 0: N(Shells)= 9 and 6 - projection required
Input basis set needs projection
NBasis(read)= 108
NBasis(calc)= 173
Basis set overlap was calculated
Using GuessMode=FMatrix for the initial guess
C*T matrix was formed
Effective Fockian was calculated
Effective Fockian was diagonalized
Initial density was built
                      ------------------
                      INITIAL GUESS DONE (   0.0 sec)
                      ------------------
             **** ENERGY FILE WAS UPDATED (sp_gas.en.tmp) ****
Finished Guess after   0.2 sec
Maximum memory used throughout the entire GUESS-calculation: 11.6 MB

-------------------------------------------------------------------------------------------
                                      ORCA LEAN-SCF
                              memory conserving SCF solver
-------------------------------------------------------------------------------------------

----------------------------------------D-I-I-S--------------------------------------------
Iteration    Energy (Eh)           Delta-E    RMSDP     MaxDP     DIISErr   Damp  Time(sec)
-------------------------------------------------------------------------------------------
               ***  Starting incremental Fock matrix formation  ***
    1    -360.3759400128535617     0.00e+00  5.24e-03  2.33e-01  6.27e-01  0.700   1.5
    2    -360.4278695079664203    -5.19e-02  4.20e-03  1.48e-01  4.40e-01  0.700   1.4
    3    -360.4645539618605881    -3.67e-02  3.07e-03  1.07e-01  3.08e-01  0.700   1.3
    4    -360.4903131483176821    -2.58e-02  2.19e-03  7.63e-02  2.16e-01  0.700   1.4
                               ***Turning on AO-DIIS***
    5    -360.5083822958582687    -1.81e-02  1.58e-03  5.48e-02  1.51e-01  0.700   1.3
    6    -360.5210477160301252    -1.27e-02  1.12e-03  3.90e-02  1.06e-01  0.700   1.4
    7    -360.5299264517140045    -8.88e-03  7.90e-04  2.76e-02  7.41e-02  0.700   1.2
    8    -360.5361468529719104    -6.22e-03  1.85e-03  6.50e-02  5.19e-02  0.000   1.3
                              *** Initializing SOSCF ***
---------------------------------------S-O-S-C-F--------------------------------------
Iteration    Energy (Eh)           Delta-E    RMSDP     MaxDP     MaxGrad    Time(sec)
--------------------------------------------------------------------------------------
    9    -360.5506795365307653    -1.45e-02  1.62e-05  6.58e-04  1.75e-04     1.3
               *** Restarting incremental Fock matrix formation ***
   10    -360.5506794691108325     6.74e-08  1.45e-05  3.68e-04  1.41e-04     1.4
   11    -360.5506781811750443     1.29e-06  9.16e-06  2.22e-04  4.66e-04     1.1
   12    -360.5506796301422128    -1.45e-06  1.66e-06  2.96e-05  1.20e-05     1.1
                  *** Gradient check signals convergence ***

               *****************************************************
               *                     SUCCESS                       *
               *           SCF CONVERGED AFTER  12 CYCLES          *
               *****************************************************

             **** ENERGY FILE WAS UPDATED (sp_gas.en.tmp) ****

----------------
TOTAL SCF ENERGY
----------------

Total Energy       :       -360.55067963014221 Eh           -9811.08278 eV

Components:
Nuclear Repulsion  :        278.21316502025832 Eh            7570.56510 eV
Electronic Energy  :       -638.76384465040053 Eh          -17381.64788 eV
One Electron Energy:      -1040.98204788915018 Eh          -28326.56162 eV
Two Electron Energy:        402.21820323874965 Eh           10944.91374 eV

Virial components:
Potential Energy   :       -719.81333037552531 Eh          -19587.11651 eV
Kinetic Energy     :        359.26265074538310 Eh            9776.03373 eV
Virial Ratio       :          2.00358520119497

DFT components:
N(Alpha)           :       25.999999145933 electrons
N(Beta)            :       25.999999145933 electrons
N(Total)           :       51.999998291866 electrons
E(X)               :      -45.776130516503 Eh       
E(C)               :       -1.694382380606 Eh       
E(XC)              :      -47.470512897109 Eh       

---------------
SCF CONVERGENCE
---------------

  Last Energy change         ...    1.4490e-06  Tolerance :   1.0000e-06
  Last MAX-Density change    ...    2.9567e-05  Tolerance :   1.0000e-05
  Last RMS-Density change    ...    1.6604e-06  Tolerance :   1.0000e-06
  Last DIIS Error            ...    1.7487e-04  Tolerance :   1.0000e-06
  Last Orbital Gradient      ...    1.1983e-05  Tolerance :   3.3300e-04
  Last Orbital Rotation      ...    3.3893e-05  Tolerance :   3.3300e-04


----------------
ORBITAL ENERGIES
----------------

  NO   OCC          E(Eh)            E(eV) 
   0   2.0000     -19.029538      -517.8200 
   1   2.0000     -18.959606      -515.9171 
   2   2.0000     -14.162547      -385.3825 
   3   2.0000     -10.191235      -277.3176 
   4   2.0000     -10.106364      -275.0082 
   5   2.0000     -10.105930      -274.9963 
   6   2.0000     -10.080972      -274.3172 
   7   2.0000      -1.105130       -30.0721 
   8   2.0000      -1.009573       -27.4719 
   9   2.0000      -0.888126       -24.1671 
  10   2.0000      -0.793004       -21.5787 
  11   2.0000      -0.716194       -19.4886 
  12   2.0000      -0.571628       -15.5548 
  13   2.0000      -0.526096       -14.3158 
  14   2.0000      -0.504175       -13.7193 
  15   2.0000      -0.479889       -13.0585 
  16   2.0000      -0.462682       -12.5902 
  17   2.0000      -0.437299       -11.8995 
  18   2.0000      -0.413005       -11.2384 
  19   2.0000      -0.386760       -10.5243 
  20   2.0000      -0.347656        -9.4602 
  21   2.0000      -0.335381        -9.1262 
  22   2.0000      -0.322674        -8.7804 
  23   2.0000      -0.317028        -8.6268 
  24   2.0000      -0.299191        -8.1414 
  25   2.0000      -0.267261        -7.2725 
  26   0.0000      -0.052064        -1.4167 
  27   0.0000       0.001833         0.0499 
  28   0.0000       0.008972         0.2441 
  29   0.0000       0.036948         1.0054 
  30   0.0000       0.074342         2.0229 
  31   0.0000       0.096250         2.6191 
  32   0.0000       0.126498         3.4422 
  33   0.0000       0.139004         3.7825 
  34   0.0000       0.142582         3.8799 
  35   0.0000       0.153404         4.1743 
  36   0.0000       0.165314         4.4984 
*Only the first 10 virtual orbitals were printed.

                    ********************************
                    * MULLIKEN POPULATION ANALYSIS *
                    ********************************

-----------------------
MULLIKEN ATOMIC CHARGES
-----------------------
   0 C :   -0.290189
   1 O :   -0.186511
   2 C :    0.433264
   3 O :   -0.409535
   4 C :   -0.380446
   5 C :    0.186645
   6 N :   -0.233974
   7 H :    0.161012
   8 H :    0.154310
   9 H :    0.188582
  10 H :    0.192110
  11 H :    0.184732
Sum of atomic charges:   -0.0000000

--------------------------------
MULLIKEN REDUCED ORBITAL CHARGES
--------------------------------
  0 C s       :     3.322376  s :     3.322376
      pz      :     1.029227  p :     2.925599
      px      :     0.770304
      py      :     1.126067
      dz2     :     0.004355  d :     0.042215
      dxz     :     0.012511
      dyz     :     0.008140
      dx2y2   :     0.010393
      dxy     :     0.006815

  1 O s       :     3.700242  s :     3.700242
      pz      :     1.679301  p :     4.461873
      px      :     1.308200
      py      :     1.474372
      dz2     :     0.001328  d :     0.024396
      dxz     :     0.010846
      dyz     :     0.011253
      dx2y2   :     0.005941
      dxy     :    -0.004971

  2 C s       :     3.115082  s :     3.115082
      pz      :     0.762535  p :     2.324444
      px      :     0.800675
      py      :     0.761234
      dz2     :     0.019542  d :     0.127210
      dxz     :     0.020314
      dyz     :     0.022153
      dx2y2   :     0.034767
      dxy     :     0.030435

  3 O s       :     3.847083  s :     3.847083
      pz      :     1.402146  p :     4.538704
      px      :     1.680612
      py      :     1.455945
      dz2     :     0.007539  d :     0.023748
      dxz     :     0.000824
      dyz     :     0.008103
      dx2y2   :     0.003137
      dxy     :     0.004145

  4 C s       :     3.273722  s :     3.273722
      pz      :     1.000582  p :     3.069187
      px      :     0.969596
      py      :     1.099009
      dz2     :     0.005985  d :     0.037536
      dxz     :     0.010030
      dyz     :     0.006709
      dx2y2   :     0.008458
      dxy     :     0.006354

  5 C s       :     3.132412  s :     3.132412
      pz      :     0.861386  p :     2.629582
      px      :     0.881275
      py      :     0.886921
      dz2     :     0.011870  d :     0.051361
      dxz     :     0.010619
      dyz     :     0.008055
      dx2y2   :     0.011560
      dxy     :     0.009257

  6 N s       :     3.695929  s :     3.695929
      pz      :     1.166459  p :     3.493741
      px      :     1.189155
      py      :     1.138127
      dz2     :     0.012884  d :     0.044304
      dxz     :     0.006297
      dyz     :     0.006421
      dx2y2   :     0.011661
      dxy     :     0.007041

  7 H s       :     0.821265  s :     0.821265
      pz      :     0.007572  p :     0.017722
      px      :     0.002385
      py      :     0.007765

  8 H s       :     0.827936  s :     0.827936
      pz      :     0.007064  p :     0.017754
      px      :     0.006249
      py      :     0.004441

  9 H s       :     0.792887  s :     0.792887
      pz      :     0.004997  p :     0.018531
      px      :     0.003431
      py      :     0.010103

 10 H s       :     0.790040  s :     0.790040
      pz      :     0.003303  p :     0.017850
      px      :     0.003567
      py      :     0.010981

 11 H s       :     0.797238  s :     0.797238
      pz      :     0.009560  p :     0.018031
      px      :     0.003170
      py      :     0.005301


------------------------
MULLIKEN OVERLAP CHARGES
------------------------
B(  0-C ,  1-O ) :   0.3739 B(  0-C ,  2-C ) :  -0.2110 B(  0-C ,  7-H ) :   0.7917 
B(  0-C ,  8-H ) :   0.7942 B(  0-C ,  9-H ) :   0.8420 B(  1-O ,  2-C ) :   0.3664 
B(  1-O ,  3-O ) :  -0.2109 B(  1-O ,  7-H ) :  -0.0717 B(  1-O ,  8-H ) :  -0.0787 
B(  1-O ,  9-H ) :  -0.0530 B(  2-C ,  3-O ) :   0.9940 B(  2-C ,  4-C ) :   0.5369 
B(  2-C ,  9-H ) :  -0.0503 B(  2-C , 10-H ) :  -0.0826 B(  2-C , 11-H ) :  -0.0737 
B(  3-O ,  4-C ) :  -0.0671 B(  4-C ,  5-C ) :   0.6619 B(  4-C ,  6-N ) :  -0.1418 
B(  4-C , 10-H ) :   0.8484 B(  4-C , 11-H ) :   0.8250 B(  5-C ,  6-N ) :   1.7468 
B(  5-C , 10-H ) :  -0.0672 B(  5-C , 11-H ) :  -0.0740 


                     *******************************
                     * LOEWDIN POPULATION ANALYSIS *
                     *******************************

----------------------
LOEWDIN ATOMIC CHARGES
----------------------
   0 C :   -0.034012
   1 O :   -0.581975
   2 C :    0.373962
   3 O :   -0.401377
   4 C :   -0.175605
   5 C :    0.148847
   6 N :   -0.295139
   7 H :    0.179454
   8 H :    0.178437
   9 H :    0.193359
  10 H :    0.207078
  11 H :    0.206972

-------------------------------
LOEWDIN REDUCED ORBITAL CHARGES
-------------------------------
  0 C s       :     2.906738  s :     2.906738
      pz      :     1.053915  p :     3.025898
      px      :     0.859386
      py      :     1.112597
      dz2     :     0.008407  d :     0.101376
      dxz     :     0.031039
      dyz     :     0.021601
      dx2y2   :     0.024671
      dxy     :     0.015658

  1 O s       :     3.460098  s :     3.460098
      pz      :     1.671686  p :     4.656483
      px      :     1.438662
      py      :     1.546134
      dz2     :     0.061659  d :     0.465394
      dxz     :     0.095018
      dyz     :     0.070349
      dx2y2   :     0.115409
      dxy     :     0.122959

  2 C s       :     2.726965  s :     2.726965
      pz      :     0.829377  p :     2.621776
      px      :     0.895562
      py      :     0.896837
      dz2     :     0.037570  d :     0.277298
      dxz     :     0.043183
      dyz     :     0.053268
      dx2y2   :     0.076500
      dxy     :     0.066777

  3 O s       :     3.549278  s :     3.549278
      pz      :     1.458047  p :     4.639768
      px      :     1.657210
      py      :     1.524510
      dz2     :     0.034121  d :     0.212331
      dxz     :     0.037058
      dyz     :     0.054917
      dx2y2   :     0.042782
      dxy     :     0.043453

  4 C s       :     2.903772  s :     2.903772
      pz      :     1.074449  p :     3.194539
      px      :     1.001913
      py      :     1.118177
      dz2     :     0.012997  d :     0.077294
      dxz     :     0.019417
      dyz     :     0.014383
      dx2y2   :     0.018177
      dxy     :     0.012320

  5 C s       :     2.856191  s :     2.856191
      pz      :     0.972356  p :     2.894220
      px      :     0.993088
      py      :     0.928776
      dz2     :     0.021207  d :     0.100742
      dxz     :     0.023162
      dyz     :     0.016354
      dx2y2   :     0.020872
      dxy     :     0.019146

  6 N s       :     3.422564  s :     3.422564
      pz      :     1.235564  p :     3.688399
      px      :     1.270419
      py      :     1.182416
      dz2     :     0.033948  d :     0.184176
      dxz     :     0.048112
      dyz     :     0.031975
      dx2y2   :     0.032776
      dxy     :     0.037365

  7 H s       :     0.779667  s :     0.779667
      pz      :     0.017216  p :     0.040879
      px      :     0.005395
      py      :     0.018268

  8 H s       :     0.781011  s :     0.781011
      pz      :     0.017820  p :     0.040553
      px      :     0.012841
      py      :     0.009892

  9 H s       :     0.761770  s :     0.761770
      pz      :     0.011319  p :     0.044871
      px      :     0.007510
      py      :     0.026041

 10 H s       :     0.749049  s :     0.749049
      pz      :     0.007378  p :     0.043874
      px      :     0.008684
      py      :     0.027811

 11 H s       :     0.748567  s :     0.748567
      pz      :     0.023448  p :     0.044462
      px      :     0.007376
      py      :     0.013637


---------------------------------
LOEWDIN BOND ORDERS (THRESH 0.050000)
---------------------------------
B(  0-C ,  1-O ) :   1.3434 B(  0-C ,  2-C ) :   0.0861 B(  0-C ,  3-O ) :   0.0674 
B(  0-C ,  7-H ) :   0.8633 B(  0-C ,  8-H ) :   0.8650 B(  0-C ,  9-H ) :   0.8432 
B(  1-O ,  2-C ) :   1.4802 B(  1-O ,  3-O ) :   0.4625 B(  1-O ,  4-C ) :   0.1808 
B(  1-O ,  7-H ) :   0.0995 B(  1-O ,  8-H ) :   0.1001 B(  1-O ,  9-H ) :   0.0945 
B(  2-C ,  3-O ) :   2.1943 B(  2-C ,  4-C ) :   0.8755 B(  2-C ,  5-C ) :   0.0824 
B(  3-O ,  4-C ) :   0.1786 B(  4-C ,  5-C ) :   1.0712 B(  4-C ,  6-N ) :   0.2008 
B(  4-C , 10-H ) :   0.8434 B(  4-C , 11-H ) :   0.8382 B(  5-C ,  6-N ) :   3.2364 


------------------------------------------
LOEWDIN REDUCED ORBITAL POPULATIONS PER MO
-------------------------------------------
THRESHOLD FOR PRINTING IS 0.1%%
                      0         1         2         3         4         5   
                 -19.02954 -18.95961 -14.16255 -10.19124 -10.10636 -10.10593
                   2.00000   2.00000   2.00000   2.00000   2.00000   2.00000
                  --------  --------  --------  --------  --------  --------
 0 C  s               0.0       0.0       0.0       0.0       0.0      99.4
 1 O  s              99.9       0.0       0.0       0.0       0.0       0.0
 1 O  dxz             0.0       0.0       0.0       0.0       0.0       0.1
 1 O  dx2y2           0.0       0.0       0.0       0.0       0.0       0.1
 1 O  dxy             0.0       0.0       0.0       0.2       0.0       0.0
 2 C  s               0.0       0.0       0.0      98.9       0.0       0.0
 3 O  s               0.0      99.9       0.0       0.0       0.0       0.0
 3 O  py              0.0       0.0       0.0       0.1       0.0       0.0
 3 O  dyz             0.0       0.0       0.0       0.2       0.0       0.0
 4 C  s               0.0       0.0       0.0       0.0      99.6       0.0
 6 N  s               0.0       0.0      99.7       0.0       0.0       0.0

                      6         7         8         9        10        11   
                 -10.08097  -1.10513  -1.00957  -0.88813  -0.79300  -0.71619
                   2.00000   2.00000   2.00000   2.00000   2.00000   2.00000
                  --------  --------  --------  --------  --------  --------
 0 C  s               0.0       4.2       1.7       0.0       4.0      26.1
 0 C  pz              0.0       0.7       0.4       0.0       0.1       0.0
 0 C  px              0.0       4.2       1.2       0.0       0.2       0.2
 0 C  py              0.0       0.5       0.1       0.0       0.0       0.2
 0 C  dxz             0.0       0.2       0.1       0.0       0.0       0.0
 0 C  dx2y2           0.0       0.2       0.1       0.0       0.0       0.0
 1 O  s               0.0      42.5      15.8       0.0       0.3       0.8
 1 O  pz              0.0       0.7       0.1       0.0       0.5       1.0
 1 O  px              0.0       0.0       0.4       0.1       5.9      16.1
 1 O  py              0.0       2.2       0.6       0.0       1.4       6.4
 1 O  dz2             0.0       0.2       0.0       0.0       0.1       0.1
 1 O  dxz             0.0       0.0       0.1       0.0       0.0       1.2
 1 O  dyz             0.0       0.2       0.4       0.0       0.0       0.1
 1 O  dx2y2           0.0       0.1       0.8       0.0       0.0       1.5
 1 O  dxy             0.0       0.4       0.1       0.0       0.5       0.1
 2 C  s               0.0      16.8       4.1       0.2       3.8       1.7
 2 C  pz              0.0       0.2       5.9       0.2       3.9       0.3
 2 C  px              0.0       3.3       0.0       1.2       8.1       1.4
 2 C  py              0.0       1.3      18.1       0.1       0.9       3.4
 2 C  dz2             0.0       0.2       0.1       0.0       0.0       0.0
 2 C  dxz             0.0       0.0       0.3       0.0       0.1       0.1
 2 C  dyz             0.0       0.5       0.6       0.0       0.0       0.1
 2 C  dx2y2           0.0       0.3       0.1       0.0       0.1       0.2
 2 C  dxy             0.0       0.2       0.8       0.0       0.0       0.1
 3 O  s               0.0      11.5      42.4       0.2       1.9       0.2
 3 O  pz              0.0       1.0       1.5       0.0       0.2       0.0
 3 O  px              0.0       0.1       0.5       0.0       0.3       0.0
 3 O  py              0.0       2.0       1.9       0.0       0.2       0.2
 3 O  dxz             0.0       0.0       0.1       0.0       0.4       0.0
 3 O  dyz             0.0       0.9       0.1       0.0       0.2       0.1
 3 O  dx2y2           0.0       0.5       0.1       0.0       0.0       0.2
 3 O  dxy             0.0       0.0       0.1       0.0       0.4       0.1
 4 C  s               0.0       1.1       0.3       4.3      28.3       6.5
 4 C  pz              0.0       0.4       0.2       0.8       0.3       0.0
 4 C  px              0.0       1.6       0.1       1.1       0.1       2.0
 4 C  py              0.0       0.0       0.2       0.6       0.2       0.1
 5 C  s              99.1       0.1       0.0      28.6       1.1       1.2
 5 C  pz              0.0       0.0       0.0       3.3       6.0       1.9
 5 C  px              0.0       0.3       0.0       4.0       9.0       1.8
 5 C  py              0.0       0.0       0.0       2.0       3.6       1.3
 5 C  dxz             0.0       0.0       0.0       0.8       0.0       0.0
 5 C  dyz             0.0       0.0       0.0       0.4       0.0       0.0
 5 C  dxy             0.0       0.0       0.0       0.5       0.0       0.0
 6 N  s               0.1       0.0       0.0      39.4       4.3       0.6
 6 N  pz              0.1       0.0       0.0       3.5       0.3       0.1
 6 N  px              0.1       0.0       0.0       4.5       0.4       0.1
 6 N  py              0.1       0.0       0.0       2.1       0.2       0.1
 6 N  dxz             0.2       0.0       0.0       0.5       0.2       0.1
 6 N  dyz             0.1       0.0       0.0       0.2       0.1       0.1
 6 N  dxy             0.1       0.0       0.0       0.3       0.1       0.1
 7 H  s               0.0       0.3       0.1       0.0       0.6       5.9
 7 H  pz              0.0       0.0       0.0       0.0       0.0       0.3
 7 H  py              0.0       0.0       0.0       0.0       0.0       0.2
 8 H  s               0.0       0.3       0.1       0.0       0.7       6.3
 8 H  pz              0.0       0.0       0.0       0.0       0.0       0.3
 8 H  px              0.0       0.0       0.0       0.0       0.0       0.2
 9 H  s               0.0       0.4       0.1       0.0       0.6       4.9
 9 H  py              0.0       0.0       0.0       0.0       0.0       0.3
10 H  s               0.0       0.1       0.0       0.4       4.4       1.9
10 H  py              0.0       0.0       0.0       0.0       0.4       0.2
11 H  s               0.0       0.1       0.0       0.4       4.9       1.1
11 H  pz              0.0       0.0       0.0       0.0       0.4       0.1
11 H  py              0.0       0.0       0.0       0.0       0.1       0.0

                     12        13        14        15        16        17   
                  -0.57163  -0.52610  -0.50418  -0.47989  -0.46268  -0.43730
                   2.00000   2.00000   2.00000   2.00000   2.00000   2.00000
                  --------  --------  --------  --------  --------  --------
 0 C  s               8.7       0.2       0.0       0.3       0.0       0.2
 0 C  pz              4.4       4.5       0.0       0.1      18.7       0.5
 0 C  px             11.6       0.5       1.2       2.5       7.1       2.8
 0 C  py              0.0       1.3       5.5       4.7       2.6       0.3
 0 C  dxz             0.4       0.0       0.0       0.1       0.0       0.0
 0 C  dx2y2           0.4       0.1       0.0       0.0       0.0       0.0
 1 O  s               5.7       1.2       0.4       0.8       0.0       0.8
 1 O  pz              0.2       6.4       0.8       6.1      18.6       1.8
 1 O  px              5.9       2.5       1.1       6.7       4.4       6.4
 1 O  py              9.5       5.4      11.1       4.7       3.6       0.3
 1 O  dz2             0.3       0.1       0.0       0.0       1.0       0.0
 1 O  dxz             0.5       0.0       0.4       0.1       0.5       0.0
 1 O  dyz             0.1       0.4       0.0       0.2       0.1       0.0
 1 O  dx2y2           0.4       0.1       0.1       0.4       0.2       0.0
 1 O  dxy             0.8       0.4       0.9       0.2       0.0       0.1
 2 C  s               6.1       0.3       0.9       1.2       0.1       0.9
 2 C  pz              2.0       6.8       2.1       0.7       2.5       1.2
 2 C  px              0.8       3.7      13.6       0.5       0.4       0.0
 2 C  py              0.8       5.5       0.5       1.5       1.0       3.2
 2 C  dxz             0.0       0.0       0.0       0.0       0.1       0.1
 2 C  dyz             0.0       0.0       0.0       0.2       0.1       0.0
 2 C  dx2y2           0.0       0.0       0.0       0.2       0.1       0.1
 2 C  dxy             0.0       0.0       0.0       0.2       0.0       0.2
 3 O  s               2.8       0.0       0.6       9.4       0.1       5.3
 3 O  pz              1.3       2.2       0.0       6.6       2.1       6.7
 3 O  px              0.1       2.2       8.3       1.0       0.0       1.3
 3 O  py              1.6       1.7       0.3       9.8       0.2      12.4
 3 O  dz2             0.0       0.5       0.1       0.0       0.1       0.0
 3 O  dxz             0.1       0.4       0.3       0.1       0.0       0.1
 3 O  dyz             0.3       0.0       0.0       0.2       0.1       0.1
 3 O  dx2y2           0.0       0.3       0.0       0.0       0.1       0.1
 3 O  dxy             0.0       0.1       1.0       0.0       0.0       0.0
 4 C  s               0.3       0.8       1.5       0.0       0.7       0.0
 4 C  pz              0.1       4.5      24.9       2.5       7.7       3.7
 4 C  px             11.0      13.6       2.0       1.2       0.3       2.5
 4 C  py              0.0       8.7       0.3      18.2       1.5      20.2
 4 C  dz2             0.0       0.0       0.0       0.0       0.0       0.1
 4 C  dxz             0.2       0.3       0.1       0.0       0.1       0.0
 4 C  dyz             0.0       0.1       0.1       0.0       0.0       0.1
 4 C  dx2y2           0.1       0.0       0.1       0.0       0.1       0.0
 4 C  dxy             0.0       0.1       0.0       0.0       0.1       0.2
 5 C  s               1.6       5.4       0.3       0.0       1.7       0.0
 5 C  pz              2.1       3.4       1.8       0.6       0.2       0.8
 5 C  px              0.5       3.9       2.9       0.3       1.5       0.6
 5 C  py              1.0       1.2       0.2       2.8       0.5       5.8
 6 N  s               0.5       1.9       0.2       0.0       0.6       0.0
 6 N  pz              0.2       0.6       0.2       0.1       0.1       0.2
 6 N  px              0.1       0.7       0.5       0.1       0.5       0.2
 6 N  py              0.1       0.3       0.0       0.5       0.2       1.6
 6 N  dz2             0.0       0.0       0.1       0.0       0.0       0.1
 6 N  dxz             0.1       0.5       0.0       0.0       0.1       0.1
 6 N  dyz             0.1       0.2       0.0       0.0       0.0       0.1
 6 N  dx2y2           0.0       0.1       0.1       0.1       0.0       0.1
 6 N  dxy             0.1       0.2       0.1       0.0       0.1       0.1
 7 H  s               4.6       0.3       0.9       1.1       6.9       0.4
 7 H  py              0.2       0.0       0.0       0.0       0.2       0.0
 8 H  s               4.0       0.2       0.0       1.7       6.9       0.4
 8 H  pz              0.3       0.0       0.0       0.1       0.0       0.0
 8 H  py              0.0       0.0       0.0       0.0       0.1       0.0
 9 H  s               6.7       2.0       1.9       0.2       0.1       0.3
 9 H  pz              0.0       0.0       0.0       0.0       0.1       0.0
 9 H  py              0.4       0.1       0.0       0.0       0.0       0.0
10 H  s               0.5       2.8       2.9       6.2       2.3       9.2
10 H  px              0.0       0.2       0.0       0.0       0.0       0.0
10 H  py              0.1       0.1       0.2       0.2       0.1       0.2
11 H  s               0.1       0.9       8.8       4.8       2.7       7.7
11 H  pz              0.0       0.0       0.1       0.2       0.0       0.3
11 H  py              0.0       0.1       0.2       0.0       0.1       0.0

                     18        19        20        21        22        23   
                  -0.41301  -0.38676  -0.34766  -0.33538  -0.32267  -0.31703
                   2.00000   2.00000   2.00000   2.00000   2.00000   2.00000
                  --------  --------  --------  --------  --------  --------
 0 C  s               0.1       0.0       0.2       0.0       0.1       0.0
 0 C  pz              1.0      12.5       5.1       0.3       0.6       0.0
 0 C  px              2.7       4.2       2.2       0.0       0.2       0.5
 0 C  py             26.3       1.6      11.0       0.0       0.0       0.0
 0 C  dxz             0.2       0.1       0.1       0.0       0.0       0.0
 0 C  dyz             0.1       0.3       0.2       0.0       0.0       0.0
 0 C  dxy             0.0       0.0       0.5       0.0       0.0       0.0
 1 O  s               0.1       0.0       3.7       0.1       0.3       0.1
 1 O  pz              1.5       2.5      11.4       1.0       4.1       0.4
 1 O  px              4.6       0.8       6.5       0.0       0.3       1.4
 1 O  py              0.4       0.3      14.2       0.1       1.7       0.7
 1 O  dz2             0.0       0.0       0.2       0.0       0.1       0.0
 1 O  dxz             0.4       1.1       0.1       0.0       0.0       0.1
 1 O  dyz             0.0       1.2       0.4       0.0       0.1       0.0
 1 O  dx2y2           0.5       1.3       0.0       0.0       0.1       0.0
 1 O  dxy             0.5       0.0       1.3       0.0       0.2       0.2
 2 C  s               0.5       0.0       0.1       0.0       0.5       0.1
 2 C  pz              1.7      12.0       1.1       0.0       0.5       0.0
 2 C  px              6.0       2.2       0.4       0.1       1.6       0.3
 2 C  py              0.5       4.2       2.4       0.1       0.6       0.0
 2 C  dz2             0.0       0.3       0.0       0.0       0.0       0.1
 2 C  dyz             0.1       0.0       0.3       0.0       0.0       0.0
 2 C  dx2y2           0.3       0.0       0.5       0.0       0.0       0.1
 2 C  dxy             0.0       0.1       0.0       0.0       0.2       0.0
 3 O  s               2.2       0.0       0.8       0.0       0.2       0.0
 3 O  pz              5.7      17.6       1.7       0.7       0.3       1.5
 3 O  px              0.2       3.9       5.2       0.1       3.3       0.6
 3 O  py              8.8       7.5       2.8       0.0       4.2       0.3
 3 O  dz2             0.1       0.7       0.0       0.0       0.0       0.0
 3 O  dyz             0.1       0.1       0.1       0.0       0.1       0.0
 3 O  dx2y2           0.2       0.1       0.2       0.0       0.1       0.0
 3 O  dxy             0.0       0.1       0.1       0.0       0.0       0.0
 4 C  s               0.3       0.2       0.4       0.2       0.1       0.0
 4 C  pz              1.5       2.0       0.2       1.3       1.0       0.2
 4 C  px              7.1       0.0       0.9       1.4       0.3       0.7
 4 C  py              0.5       0.5       0.1       0.6       0.0       3.5
 4 C  dz2             0.0       0.1       0.0       0.0       0.2       0.1
 4 C  dyz             0.0       0.0       0.0       0.0       0.0       0.2
 4 C  dx2y2           0.0       0.1       0.0       0.0       0.2       0.3
 4 C  dxy             0.0       0.1       0.0       0.0       0.1       0.0
 5 C  s               0.2       1.2       0.0       2.1       0.0       0.0
 5 C  pz              1.8       0.4       1.9       3.4      19.0       1.3
 5 C  px              1.5       0.2       2.3       4.2      10.5       5.3
 5 C  py              0.6       0.1       0.1       2.1       0.5      23.3
 5 C  dz2             0.0       0.0       0.0       0.0       0.6       0.1
 5 C  dxz             0.0       0.0       0.0       0.0       0.0       0.2
 5 C  dyz             0.0       0.0       0.0       0.0       0.1       0.2
 5 C  dx2y2           0.0       0.0       0.0       0.0       0.1       0.6
 5 C  dxy             0.0       0.0       0.0       0.0       0.1       0.2
 6 N  s               0.1       0.8       0.4      22.3       0.0       0.0
 6 N  pz              0.8       0.8       3.6      19.4      25.5       2.0
 6 N  px              0.4       0.5       0.6      27.2      17.1       8.5
 6 N  py              0.3       0.3       0.5      11.6       1.0      37.8
 6 N  dz2             0.1       0.0       0.1       0.0       1.2       0.1
 6 N  dxz             0.0       0.1       0.0       0.2       0.0       0.3
 6 N  dyz             0.1       0.0       0.1       0.1       0.1       0.3
 6 N  dx2y2           0.1       0.0       0.1       0.0       0.2       0.8
 6 N  dxy             0.0       0.0       0.0       0.1       0.2       0.3
 7 H  s               4.1       7.8       0.7       0.1       0.1       0.2
 7 H  pz              0.2       0.0       0.1       0.0       0.0       0.0
 7 H  py              0.0       0.1       0.0       0.0       0.0       0.0
 8 H  s               5.7       7.2       2.3       0.2       0.2       0.2
 8 H  pz              0.1       0.0       0.0       0.0       0.0       0.0
 8 H  px              0.0       0.0       0.1       0.0       0.0       0.0
 9 H  s               7.8       0.0      12.2       0.1       0.3       0.1
 9 H  px              0.1       0.0       0.0       0.0       0.0       0.0
 9 H  py              0.1       0.0       0.2       0.0       0.0       0.0
10 H  s               0.8       1.1       0.0       0.1       0.3       4.3
11 H  s               0.0       1.1       0.0       0.1       1.1       2.2

                     24        25        26        27        28        29   
                  -0.29919  -0.26726  -0.05206   0.00183   0.00897   0.03695
                   2.00000   2.00000   0.00000   0.00000   0.00000   0.00000
                  --------  --------  --------  --------  --------  --------
 0 C  s               0.0       0.1       0.0       0.0       0.2       2.4
 0 C  pz              3.4       0.1       0.1       0.0       0.1       4.4
 0 C  px              0.9       0.7       0.0       0.2       0.4      18.6
 0 C  py              1.1       0.3       0.0       0.0       0.0       0.8
 0 C  dz2             0.2       0.0       0.1       0.0       0.0       0.1
 0 C  dxz             0.2       0.0       0.1       0.0       0.0       0.9
 0 C  dyz             0.4       0.0       0.1       0.0       0.0       0.0
 0 C  dx2y2           0.2       0.0       0.1       0.0       0.0       0.9
 0 C  dxy             0.0       0.0       0.0       0.0       0.0       0.2
 1 O  s               0.0       0.4       0.0       0.1       0.1       7.4
 1 O  pz             24.4       1.8       5.2       0.2       1.3       0.9
 1 O  px              8.8       0.2       1.9       0.1       0.2       1.3
 1 O  py             10.0       4.6       2.2       0.1       0.1       0.2
 1 O  dz2             0.6       0.0       0.1       0.4       0.1       0.3
 1 O  dxz             0.0       0.0       1.0       0.1       0.1       0.9
 1 O  dyz             0.0       0.3       1.5       0.0       0.3       0.3
 1 O  dx2y2           0.0       0.2       2.1       0.3       0.3       0.1
 1 O  dxy             0.1       0.1       0.0       0.1       1.2       0.4
 2 C  s               0.0       0.2       0.1       0.0       2.4       9.5
 2 C  pz              0.3       0.2      22.0       0.0       1.6       0.2
 2 C  px              0.1       0.9       4.4       0.0       8.8       0.3
 2 C  py              0.1       0.5       6.3       0.1       1.7       0.4
 2 C  dz2             0.7       0.3       0.8       0.0       0.0       0.3
 2 C  dxz             0.3       1.1       0.1       0.0       0.0       0.6
 2 C  dyz             0.5       0.1       0.0       0.0       0.0       0.3
 2 C  dx2y2           0.3       1.6       0.0       0.0       0.0       0.0
 2 C  dxy             0.4       1.0       0.2       0.0       0.1       0.4
 3 O  s               0.0       0.0       0.0       0.0       0.1       1.3
 3 O  pz             19.3       4.3      13.4       0.1       1.4       0.0
 3 O  px              9.1      46.5       3.6       0.1       1.7       0.0
 3 O  py              4.8      17.6       4.2       0.0       0.6       0.3
 3 O  dz2             0.0       0.0       4.3       0.1       0.6       0.0
 3 O  dxz             0.0       0.2       0.0       0.1       0.2       0.7
 3 O  dyz             0.0       0.0       0.4       0.0       0.1       0.6
 3 O  dx2y2           0.0       0.1       0.0       0.2       0.1       0.0
 3 O  dxy             0.0       0.1       0.9       0.1       0.8       0.0
 4 C  s               0.0       0.7       0.0       0.0       0.6      16.3
 4 C  pz              0.0       2.2       0.2       0.1       0.2       0.9
 4 C  px              0.1       4.0       0.1       0.0       5.8       0.2
 4 C  py              0.2       0.4       0.0       0.4       0.2       0.1
 4 C  dz2             0.0       0.0       0.7       1.3       0.2       0.0
 4 C  dxz             0.0       0.0       0.3       0.4       1.4       0.0
 4 C  dyz             0.0       0.0       0.0       0.9       0.2       0.0
 4 C  dx2y2           0.0       0.0       0.9       0.6       1.1       0.0
 4 C  dxy             0.0       0.0       0.6       0.1       0.0       0.0
 5 C  s               0.0       0.0       1.1       0.0       0.8      12.6
 5 C  pz              0.1       0.4       3.7       7.0       9.0       0.5
 5 C  px              0.1       0.5       1.2       1.0      15.8       0.2
 5 C  py              1.2       0.0       0.6      25.0       0.9       0.4
 5 C  dz2             0.0       0.3       0.4       0.6       1.1       0.0
 5 C  dxz             0.0       0.0       0.0       0.6       0.0       1.1
 5 C  dyz             0.0       0.0       0.1       0.2       0.8       0.3
 5 C  dx2y2           0.0       0.1       0.4       0.9       0.4       0.1
 5 C  dxy             0.0       0.1       0.1       0.9       0.0       0.6
 6 N  s               0.0       0.0       0.1       0.0       0.1       2.4
 6 N  pz              0.4       3.8       4.3       7.7      10.8       0.1
 6 N  px              0.4       1.6       3.7       1.2      15.0       0.4
 6 N  py              2.6       0.0       0.4      27.1       1.2       0.2
 6 N  dz2             0.0       0.0       0.6       1.9       3.3       0.0
 6 N  dxz             0.0       0.0       0.1       1.6       0.1       0.3
 6 N  dyz             0.0       0.0       0.4       0.7       1.4       0.0
 6 N  dx2y2           0.0       0.0       0.4       2.5       2.0       0.0
 6 N  dxy             0.0       0.0       0.0       2.4       0.3       0.1
 7 H  s               4.9       0.0       0.8       0.0       0.0       0.6
 7 H  px              0.0       0.0       0.0       0.0       0.0       0.8
 8 H  s               2.7       0.0       0.3       0.0       0.2       0.4
 8 H  pz              0.0       0.0       0.0       0.0       0.0       0.6
 8 H  px              0.0       0.0       0.0       0.0       0.1       0.2
 9 H  s               0.3       0.1       0.0       0.0       0.0       0.3
 9 H  px              0.0       0.0       0.0       0.0       0.0       0.3
 9 H  py              0.0       0.1       0.0       0.0       0.0       0.3
10 H  s               0.2       0.1       1.4       5.2       0.8       1.6
10 H  pz              0.0       0.0       0.0       0.2       0.0       0.1
10 H  px              0.0       0.0       0.0       0.0       0.2       0.1
10 H  py              0.0       0.0       0.1       0.3       0.2       0.7
11 H  s               0.1       1.3       1.7       5.8       0.5       1.3
11 H  pz              0.0       0.0       0.1       0.5       0.0       0.7
11 H  px              0.0       0.1       0.0       0.1       0.3       0.0
11 H  py              0.0       0.0       0.0       0.0       0.0       0.1

                     30        31        32        33        34        35   
                   0.07434   0.09625   0.12650   0.13900   0.14258   0.15340
                   0.00000   0.00000   0.00000   0.00000   0.00000   0.00000
                  --------  --------  --------  --------  --------  --------
 0 C  s               8.4      26.5       2.5       1.4       1.9       0.0
 0 C  pz              6.9       0.7       2.3       7.9       0.7       3.2
 0 C  px             21.7       3.1       1.4       0.9       6.4       0.3
 0 C  py              0.7       0.7       7.7       5.1       1.0       8.0
 0 C  dz2             0.1       0.0       0.0       0.1       0.2       0.4
 0 C  dxz             1.1       0.3       0.4       0.0       0.3       0.7
 0 C  dyz             0.1       0.0       0.0       0.0       0.0       1.1
 0 C  dx2y2           1.0       0.2       0.1       0.0       0.1       0.8
 0 C  dxy             0.2       0.0       0.1       0.0       0.1       0.4
 1 O  s               3.8       0.7       0.0       0.0       0.1       0.2
 1 O  pz              1.3       0.1       1.0       0.8       0.7       0.0
 1 O  px              7.1       0.1       0.6       0.5       0.6       0.0
 1 O  py              0.2       0.0       2.9       0.2       0.3       0.2
 1 O  dz2             0.4       0.6       0.2       0.5       1.5       5.0
 1 O  dxz             3.1       3.7       3.4       0.1       0.4       0.0
 1 O  dyz             0.0       0.1       1.4       0.0       0.0       0.5
 1 O  dx2y2           1.6       1.8       0.0       0.1       0.0       3.7
 1 O  dxy             0.5       0.3       2.0       0.0       0.3       2.4
 2 C  s               3.1       0.9       4.9       0.2       0.2       2.2
 2 C  pz              0.7       0.3       0.0       9.7       1.6       7.5
 2 C  px              0.7       6.0       0.9       2.6       1.2       0.1
 2 C  py              1.2       0.1       1.3       6.6       1.9       1.1
 2 C  dz2             0.0       0.0       0.5       0.0       0.0       0.0
 2 C  dxz             0.0       0.0       0.3       0.2       0.1       0.5
 2 C  dyz             0.7       0.2       0.4       0.2       0.3       0.1
 2 C  dx2y2           0.2       0.0       0.0       0.0       0.0       0.0
 2 C  dxy             0.3       0.0       0.5       0.1       0.6       0.0
 3 O  s               0.7       0.6       0.3       0.3       0.0       1.4
 3 O  pz              0.1       0.1       0.0       0.9       0.0       0.5
 3 O  px              1.0       1.3       0.1       0.1       1.0       0.4
 3 O  py              0.1       0.4       0.4       0.4       0.9       0.2
 3 O  dz2             0.1       0.0       0.9       0.0       0.3       0.0
 3 O  dxz             0.0       0.1       1.1       0.0       0.1       0.1
 3 O  dyz             0.2       0.2       0.1       0.0       0.0       0.5
 3 O  dx2y2           0.1       0.0       1.3       0.2       0.2       1.6
 3 O  dxy             0.7       0.0       2.4       0.3       1.2       0.0
 4 C  s               5.5       6.3       0.5       3.5       1.6       0.0
 4 C  pz              0.9       0.3      13.0      20.8       1.5       0.0
 4 C  px              1.9       6.3       1.9       5.9       2.1       7.7
 4 C  py              0.4       0.1      10.5       0.5      29.5       4.0
 4 C  dz2             0.1       0.0       0.0       0.3       0.5       0.1
 4 C  dxz             0.0       0.0       0.0       0.0       0.0       1.0
 4 C  dyz             0.0       0.0       1.8       0.2       0.0       0.3
 4 C  dx2y2           0.0       0.0       0.9       0.0       0.4       0.0
 4 C  dxy             0.4       0.0       0.1       0.1       1.2       0.0
 5 C  s               7.6       4.5       1.5       3.0       0.6       1.2
 5 C  pz              1.0       0.3       1.8       3.1       0.5       2.1
 5 C  px              1.1       4.0       1.5       2.7       0.3       0.6
 5 C  py              0.4       0.0       0.7       0.6       5.2       0.8
 5 C  dxz             0.7       0.5       0.1       0.2       0.4       0.1
 5 C  dyz             0.3       0.4       0.1       0.0       0.0       0.0
 5 C  dx2y2           0.0       0.0       0.1       0.0       0.0       0.0
 5 C  dxy             0.3       0.4       0.0       0.3       0.0       0.2
 6 N  s               1.9       1.8       0.3       2.0       0.4       0.2
 6 N  pz              0.9       0.1       0.7       0.9       0.1       0.5
 6 N  px              0.2       0.1       1.1       0.1       0.6       0.7
 6 N  py              0.1       0.1       0.3       0.4       1.2       0.4
 6 N  dz2             0.4       0.0       0.3       0.6       0.2       0.1
 6 N  dxz             0.1       0.1       0.1       1.3       0.0       0.1
 6 N  dyz             0.0       0.1       0.5       0.0       0.2       0.8
 6 N  dx2y2           0.0       0.1       1.0       0.0       0.9       0.4
 6 N  dxy             0.1       0.1       0.6       0.2       0.0       0.0
 7 H  s               0.6       6.8       0.4       0.9       0.1       2.3
 7 H  pz              0.3       1.0       0.1       0.6       0.0       1.4
 7 H  px              0.7       0.4       0.1       0.1       0.0       0.0
 7 H  py              0.1       1.1       0.1       0.2       0.3       0.2
 8 H  s               0.5       5.2       3.0       0.8       0.9       4.5
 8 H  pz              0.1       2.0       0.7       0.1       0.0       0.6
 8 H  px              0.9       0.5       0.3       0.0       0.0       1.3
 8 H  py              0.1       0.1       0.2       0.0       0.1       0.5
 9 H  s               0.8       2.6       0.0       0.0       3.0      16.9
 9 H  pz              0.3       0.1       0.0       0.1       0.0       0.7
 9 H  px              0.7       0.0       0.1       0.0       0.3       0.5
 9 H  py              0.0       1.4       0.0       0.0       0.8       2.4
10 H  s               0.5       1.8       1.0       0.1      14.5       0.8
10 H  pz              0.0       0.0       1.7       0.1       0.0       0.0
10 H  px              0.1       0.1       0.0       0.0       1.3       0.1
10 H  py              0.1       0.9       0.1       0.1       5.2       0.5
11 H  s               1.2       0.7       7.9       6.6       0.6       1.1
11 H  pz              0.5       0.3       0.4       2.9       0.8       0.2
11 H  px              0.0       0.0       0.1       0.0       0.1       1.0
11 H  py              0.0       0.2       2.8       0.9       0.1       0.1

                     36        37        38        39        40        41   
                   0.16531   0.16780   0.17475   0.18316   0.21217   0.22309
                   0.00000   0.00000   0.00000   0.00000   0.00000   0.00000
                  --------  --------  --------  --------  --------  --------
 0 C  s               0.0       0.6       0.0       0.0       1.5       1.2
 0 C  pz             11.3       0.1       2.3      38.4       9.5       4.7
 0 C  px              5.1       1.9       0.4      10.7       4.6       1.3
 0 C  py              1.9       4.5      39.9       5.1      16.2       5.0
 0 C  dz2             0.1       0.0       0.5       0.2       0.1       0.0
 0 C  dxz             0.4       0.1       0.6       0.0       0.1       0.2
 0 C  dyz             3.9       0.2       0.3       0.0       0.1       0.2
 0 C  dx2y2           0.4       0.1       0.5       0.0       0.3       0.4
 0 C  dxy             0.5       0.0       0.0       0.1       0.3       0.0
 1 O  s               0.0       0.0       0.3       0.1       0.6       3.7
 1 O  pz              1.4       0.1       0.1       0.2       0.1       1.4
 1 O  px              0.3       0.1       0.4       0.0       1.8       4.7
 1 O  py              0.1       0.1       1.0       0.0       1.9       1.3
 1 O  dz2             3.6       0.0       0.6       0.1       0.0       1.0
 1 O  dxz             0.3       0.4       0.0       0.1       0.4       0.2
 1 O  dyz             2.2       0.4       1.0       0.2       0.1       0.2
 1 O  dx2y2           0.2       0.0       1.5       0.1       1.8       0.0
 1 O  dxy             4.4       0.0       0.3       0.0       1.5       0.6
 2 C  s               0.1       1.5       0.6       0.0       7.3       0.7
 2 C  pz              2.5       3.6       6.4       2.0       1.0       4.0
 2 C  px              0.4       1.5       0.3       0.5       0.5       1.7
 2 C  py              0.0       7.8       2.7       0.8       0.5      19.8
 2 C  dz2             0.0       0.0       0.0       0.0       0.1       0.3
 2 C  dxz             0.0       0.0       0.1       0.0       0.5       0.0
 2 C  dyz             0.0       0.2       0.0       0.0       1.1       0.0
 2 C  dx2y2           0.0       0.0       0.0       0.0       0.5       0.0
 2 C  dxy             0.0       0.1       0.0       0.0       0.2       0.8
 3 O  s               0.2       2.1       1.1       0.4       1.7       0.9
 3 O  pz              1.4       0.7       0.2       0.6       1.1       0.1
 3 O  px              0.0       0.0       0.3       0.1       1.4       1.0
 3 O  py              0.3       2.0       0.9       0.1       0.2       2.3
 3 O  dz2             0.0       0.3       0.5       0.5       0.6       0.3
 3 O  dxz             1.1       0.2       0.1       1.2       2.8       0.1
 3 O  dyz             1.0       1.6       0.1       1.1       0.1       0.1
 3 O  dx2y2           0.7       0.2       0.4       0.3       0.8       1.4
 3 O  dxy             0.3       0.3       0.0       0.6       0.2       0.2
 4 C  s               0.2       0.6       0.1       1.2       0.1       0.2
 4 C  pz              1.1      22.2       5.8       5.3       4.4       1.0
 4 C  px              0.1      15.8       4.7       1.8       4.4       2.4
 4 C  py              1.5       0.1       1.2       3.3       1.5       6.8
 4 C  dz2             0.0       0.1       0.0       0.0       0.0       0.4
 4 C  dxz             0.0       1.2       0.7       0.0       1.0       0.0
 4 C  dyz             0.1       0.2       0.9       0.1       0.4       0.0
 4 C  dx2y2           0.0       0.5       0.2       0.1       0.0       0.0
 4 C  dxy             0.0       0.2       0.2       0.0       0.2       1.1
 5 C  s               0.5       1.6       2.4       2.9       3.0       0.4
 5 C  pz              0.1       9.6       0.7       0.6       0.4       0.7
 5 C  px              0.1       2.9       0.0       5.4       4.2       3.7
 5 C  py              0.7       0.1       2.6       0.2       0.8       6.9
 5 C  dxz             0.0       0.0       0.3       0.3       0.5       0.1
 5 C  dyz             0.0       0.3       0.1       0.0       0.3       0.2
 5 C  dx2y2           0.0       0.2       0.0       0.0       0.1       0.0
[...]
 9 H  s               0.1       0.0      10.3       0.2       0.1       0.1
 9 H  pz              0.1       0.2       5.2       0.0       0.0       0.0
 9 H  px              0.2       0.1       3.2       0.2       0.3       0.0
 9 H  py              0.2       0.1      17.2       0.9       0.5       0.2
10 H  s               0.8       0.1       0.0       2.2       6.2       1.0
10 H  pz              0.0       0.0       0.0       0.7       0.9       0.0
10 H  px              0.2       0.0       0.0       0.3       0.8       0.8
10 H  py              3.4       0.4       0.1       3.7      11.2       2.6
11 H  s               1.5       0.1       0.2       7.1       1.9       0.3
11 H  pz              3.9       0.1       0.7      13.6       3.5       0.3
11 H  px              0.3       0.0       0.0       0.1       0.0       0.1
11 H  py              2.8       0.0       0.1       2.9       0.2       1.0

                    162       163       164       165       166       167   
                   3.98378   4.23505   4.29177   4.42227  21.85303  21.96908
                   0.00000   0.00000   0.00000   0.00000   0.00000   0.00000
                  --------  --------  --------  --------  --------  --------
 0 C  s               1.7       0.0       0.6       0.1      10.5      87.2
 0 C  pz              1.4       0.0       0.4       0.0       0.0       0.0
 0 C  px              6.2       0.1       1.4       0.1       0.0       0.0
 0 C  py              0.5       0.0       0.0       0.0       0.0       0.0
 0 C  dz2             0.7       0.0       0.1       0.0       0.0       0.0
 0 C  dxz             7.2       0.0       0.8       0.1       0.0       0.0
 0 C  dyz             0.0       0.0       0.3       0.0       0.0       0.0
 0 C  dx2y2           5.8       0.1       1.3       0.1       0.0       0.0
 0 C  dxy             0.6       0.0       0.2       0.0       0.0       0.0
 1 O  s              22.6       0.9       5.6       2.3       0.0       0.1
 1 O  pz              4.4       0.0       0.1       0.1       0.0       0.0
 1 O  px              9.5       1.4      13.8       0.3       0.0       0.0
 1 O  py              0.2       1.9      12.3       0.6       0.0       0.0
 1 O  dz2             3.7       0.6       2.9       0.5       0.0       0.0
 1 O  dxz             9.6       0.3       3.5       0.4       0.0       0.0
 1 O  dyz             0.0       0.3       1.8       0.0       0.0       0.0
 1 O  dx2y2           6.4       0.8       8.0       0.2       0.0       0.0
 1 O  dxy             7.6       1.8       9.8       1.3       0.0       0.0
 2 C  s               0.3       0.7       1.1       6.5       0.0       1.2
 2 C  pz              0.2       0.0       0.7       2.3       0.0       0.0
 2 C  px              0.1       0.6       1.1       1.0       0.0       0.0
 2 C  py              0.9       0.4       6.0       2.8       0.0       0.0
 2 C  dz2             0.2       0.2       1.8       0.0       0.0       0.0
 2 C  dxz             0.2       0.2       1.3       0.4       0.0       0.0
 2 C  dyz             0.1       0.2       0.1       4.2       0.0       0.0
 2 C  dx2y2           0.4       0.6       1.6       1.6       0.0       0.0
 2 C  dxy             0.8       0.5       6.5       0.3       0.0       0.0
 3 O  s               1.2       0.3       0.8      18.3       0.0       0.0
 3 O  pz              0.3       0.1       0.2       7.5       0.0       0.0
 3 O  px              0.0       0.2       0.2       2.5       0.0       0.0
 3 O  py              0.8       0.2       0.7      10.8       0.0       0.0
 3 O  dxz             0.0       0.3       0.6       3.9       0.0       0.0
 3 O  dyz             1.3       0.3       1.1      18.5       0.0       0.0
 3 O  dx2y2           0.9       0.0       2.3       4.0       0.0       0.0
 3 O  dxy             0.1       0.2       0.0       5.2       0.0       0.0
 4 C  s               0.0       0.4       0.1       0.0      63.7       4.7
 4 C  pz              0.1       0.1       0.1       0.0       0.0       0.0
 4 C  px              0.0       0.5       0.0       0.0       0.0       0.0
 4 C  dxz             0.0       0.4       0.0       0.0       0.0       0.0
 4 C  dyz             0.0       0.1       0.1       0.1       0.0       0.0
 4 C  dx2y2           0.1       0.0       0.2       0.1       0.0       0.0
 4 C  dxy             0.1       0.1       0.1       0.2       0.0       0.0
 5 C  s               0.0      10.4       1.2       0.5      25.2       6.3
 5 C  pz              0.0       2.4       0.3       0.1       0.0       0.0
 5 C  px              0.0       3.0       0.3       0.1       0.1       0.0
 5 C  py              0.0       1.4       0.2       0.0       0.0       0.0
 5 C  dxz             0.0       4.3       0.4       0.3       0.0       0.0
 5 C  dyz             0.0       2.2       0.3       0.1       0.0       0.0
 5 C  dx2y2           0.0       0.3       0.1       0.0       0.0       0.0
 5 C  dxy             0.0       2.6       0.3       0.2       0.0       0.0
 6 N  s               0.0      10.6       1.2       0.4       0.1       0.0
 6 N  pz              0.0       3.9       0.5       0.1       0.0       0.0
 6 N  px              0.0       5.5       0.6       0.2       0.0       0.0
 6 N  py              0.0       2.4       0.2       0.1       0.0       0.0
 6 N  dxz             0.0      16.6       1.9       0.6       0.0       0.0
 6 N  dyz             0.0       7.3       0.8       0.2       0.0       0.0
 6 N  dx2y2           0.0       1.7       0.2       0.0       0.0       0.0
 6 N  dxy             0.0      10.0       1.0       0.3       0.0       0.0
 7 H  s               0.5       0.0       0.0       0.0       0.0       0.0
 7 H  pz              0.2       0.0       0.0       0.0       0.0       0.0
 7 H  px              0.6       0.0       0.0       0.0       0.0       0.0
 7 H  py              0.4       0.0       0.0       0.0       0.0       0.0
 8 H  s               0.4       0.0       0.0       0.0       0.0       0.0
 8 H  pz              1.1       0.0       0.1       0.0       0.0       0.0
 9 H  s               0.1       0.0       0.2       0.0       0.0       0.0
 9 H  py              0.3       0.0       0.3       0.0       0.0       0.0

                    168       169       170       171       172   
                  22.16014  22.40945  31.86830  43.64950  43.69962
                   0.00000   0.00000   0.00000   0.00000   0.00000
                  --------  --------  --------  --------  --------
 0 C  s               1.9       0.0       0.0       0.0       0.0
 1 O  s               0.0       0.1       0.0       8.3      91.6
 2 C  s              63.9      33.8       0.0       0.0       0.0
 3 O  s               0.1       0.1       0.0      91.6       8.3
 4 C  s              12.8      18.4       0.0       0.0       0.0
 5 C  s              20.6      46.4       0.1       0.0       0.0
 6 N  s               0.1       0.3      99.7       0.0       0.0


                      *****************************
                      * MAYER POPULATION ANALYSIS *
                      *****************************

  NA   - Mulliken gross atomic population
  ZA   - Total nuclear charge
  QA   - Mulliken gross atomic charge
  VA   - Mayer's total valence
  BVA  - Mayer's bonded valence
  FA   - Mayer's free valence

  ATOM       NA         ZA         QA         VA         BVA        FA
  0 C      6.2902     6.0000    -0.2902     3.7261     3.7261     0.0000
  1 O      8.1865     8.0000    -0.1865     1.9753     1.9753    -0.0000
  2 C      5.5667     6.0000     0.4333     3.8214     3.8214     0.0000
  3 O      8.4095     8.0000    -0.4095     1.9848     1.9848    -0.0000
  4 C      6.3804     6.0000    -0.3804     3.9667     3.9667    -0.0000
  5 C      5.8134     6.0000     0.1866     3.9454     3.9454     0.0000
  6 N      7.2340     7.0000    -0.2340     2.9696     2.9696    -0.0000
  7 H      0.8390     1.0000     0.1610     0.9550     0.9550    -0.0000
  8 H      0.8457     1.0000     0.1543     0.9565     0.9565     0.0000
  9 H      0.8114     1.0000     0.1886     0.9578     0.9578     0.0000
 10 H      0.8079     1.0000     0.1921     0.9481     0.9481    -0.0000
 11 H      0.8153     1.0000     0.1847     0.9504     0.9504    -0.0000

  Mayer bond orders larger than 0.100000
B(  0-C ,  1-O ) :   0.8343 B(  0-C ,  7-H ) :   0.9578 B(  0-C ,  8-H ) :   0.9645 
B(  0-C ,  9-H ) :   0.9646 B(  1-O ,  2-C ) :   1.0780 B(  2-C ,  3-O ) :   1.8556 
B(  2-C ,  4-C ) :   0.9275 B(  4-C ,  5-C ) :   1.0621 B(  4-C , 10-H ) :   0.9503 
B(  4-C , 11-H ) :   0.9502 B(  5-C ,  6-N ) :   2.8862 

-------
TIMINGS
-------

Total SCF time: 0 days 0 hours 0 min 16 sec 

Total time                  ....      16.230 sec
Sum of individual times     ....      15.734 sec  ( 96.9%)

SCF preparation             ....       0.166 sec  (  1.0%)
Fock matrix formation       ....      14.659 sec  ( 90.3%)
  Startup                   ....       0.054 sec  (  0.4% of F)
  Split-RI-J                ....       2.425 sec  ( 16.5% of F)
  XC integration            ....      11.614 sec  ( 79.2% of F)
    XC Preparation          ....       0.000 sec  (  0.0% of XC)
    Basis function eval.    ....       1.945 sec  ( 16.7% of XC)
    Density eval.           ....       3.331 sec  ( 28.7% of XC)
    XC-Functional eval.     ....       1.520 sec  ( 13.1% of XC)
    XC-Potential eval.      ....       3.810 sec  ( 32.8% of XC)
Diagonalization             ....       0.000 sec  (  0.0%)
Density matrix formation    ....       0.243 sec  (  1.5%)
Total Energy calculation    ....       0.035 sec  (  0.2%)
Population analysis         ....       0.073 sec  (  0.5%)
Orbital Transformation      ....       0.047 sec  (  0.3%)
Orbital Orthonormalization  ....       0.000 sec  (  0.0%)
DIIS solution               ....       0.382 sec  (  2.4%)
  MO trafo                  ....       0.000 sec  (  0.0 % of DIIS)
  Orb grad                  ....       0.000 sec  (  0.0 % of DIIS)
  Energy W gradient         ....       0.000 sec  (  0.0 % of DIIS)
  DIIS error                ....       0.007 sec  (  1.7 % of DIIS)
  DIIS work                 ....       0.331 sec  ( 86.6 % of DIIS)
  Form Q                    ....       0.000 sec  (  0.0 % of DIIS)
  Form QpQm                 ....       0.000 sec  (  0.0 % of DIIS)
  Exp/Cayley                ....       0.000 sec  (  0.0 % of DIIS)
  Orb update                ....       0.000 sec  (  0.0 % of DIIS)
  Wake-sleep                ....       0.021 sec  (  5.5 % of DIIS)
SOSCF solution              ....       0.129 sec  (  0.8%)
  MO trafo                  ....       0.052 sec  ( 40.2 % of SOSCF)
  Orb grad                  ....       0.002 sec  (  1.3 % of SOSCF)
  Rot update                ....       0.050 sec  ( 39.0 % of SOSCF)
  Step                      ....       0.025 sec  ( 19.6 % of SOSCF)
Finished LeanSCF after  16.3 sec

Maximum memory used throughout the entire LEANSCF-calculation: 17.2 MB


-------------------------------------------------------------------------------
                          DFT DISPERSION CORRECTION                            
                                                                               
                                DFTD4 V3.4.0                                   
-------------------------------------------------------------------------------
The R2SCAN3C composite method is recognized
Using three-body term ABC
Active option DFTDOPT                   ...         5   

-------------------------   ----------------
Dispersion correction           -0.002819647
-------------------------   ----------------

------------------   -----------------
gCP correction             0.007763825
------------------   -----------------

-------------------------   --------------------
FINAL SINGLE POINT ENERGY      -360.545735452660
-------------------------   --------------------


------------------------------------------------------------------------------
                              ORCA PROPERTY CALCULATIONS
------------------------------------------------------------------------------

GBWName                                 ... sp_gas.gbw
Number of atoms                         ...     12
Number of basis functions               ...    173
Max core memory                         ...   1024 MB

Electric properties:
Dipole moment                           ... YES
Quadrupole moment                       ...  NO
Static polarizability (Dipole/Dipole)   ...  NO
Static polarizability (Dipole/Quad.)    ...  NO
Static polarizability (Quad./Quad.)     ...  NO
Static polarizability (Velocity)        ...  NO

Atomic electric properties:
Dipole moment                           ...  NO
Quadrupole moment                       ...  NO
Static polarizability                   ...  NO

Choice of electric origin               ... Center of mass
Position of electric origin             ...     0.000023     0.000011     0.000004

General magnetic properties:
Magnetizability                         ...  NO

EPR properties:
g-Tensor (aka g-matrix)                 ...  NO
Zero-Field splitting spin-orbit         ...  NO
Zero-field splitting spin-spin          ...  NO
Hyperfine couplings                     ...  NO (   0 nuclei)
Quadrupole couplings                    ...  NO (   0 nuclei)
Contact density                         ...  NO (   0 nuclei)

NMR properties:
Chemical shifts                         ...  NO (   0 nuclei)
Spin-rotation constants                 ...  NO (   0 nuclei)
Spin-spin couplings                     ...  NO (   0 nuclei,    0 pairs)

Choice of magnetic origin               ... GIAO
Position of magnetic origin             ...     0.000000     0.000000     0.000000

Properties with geometric perturbations:
SCF Hessian                             ...  NO
IR spectrum                             ...  NO
VCD spectrum                            ...  NO
X-ray spectroscopy properties:
SCF XES/XAS/RIXS spectra                ...  NO


-------------
DIPOLE MOMENT
-------------

Method             : SCF
Type of density    : Electron Density
Multiplicity       :   1
Irrep              :   0
Energy             :  -360.5506796301422128 Eh
Relativity type    : 
Basis              : AO
                                X                 Y                 Z
Electronic contribution:      4.345956342      -1.109182061      -0.466765377
Nuclear contribution   :     -5.634042003       1.212900510       1.595990240
                        -----------------------------------------
Total Dipole Moment    :     -1.288085661       0.103718449       1.129224863
                        -----------------------------------------
Magnitude (a.u.)       :      1.716120910
Magnitude (Debye)      :      4.362032697



--------------------
Rotational spectrum 
--------------------
 
Rotational constants in cm-1:             0.179353             0.055830             0.050193 
Rotational constants in MHz :          5376.861706          1673.726400          1504.757581 

Dipole components along the rotational axes: 
x,y,z [a.u.] :     1.287926     0.103418     1.129435 
x,y,z [Debye]:     3.273647     0.262867     2.870796 

 

Dipole moment calculation done in   0.0 sec 

Maximum memory used throughout the entire PROP-calculation: 10.0 MB

--------------------------------
SUGGESTED CITATIONS FOR THIS RUN
--------------------------------

Below you find a list of papers that are relevant to this ORCA run
We neither can nor want to force you to cite these papers, but we appreciate if you do
You receive ORCA, which is the product of decades of hard work by many enthusiastic individuals, for free
The only thing we kindly ask in return is that you cite our papers,
We deeply appreciate it, if you show your appreciation for ORCA by not just citing the generic ORCA reference.

Please note that relegating all ORCA citations to the supporting information does *not* help us.
SI sections are not indexed - citations you put there will not count into any citation statistics
But we need these citations in order to attract the funding resources that allow us to do what we are doing

Therefore, if you are a happy ORCA user, please consider citing a few of the papers listed below in the main body of your paper

In addition to the list printed below, the program has created the file sp_gas.bibtex that contains the list in bibtex format
You can import this file easily into all common literature databanks and citation aid programs


List of essential papers. We consider these as the minimum necessary citations

  1. Neese,F.
     Software update: the ORCA program system, version 5.0
     WIRES Comput. Molec. Sci., 2022 12(1)e1606
     doi.org/10.1002/wcms.1606
  2. Grimme,S.; Hansen,A.; Ehlert,S.; Mewes,J.
     r2SCAN-3c: A 'Swiss army knife' composite electronic-structure method
     J. Chem. Phys., 2021 154 064103
     doi.org/10.1063/5.0040021

List of papers to cite with high priority. The work reported in these papers was absolutely
necessary for this run to complete.
Our perspective: the developers of density functionals and basis sets usually get cited in chemistry papers
Good! But without the algorithms to do something with them, the functionals or basis sets would not do anything.
Hence, in our opinion, the algorithm design and method developments papers are equally worthy of getting cited

  1. Neese,F.
     An improvement of the resolution of the identity approximation for the formation of the Coulomb matrix
     J. Comp. Chem., 2003 24(14)1740-1747
     doi.org/10.1002/jcc.10318
  2. Neese,F.
     The SHARK Integral Generation and Digestion System
     J. Comp. Chem., 2022  1-16
     doi.org/10.1002/jcc.26942
  3. Lehtola,S.; Steigemann,C.; Oliveira,M.; Marques,M.
     Recent developments in Libxc - A comprehensive library of functionals for density functional theory
     Software X, 2018 7 
     doi.org/10.1016/j.softx.2017.11.002
  4. Caldeweyher,E.; Bannwarth,C.; Grimme,S.
     Extension of the D3 dispersion coefficient model
     J. Chem. Phys., 2017 147 034112-XXXX
     doi.org/10.1063/1.4993215
  5. Caldeweyher,E.; Ehlert,S.; Hansen,A.; Neugebauer,H.; Spicher,S.; Bannwarth,C.; Grimme,S.
     A generally applicable atomic-charge dependent London dispersion correction
     J. Chem. Phys., 2019 150 154122-XXXX
     doi.org/10.1063/1.5090222
  6. Caldeweyher,E.; Mewes,J.; Ehlert,S.; Grimme,S.
     Extension and evaluation of the D4 London-dispersion model for periodic systems
     Phys. Chem. Chem. Phys., 2020 22(16)8499-8512
     doi.org/10.1039/D0CP00502A

List of suggested additional citations. These are papers that are important in the 'surrounding' of 
of this run, or papers that preceded the highly important papers. If you like your results we are grateful for a citation.

  1. Neese,F.
     The ORCA program system
     WIRES Comput. Molec. Sci., 2012 2(1)73-78
     doi.org/10.1002/wcms.81
  2. Neese,F.
     Software update: the ORCA program system, version 4.0
     WIRES Comput. Molec. Sci., 2018 8(1)1-6
     doi.org/10.1002/wcms.1327
  3. Neese,F.; Wennmohs,F.; Becker,U.; Riplinger,C.
     The ORCA quantum chemistry program package
     J. Chem. Phys., 2020 152 Art. No. L224108
     doi.org/10.1063/5.0004608

List of optional additional citations

  1. Neese,F.
     Approximate second-order SCF convergence for spin unrestricted wavefunctions
     Chem. Phys. Lett., 2000 325(1-3)93-98
     doi.org/10.1016/s0009-2614(00)00662-x

Timings for individual modules:

Sum of individual times          ...       17.615 sec (=   0.294 min)
Startup calculation              ...        0.996 sec (=   0.017 min)   5.7 %
SCF iterations                   ...       16.526 sec (=   0.275 min)  93.8 %
Property calculations            ...        0.093 sec (=   0.002 min)   0.5 %
                             ****ORCA TERMINATED NORMALLY****
TOTAL RUN TIME: 0 days 0 hours 0 minutes 18 seconds 301 msec
