      -----------------------------------------------------------      
     |                   =====================                   |     
     |                           x T B                           |     
     |                   =====================                   |     
     |                         S. Grimme                         |     
     |          Mulliken Center for Theoretical Chemistry        |     
     |                    University of Bonn                     |     
      -----------------------------------------------------------      

   * xtb version 6.7.1 (edcfbbe) compiled by 'albert@albert-system' on 2024-07-22

   xtb is free software: you can redistribute it and/or modify it under
   the terms of the GNU Lesser General Public License as published by
   the Free Software Foundation, either version 3 of the License, or
   (at your option) any later version.
   
   xtb is distributed in the hope that it will be useful,
   but WITHOUT ANY WARRANTY; without even the implied warranty of
   MERCHANTABILITY or FITNESS FOR A PARTICULAR PURPOSE.  See the
   GNU Lesser General Public License for more details.
   
   Cite this work as:
   * C. Bannwarth, E. Caldeweyher, S. Ehlert, A. Hansen, P. Pracht,
     J. Seibert, S. Spicher, S. Grimme, WIREs Comput. Mol. Sci., 2020, 11,
     e01493. DOI: 10.1002/wcms.1493
   
   for GFN2-xTB:
   * C. Bannwarth, S. Ehlert and S. Grimme., J. Chem. Theory Comput., 2019,
     15, 1652-1671. DOI: 10.1021/acs.jctc.8b01176
   for GFN1-xTB:
   * S. Grimme, C. Bannwarth, P. Shushkov, J. Chem. Theory Comput., 2017,
     13, 1989-2009. DOI: 10.1021/acs.jctc.7b00118
   for GFN0-xTB:
   * P. Pracht, E. Caldeweyher, S. Ehlert, S. Grimme, ChemRxiv, 2019, preprint.
     DOI: 10.26434/chemrxiv.8326202.v1
   for GFN-FF:
   * S. Spicher and S. Grimme, Angew. Chem. Int. Ed., 2020, 59, 15665-15673.
     DOI: 10.1002/anie.202004239
   
   for ALPB and GBSA implicit solvation:
   * S. Ehlert, M. Stahn, S. Spicher, S. Grimme, J. Chem. Theory Comput.,
     2021, 17, 4250-4261. DOI: 10.1021/acs.jctc.1c00471
   
   for ddCOSMO and CPCM-X implicit solvation:
   * M. Stahn, S. Ehlert, S. Grimme, J. Phys. Chem. A,
     2023, XX, XXXX-XXXX. DOI: 10.1021/acs.jpca.3c04382
   
   for DFT-D4:
   * E. Caldeweyher, C. Bannwarth and S. Grimme, J. Chem. Phys., 2017,
     147, 034112. DOI: 10.1063/1.4993215
   * E. Caldeweyher, S. Ehlert, A. Hansen, H. Neugebauer, S. Spicher,
     C. Bannwarth and S. Grimme, J. Chem. Phys., 2019, 150, 154122.
     DOI: 10.1063/1.5090222
   * E. Caldeweyher, J.-M. Mewes, S. Ehlert and S. Grimme, Phys. Chem. Chem. Phys.
     2020, 22, 8499-8512. DOI: 10.1039/D0CP00502A
   
   for sTDA-xTB:
   * S. Grimme and C. Bannwarth, J. Chem. Phys., 2016, 145, 054103.
     DOI: 10.1063/1.4959605
   
   in the mass-spec context:
   * V. Asgeirsson, C. Bauer and S. Grimme, Chem. Sci., 2017, 8, 4879.
     DOI: 10.1039/c7sc00601b
   * J. Koopman and S. Grimme, ACS Omega 2019, 4, 12, 15120-15133.
     DOI: 10.1021/acsomega.9b02011
   
   for metadynamics refer to:
   * S. Grimme, J. Chem. Theory Comput., 2019, 155, 2847-2862
     DOI: 10.1021/acs.jctc.9b00143
   
   for SPH calculations refer to:
   * S. Spicher and S. Grimme, J. Chem. Theory Comput., 2021, 17, 1701-1714
     DOI: 10.1021/acs.jctc.0c01306
   
   for ONIOM refer to:
   * C. Plett, A. Katbashev, S. Ehlert, S. Grimme, M. Bursch,
     Phys. Chem. Chem. Phys., 2023, 25, 17860-17868. DOI: 10.1039/D3CP02178E
   
   for DIPRO refer to:
   * J. Kohn, N. Gildemeister, S. Grimme, D. Fazzi, A. Hansen,
     J. Chem. Phys., 2023, just accepted.
   
   for PTB refer to:
   * S. Grimme, M. Mueller, A. Hansen, J. Chem. Phys., 2023, 158, 124111.
     DOI: 10.1063/5.0137838
   
   with help from (in alphabetical order)
   P. Atkinson, C. Bannwarth, F. Bohle, G. Brandenburg, E. Caldeweyher
   M. Checinski, S. Dohm, S. Ehlert, S. Ehrlich, I. Gerasimov, C. Hölzer
   A. Katbashev, J. Kohn, J. Koopman, C. Lavigne, S. Lehtola, F. März, M. Müller,
   F. Musil, H. Neugebauer, J. Pisarek, C. Plett, P. Pracht, F. Pultar,
   J. Seibert, P. Shushkov, S. Spicher, M. Stahn, M. Steiner, T. Strunk,
   J. Stückrath, T. Rose, and J. Unsleber
   
 * started run on 2025/04/04 at 19:37:16.534     
   ID    Z sym.   atoms
    1    6 C      1-3, 5
    2    1 H      4, 7-14
    3   17 Cl     6

           -------------------------------------------------
          |                Calculation Setup                |
           -------------------------------------------------

          program call               : /srv/scratch/z5358697/.xtb/bin/xtb xtb_opt.coord --opt normal --orca -I xtb_opt-xcontrol-inp
          hostname                   : k156
          coordinate file            : xtb_opt.coord
          omp threads                :                     3

           -------------------------------------------------
          |                   Orca driver                   |
           -------------------------------------------------
orca executable           : /apps/z_install_tree/linux-rocky8-ivybridge/gcc-12.2.0/orca-6.0.0-srtngmq3qlimg2qxbl6avaaiffipurdx/bin/orca
orca input file           : xtb_opt.inp
orca input line           : 
orca parallel             : true
orca number of threads    : 3
                         * ORCA takes the control...
  ------------------------------------------------------------------------

                                 *****************
                                 * O   R   C   A *
                                 *****************

                                            #,                                       
                                            ###                                      
                                            ####                                     
                                            #####                                    
                                            ######                                   
                                           ########,                                 
                                     ,,################,,,,,                         
                               ,,#################################,,                 
                          ,,##########################################,,             
                       ,#########################################, ''#####,          
                    ,#############################################,,   '####,        
                  ,##################################################,,,,####,       
                ,###########''''           ''''###############################       
              ,#####''   ,,,,##########,,,,          '''####'''          '####       
            ,##' ,,,,###########################,,,                        '##       
           ' ,,###''''                  '''############,,,                           
         ,,##''                                '''############,,,,        ,,,,,,###''
      ,#''                                            '''#######################'''  
     '                                                          ''''####''''         
             ,#######,   #######,   ,#######,      ##                                
            ,#'     '#,  ##    ##  ,#'     '#,    #''#        ,####,   ,####,        
            ##       ##  ##   ,#'  ##            #'  '#       #'       #'  '#        
            ##       ##  #######   ##           ,######,      #####,   #    #        
            '#,     ,#'  ##    ##  '#,     ,#' ,#      #,     #,   #   #,  ,#        
             '#######'   ##     ##  '#######'  #'      '#     '####' # '####'        



                #########################################################
                #                        -***-                          #
                #          Department of theory and spectroscopy        #
                #                                                       #
                #                      Frank Neese                      #
                #                                                       #
                #     Directorship, Architecture, Infrastructure        #
                #                    SHARK, DRIVERS                     #
                #        Core code/Algorithms in most modules           #
                #                                                       #
                #        Max Planck Institute fuer Kohlenforschung      #
                #                Kaiser Wilhelm Platz 1                 #
                #                 D-45470 Muelheim/Ruhr                 #
                #                      Germany                          #
                #                                                       #
                #                  All rights reserved                  #
                #                        -***-                          #
                #########################################################


                         Program Version 6.0.0  -   RELEASE  -


 With contributions from (in alphabetic order):
   Daniel Aravena         : Magnetic Suceptibility
   Michael Atanasov       : Ab Initio Ligand Field Theory (pilot matlab implementation)
   Alexander A. Auer      : GIAO ZORA, VPT2 properties, NMR spectrum
   Ute Becker             : All parallelization in ORCA, NUMFREQ, NUMCALC
   Giovanni Bistoni       : ED, misc. LED, open-shell LED, HFLD
   Martin Brehm           : Molecular dynamics
   Dmytro Bykov           : pre 5.0 version of the SCF Hessian
   Marcos Casanova-Páez   : Triplet and SCS-CIS(D). UHF-(DLPNO)-IP/EA/STEOM-CCSD. UHF-CVS-IP/STEOM-CCSD
   Vijay G. Chilkuri      : MRCI spin determinant printing, contributions to CSF-ICE
   Pauline Colinet        : FMM embedding
   Dipayan Datta          : RHF DLPNO-CCSD density
   Achintya Kumar Dutta   : EOM-CC, STEOM-CC
   Nicolas Foglia         : Exact transition moments, OPA infrastructure, MCD improvements
   Dmitry Ganyushin       : Spin-Orbit,Spin-Spin,Magnetic field MRCI
   Miquel Garcia          : C-PCM and meta-GGA Hessian, CCSD/C-PCM, Gaussian charge scheme
   Tiago L. C. Gouveia    : GS-ROHF, GS-ROCIS
   Yang Guo               : DLPNO-NEVPT2, F12-NEVPT2, CIM, IAO-localization
   Andreas Hansen         : Spin unrestricted coupled pair/coupled cluster methods
   Ingolf Harden          : AUTO-CI MPn and infrastructure 
   Benjamin Helmich-Paris : MC-RPA, TRAH-(SCF,CASSCF), AVAS, COSX integrals, SCF dyn. polar.
   Lee Huntington         : MR-EOM, pCC
   Robert Izsak           : Overlap fitted RIJCOSX, COSX-SCS-MP3, EOM
   Riya Kayal             : Wick's Theorem for AUTO-CI, AUTO-CI UHF-CCSDT
   Emily Kempfer          : AUTO-CI, RHF CISDT and CCSDT
   Christian Kollmar      : KDIIS, OOCD, Brueckner-CCSD(T), CCSD density, CASPT2, CASPT2-K, improved NEVPT2
   Axel Koslowski         : Symmetry handling
   Simone Kossmann        : Meta GGA functionals, TD-DFT gradient, OOMP2, (MP2 Hessian; deprecated post 5.0)
   Lucas Lang             : DCDCAS
   Marvin Lechner         : AUTO-CI (C++ implementation), FIC-MRCC
   Spencer Leger          : CASSCF response
   Dagmar Lenk            : GEPOL surface, SMD, ORCA-2-JSON
   Dimitrios Liakos       : Extrapolation schemes; Compound Job, initial MDCI parallelization
   Dimitrios Manganas     : Further ROCIS development; embedding schemes. LFT, Crystal Embedding
   Dimitrios Pantazis     : SARC Basis sets
   Anastasios Papadopoulos: AUTO-CI, single reference methods and gradients
   Taras Petrenko         : pre 6.0 DFT Hessian and TD-DFT gradient, (ASA, deprecated), ECA, 1-Electron XAS/XES, NRVS
   Peter Pinski           : DLPNO-MP2, DLPNO-MP2 Gradient
   Christoph Reimann      : Effective Core Potentials
   Marius Retegan         : Local ZFS, SOC
   Christoph Riplinger    : Optimizer, TS searches, QM/MM, DLPNO-CCSD(T), (RO)-DLPNO pert. Triples
   Michael Roemelt        : Original ROCIS implementation
   Masaaki Saitow         : Open-shell DLPNO-CCSD energy and density
   Barbara Sandhoefer     : DKH picture change effects
   Kantharuban Sivalingam : CASSCF convergence/infrastructure, NEVPT2 and variants, FIC-MRCI
   Bernardo de Souza      : ESD, SOC TD-DFT
   Georgi Stoychev        : AutoAux, RI-MP2 NMR, DLPNO-MP2 response, X2C
   Van Anh Tran           : RI-MP2 g-tensors
   Willem Van den Heuvel  : Paramagnetic NMR
   Zikuan Wang            : NOTCH, Electric field optimization 
   Frank Wennmohs         : Technical directorship and infrastructure
   Hang Xu                : AUTO-CI-Response properties 


 We gratefully acknowledge several colleagues who have allowed us to
 interface, adapt or use parts of their codes:
   Stefan Grimme, W. Hujo, H. Kruse, P. Pracht,  : VdW corrections, initial TS optimization,
                  C. Bannwarth, S. Ehlert,         DFT functionals, gCP, sTDA/sTD-DF
                  L. Wittmann, M. Mueller
   Ed Valeev, F. Pavosevic, A. Kumar             : LibInt (2-el integral package), F12 methods
   Garnet Chan, S. Sharma, J. Yang, R. Olivares  : DMRG
   Ulf Ekstrom                                   : XCFun DFT Library
   Mihaly Kallay                                 : mrcc  (arbitrary order and MRCC methods)
   Frank Weinhold                                : gennbo (NPA and NBO analysis)
   Simon Mueller                                 : openCOSMO-RS
   Christopher J. Cramer and Donald G. Truhlar   : smd solvation model
   Lars Goerigk                                  : TD-DFT with DH, B97 family of functionals
   V. Asgeirsson, H. Jonsson                     : NEB implementation
   FAccTs GmbH                                   : IRC, NEB, NEB-TS, DLPNO-Multilevel, CI-OPT
                                                   MM, QMMM, 2- and 3-layer-ONIOM, Crystal-QMMM,
                                                   LR-CPCM, SF, NACMEs, symmetry and pop. for TD-DFT,
                                                   nearIR, NL-DFT gradient (VV10), updates on ESD,
                                                   ML-optimized integration grids, MBIS, APM,
                                                   GOAT, DOCKER, SOLVATOR, interface openCOSMO-RS
   S Lehtola, MJT Oliveira, MAL Marques          : LibXC Library
   Liviu Ungur et al                             : ANISO software


 Your calculation uses the libint2 library for the computation of 2-el integrals
 For citations please refer to: http://libint.valeyev.net

 Your ORCA version has been built with support for libXC version: 6.2.2
 For citations please refer to: https://libxc.gitlab.io

 This ORCA versions uses:
   CBLAS   interface :  Fast vector & matrix operations
   LAPACKE interface :  Fast linear algebra routines
   SCALAPACK package :  Parallel linear algebra routines
   Shared memory     :  Shared parallel matrices
   BLAS/LAPACK       :  OpenBLAS 0.3.27  USE64BITINT DYNAMIC_ARCH NO_AFFINITY SkylakeX SINGLE_THREADED
        Core in use  :  SkylakeX
   Copyright (c) 2011-2014, The OpenBLAS Project




***************************************
The coordinates will be read from file: xtb_opt.xyz
***************************************


Your calculation utilizes the geometrical counterpoise correction gCP
Please cite in your paper:
H.Kruse, S. Grimme J.Chem.Phys., 136, (2012), 154101 
   

Your calculation utilizes the atom-pairwise dispersion correction
based on EEQ partial charges (D4)


Your calculation utilizes the SMD solvation module
Please cite in your paper:
A.V. Marenich, C.J. Cramer, D.G. Truhlar J. Phys. Chem. B, 113, (2009), 6378 

================================================================================

----- Orbital basis set information -----
Your calculation utilizes the basis: def2-mTZVPP
   Stefan Grimme, Andreas Hansen, Sebastian Ehlert, and Jan-Michael Mewes 
   J. Chem. Phys. 154, 064103 (2021). DOI: 10.1063/5.0040021

----- AuxJ basis set information -----
Your calculation utilizes the auxiliary basis: def2/J
   F. Weigend, Phys. Chem. Chem. Phys. 8, 1057 (2006).

================================================================================
                                        WARNINGS
                       Please study these warnings very carefully!
================================================================================

Using LibXC functional ID 497 : Re-regularized SCAN exchange by Furness et al
[ 1]  J. W. Furness, A. D. Kaplan, J. Ning, J. P. Perdew, and J. Sun.,  J. Phys. Chem. Lett. 11, 8208-8215 (2020)
[ 2]  J. W. Furness, A. D. Kaplan, J. Ning, J. P. Perdew, and J. Sun.,  J. Phys. Chem. Lett. 11, 9248-9248 (2020)
Using LibXC functional ID 498 : Re-regularized SCAN correlation by Furness et al
[ 1]  J. W. Furness, A. D. Kaplan, J. Ning, J. P. Perdew, and J. Sun.,  J. Phys. Chem. Lett. 11, 8208-8215 (2020)
[ 2]  J. W. Furness, A. D. Kaplan, J. Ning, J. P. Perdew, and J. Sun.,  J. Phys. Chem. Lett. 11, 9248-9248 (2020)
Using LibXC functional ID 497 : Re-regularized SCAN exchange by Furness et al
[ 1]  J. W. Furness, A. D. Kaplan, J. Ning, J. P. Perdew, and J. Sun.,  J. Phys. Chem. Lett. 11, 8208-8215 (2020)
[ 2]  J. W. Furness, A. D. Kaplan, J. Ning, J. P. Perdew, and J. Sun.,  J. Phys. Chem. Lett. 11, 9248-9248 (2020)
Using LibXC functional ID 498 : Re-regularized SCAN correlation by Furness et al
[ 1]  J. W. Furness, A. D. Kaplan, J. Ning, J. P. Perdew, and J. Sun.,  J. Phys. Chem. Lett. 11, 8208-8215 (2020)
[ 2]  J. W. Furness, A. D. Kaplan, J. Ning, J. P. Perdew, and J. Sun.,  J. Phys. Chem. Lett. 11, 9248-9248 (2020)

================================================================================
                                       INPUT FILE
================================================================================
NAME = xtb_opt.inp
|  1> ! r2scan-3c def2/J RI DEFGRID2 scfconv7 ENGRAD tightSCF miniprint
|  2> %cpcm
|  3>     smd true
|  4>     smdsolvent "water"
|  5> end
|  6> * xyzfile 0 1 xtb_opt.xyz
|  7> 
|  8>                          ****END OF INPUT****
================================================================================

                     *******************************
                     * Energy+Gradient Calculation *
                     *******************************

---------------------------------
CARTESIAN COORDINATES (ANGSTROEM)
---------------------------------
  C      2.195120    0.480487    0.137274
  C      1.233906   -0.597769   -0.348770
  C     -0.110981   -0.557256    0.362764
  H      0.029261   -0.508171    1.444821
  C     -1.013001   -1.717312   -0.013700
  Cl    -0.962375    0.990976   -0.055539
  H      2.388873    0.367764    1.201404
  H      1.776407    1.469582   -0.032589
  H      3.138787    0.410174   -0.396348
  H      1.671144   -1.581122   -0.165745
  H      1.073707   -0.492960   -1.423207
  H     -0.548603   -2.648588    0.300180
  H     -1.979318   -1.626353    0.475132
  H     -1.167229   -1.745013   -1.089441

----------------------------
CARTESIAN COORDINATES (A.U.)
----------------------------
  NO LB      ZA    FRAG     MASS         X           Y           Z
   0 C     6.0000    0    12.011    4.148175    0.907989    0.259411
   1 C     6.0000    0    12.011    2.331745   -1.129619   -0.659080
   2 C     6.0000    0    12.011   -0.209723   -1.053062    0.685526
   3 H     1.0000    0     1.008    0.055296   -0.960303    2.730317
   4 C     6.0000    0    12.011   -1.914294   -3.245249   -0.025889
   5 Cl   17.0000    0    35.453   -1.818624    1.872674   -0.104953
   6 H     1.0000    0     1.008    4.514316    0.694974    2.270324
   7 H     1.0000    0     1.008    3.356922    2.777108   -0.061584
   8 H     1.0000    0     1.008    5.931449    0.775117   -0.748988
   9 H     1.0000    0     1.008    3.158005   -2.987888   -0.313212
  10 H     1.0000    0     1.008    2.029012   -0.931560   -2.689471
  11 H     1.0000    0     1.008   -1.036709   -5.005105    0.567257
  12 H     1.0000    0     1.008   -3.740369   -3.073361    0.897869
  13 H     1.0000    0     1.008   -2.205744   -3.297597   -2.058746

------------------------------------------------------------------------------
                   ___                                                        
                  /   \      - P O W E R E D   B Y -                         
                 /     \                                                     
                 |  |  |   _    _      __       _____    __    __             
                 |  |  |  | |  | |    /  \     |  _  \  |  |  /  |          
                  \  \/   | |  | |   /    \    | | | |  |  | /  /          
                 / \  \   | |__| |  /  /\  \   | |_| |  |  |/  /          
                |  |  |   |  __  | /  /__\  \  |    /   |      \           
                |  |  |   | |  | | |   __   |  |    \   |  |\   \          
                \     /   | |  | | |  |  |  |  | |\  \  |  | \   \       
                 \___/    |_|  |_| |__|  |__|  |_| \__\ |__|  \__/        
                                                                              
                      - O R C A' S   B I G   F R I E N D -                    
                                      &                                       
                       - I N T E G R A L  F E E D E R -                       
                                                                              
 v1 FN, 2020, v2 2021, v3 2022-2024                                           
------------------------------------------------------------------------------


----------------------
SHARK INTEGRAL PACKAGE
----------------------

Number of atoms                             ...     14
Number of basis functions                   ...    148
Number of shells                            ...     74
Maximum angular momentum                    ...      2
Integral batch strategy                     ... SHARK/LIBINT Hybrid
RI-J (if used) integral strategy            ... SPLIT-RIJ (Revised 2003 algorithm where possible)
Printlevel                                  ...      1
Contraction scheme used                     ... SEGMENTED contraction
Prescreening option                         ... SCHWARTZ
   Thresh                                   ... 3.000e-11
   Tcut                                     ... 1.000e-12
   Tpresel                                  ... 1.000e-12 
Coulomb Range Separation                    ... NOT USED
Exchange Range Separation                   ... NOT USED
Multipole approximations                    ... NOT USED
Finite Nucleus Model                        ... NOT USED
CABS basis                                  ... NOT available
Auxiliary Coulomb fitting basis             ... AVAILABLE
   # of basis functions in Aux-J            ...    346
   # of shells in Aux-J                     ...    122
   Maximum angular momentum in Aux-J        ...      4
Auxiliary J/K fitting basis                 ... NOT available
Auxiliary Correlation fitting basis         ... NOT available
Auxiliary 'external' fitting basis          ... NOT available

Checking pre-screening integrals            ... done (  0.0 sec) Dimension = 74
Check shell pair data                       ... done (  0.0 sec)
Shell pair information
Shell pair cut-off parameter TPreSel        ...   1.0e-12
Total number of shell pairs                 ...      2775
Shell pairs after pre-screening             ...      2633
Total number of primitive shell pairs       ...     10308
Primitive shell pairs kept                  ...      7328
          la=0 lb=0:    883 shell pairs
          la=1 lb=0:   1017 shell pairs
          la=1 lb=1:    310 shell pairs
          la=2 lb=0:    254 shell pairs
          la=2 lb=1:    148 shell pairs
          la=2 lb=2:     21 shell pairs

Calculating one electron integrals          ... done (  0.0 sec)
Calculating RI/J V-Matrix + Cholesky decomp.... done (  0.0 sec)
Calculating Nuclear repulsion               ... done (  0.0 sec) ENN=    234.792402239173 Eh

Diagonalization of the overlap matrix:
Smallest eigenvalue                        ... 2.878e-04
Time for diagonalization                   ...    0.002 sec
Threshold for overlap eigenvalues          ... 1.000e-07
Number of eigenvalues below threshold      ... 0
Time for construction of square roots      ...    0.012 sec
Total time needed                          ...    0.020 sec

-------------------
DFT GRID GENERATION
-------------------

General Integration Accuracy     IntAcc      ... 4.388
Radial Grid Type                 RadialGrid  ... OptM3 with GC (2021)
Angular Grid (max. ang.)         AngularGrid ... 4 (Lebedev-302)
Angular grid pruning method      GridPruning ... 4 (adaptive)
Weight generation scheme         WeightScheme... mBecke (2022)
Basis function cutoff            BFCut       ... 1.0000e-11
Integration weight cutoff        WCut        ... 1.0000e-14
Partially contracted basis set               ... off
Rotationally invariant grid construction     ... off
Angular grids for H and He will be reduced by one unit

Total number of grid points                  ...    60400
Total number of batches                      ...      951
Average number of points per batch           ...       63
Average number of grid points per atom       ...     4314
Initializing property integral containers    ... done (  0.0 sec)

SHARK setup successfully completed in   0.6 seconds

Maximum memory used throughout the entire STARTUP-calculation: 27.1 MB
Occupation numbers will be reassigned to an Aufbau configuration
             **** ENERGY FILE WAS UPDATED (xtb_opt.en.tmp) ****
Finished Guess after   0.2 sec
Maximum memory used throughout the entire GUESS-calculation: 10.3 MB
--------------------
CPCM SOLVATION MODEL
--------------------
CPCM parameters:
  Epsilon                                         ...      78.3550
  Refrac                                          ...       1.3328
  Rsolv                                           ...       1.3000
  Surface type                                    ... GAUSSIAN VDW
  Discretization scheme                           ... Constant charge density
    Threshold for H atoms                         ...       5.0000 (charges/Ang^2)
    Threshold for non-H atoms                     ...       5.0000 (charges/Ang^2)
  Epsilon function type                           ...         CPCM
Solvent:                                          ... WATER
SMD-CDS solvent descriptors:
  Soln                                            ...       1.3328
  Soln25                                          ...       1.3323
  Sola                                            ...       0.0000
  Solb                                            ...       0.0000
  Solg                                            ...       0.0000
  Solc                                            ...       0.0000
  Solh                                            ...       0.0000
Radii:
  Scheme                                          ... Element-dependent radii
  Radius for C  used is    3.4960 Bohr (=   1.8500 Ang.)
  Radius for H  used is    2.2677 Bohr (=   1.2000 Ang.)
  Radius for Cl used is    4.4975 Bohr (=   2.3800 Ang.)
Calculating surface                               ...        done! (  0.0s)
Cavity surface points                             ...         1105
Cavity Volume                                     ...     811.8889
Cavity Surface-area                               ...     495.8037
Calculating surface distance matrix               ...        done! (  0.0s)
Performing Cholesky decomposition & store         ...        done! (  0.1s)
Overall time for CPCM initialization              ...                 0.1s

----------------------------------------D-I-I-S--------------------------------------------
Iteration    Energy (Eh)           Delta-E    RMSDP     MaxDP     DIISErr   Damp  Time(sec)
-------------------------------------------------------------------------------------------
               ***  Starting incremental Fock matrix formation  ***
                              *** Initializing SOSCF ***
---------------------------------------S-O-S-C-F--------------------------------------
Iteration    Energy (Eh)           Delta-E    RMSDP     MaxDP     MaxGrad    Time(sec)
--------------------------------------------------------------------------------------
    1    -617.9859031628838011     0.00e+00  8.99e-07  1.40e-05  1.40e-06     1.6
               *** Restarting incremental Fock matrix formation ***
    2    -617.9859031637234921    -8.40e-10  5.89e-07  1.16e-05  3.74e-06     1.4
                  *** Gradient check signals convergence ***

               *****************************************************
               *                     SUCCESS                       *
               *           SCF CONVERGED AFTER   2 CYCLES          *
               *****************************************************


SMD CDS free energy correction energy :                 2.78589     Kcal/mol
Total Energy after SMD CDS correction =              -617.981463562 Eh
             **** ENERGY FILE WAS UPDATED (xtb_opt.en.tmp) ****

----------------
TOTAL SCF ENERGY
----------------

Total Energy       :       -617.98146356175221 Eh          -16816.13054 eV

Components:
Nuclear Repulsion  :        234.79240223917330 Eh            6389.02608 eV
Electronic Energy  :       -852.77155556788546 Eh          -23205.09375 eV
One Electron Energy:      -1312.77192627251452 Eh          -35722.34020 eV
Two Electron Energy:        460.00037070462906 Eh           12517.24645 eV
CPCM Dielectric    :         -0.00674983501130 Eh              -0.18367 eV
SMD CDS (Gcds)     :          0.00443960197125 Eh               0.12081 eV

Virial components:
Potential Energy   :      -1234.15375538719900 Eh          -33583.03101 eV
Kinetic Energy     :        616.17229182544679 Eh           16766.90047 eV
Virial Ratio       :          2.00293614588047

DFT components:
N(Alpha)           :       24.999995462894 electrons
N(Beta)            :       24.999995462894 electrons
N(Total)           :       49.999990925788 electrons
E(X)               :      -51.567039926664 Eh       
E(C)               :       -1.673639487380 Eh       
E(XC)              :      -53.240679414044 Eh       

CPCM Solvation Model Properties:
Surface-charge          :         -0.03085834373083
Corrected charge        :         -0.00000000000000
Outlying charge corr.   :          0.00007745781149 Eh               0.00211 eV
Free-energy (cav+disp)  :          0.00443960197125 Eh               0.12081 eV

---------------
SCF CONVERGENCE
---------------

  Last Energy change         ...    8.3969e-10  Tolerance :   1.0000e-07
  Last MAX-Density change    ...    1.1576e-05  Tolerance :   1.0000e-07
  Last RMS-Density change    ...    5.8899e-07  Tolerance :   5.0000e-09
  Last DIIS Error            ...    1.6295e-05  Tolerance :   1.0000e-07
  Last Orbital Gradient      ...    3.7383e-06  Tolerance :   1.0000e-04
  Last Orbital Rotation      ...    5.1673e-06  Tolerance :   1.0000e-04


----------------
ORBITAL ENERGIES
----------------

  NO   OCC          E(Eh)            E(eV) 
   0   2.0000    -101.194218     -2753.6347 
   1   2.0000     -10.088063      -274.5101 
   2   2.0000     -10.027371      -272.8586 
   3   2.0000     -10.019148      -272.6349 
   4   2.0000     -10.010498      -272.3995 
   5   2.0000      -9.350735      -254.4464 
   6   2.0000      -7.096298      -193.1001 
   7   2.0000      -7.087166      -192.8516 
   8   2.0000      -7.086989      -192.8468 
   9   2.0000      -0.822801       -22.3896 
  10   2.0000      -0.729068       -19.8389 
  11   2.0000      -0.690015       -18.7763 
  12   2.0000      -0.597612       -16.2618 
  13   2.0000      -0.537595       -14.6287 
  14   2.0000      -0.442062       -12.0291 
  15   2.0000      -0.410292       -11.1646 
  16   2.0000      -0.401348       -10.9212 
  17   2.0000      -0.384758       -10.4698 
  18   2.0000      -0.348313        -9.4781 
  19   2.0000      -0.331633        -9.0242 
  20   2.0000      -0.318062        -8.6549 
  21   2.0000      -0.308589        -8.3971 
  22   2.0000      -0.303754        -8.2656 
  23   2.0000      -0.262834        -7.1521 
  24   2.0000      -0.261934        -7.1276 
  25   0.0000       0.011865         0.3229 
  26   0.0000       0.105558         2.8724 
  27   0.0000       0.118097         3.2136 
  28   0.0000       0.141662         3.8548 
  29   0.0000       0.146522         3.9871 
  30   0.0000       0.150420         4.0931 
  31   0.0000       0.163599         4.4517 
  32   0.0000       0.179082         4.8731 
  33   0.0000       0.185510         5.0480 
  34   0.0000       0.197369         5.3707 
  35   0.0000       0.203706         5.5431 
*Only the first 10 virtual orbitals were printed.
Total SCF time: 0 days 0 hours 0 min 3 sec 
Finished LeanSCF after   3.5 sec

Maximum memory used throughout the entire LEANSCF-calculation: 17.8 MB


-------------------------------------------------------------------------------
                          DFT DISPERSION CORRECTION                            
                                                                               
                                DFTD4 V3.4.0                                   
-------------------------------------------------------------------------------
-------------------------   ----------------
Dispersion correction           -0.003389909
-------------------------   ----------------

------------------   -----------------
gCP correction             0.008650781
------------------   -----------------

-------------------------   --------------------
FINAL SINGLE POINT ENERGY      -617.976202689735
-------------------------   --------------------

------------------------------------------------------------------------------
                         ORCA SCF GRADIENT CALCULATION
------------------------------------------------------------------------------

Nuc. rep. gradient        (SHARK) ... done (  0.0 sec)
HCore & Overlap gradient  (SHARK) ... done (  0.1 sec)
Split-RIJ-J gradient      (SHARK) ... done (  0.6 sec)
XC gradient                       ... done (  2.6 sec)
CPCM gradient                     ... done (  0.4 sec)
SMD gradient                      ... done (  0.0 sec)
Dispersion correction             ... done (  0.0 sec)

-------------------
DISPERSION GRADIENT
-------------------

   1   C   :    0.000066699    0.000031006    0.000005436
   2   C   :    0.000030684   -0.000007062   -0.000012136
   3   C   :   -0.000016473   -0.000009320    0.000010097
   4   H   :   -0.000010339   -0.000001101    0.000009426
   5   C   :   -0.000048299   -0.000048930   -0.000001478
   6   Cl  :   -0.000083766    0.000077219   -0.000001805
   7   H   :    0.000032827    0.000010065    0.000009968
   8   H   :    0.000022150    0.000016663   -0.000000435
   9   H   :    0.000034089    0.000008298   -0.000003541
  10   H   :    0.000021939   -0.000011922   -0.000002740
  11   H   :    0.000013617    0.000001515   -0.000012847
  12   H   :   -0.000016864   -0.000031728    0.000003372
  13   H   :   -0.000024917   -0.000015776    0.000004335
  14   H   :   -0.000021347   -0.000018928   -0.000007650

Difference to translation invariance:
           :   -0.0000000000    0.0000000000   -0.0000000000

Difference to rotation invariance:
           :   -0.0000000000   -0.0000000000   -0.0000000000

Norm of the Dispersion gradient    ...    0.0001796799
RMS gradient                       ...    0.0000277252
MAX gradient                       ...    0.0000837663
gCP correction                   ... done

------------------
CARTESIAN GRADIENT
------------------

   1   C   :    0.003003503    0.003897970    0.002570461
   2   C   :    0.000347506   -0.007283883   -0.004842374
   3   C   :   -0.005807469    0.014301448    0.001096426
   4   H   :   -0.000668107    0.000785135   -0.001232420
   5   C   :   -0.001010394   -0.006418579   -0.001991460
   6   Cl  :    0.007734762   -0.012880266    0.002725382
   7   H   :   -0.001625766   -0.000012088   -0.004832254
   8   H   :   -0.000044937   -0.004386772    0.000613863
   9   H   :   -0.004885519   -0.000538633    0.001565165
  10   H   :    0.000115948    0.003824960   -0.000174603
  11   H   :    0.000991683    0.002187782    0.003242559
  12   H   :   -0.002457716    0.004432907   -0.001479407
  13   H   :    0.003828146    0.001190927   -0.001935680
  14   H   :    0.000478360    0.000899090    0.004674344

Difference to translation invariance:
           :   -0.0000000000    0.0000000000   -0.0000000000

Difference to rotation invariance:
           :   -0.0001748786    0.0003343350   -0.0000518611

Norm of the Cartesian gradient     ...    0.0283301672
RMS gradient                       ...    0.0043714397
MAX gradient                       ...    0.0143014481

-------
TIMINGS
-------

Total SCF gradient time     ....        3.954 sec

Densities                   ....       0.000 sec  (  0.0%)
One electron gradient       ....       0.098 sec  (  2.5%)
RI-J Coulomb gradient       ....       0.587 sec  ( 14.9%)
XC gradient                 ....       2.552 sec  ( 64.6%)
CPCM gradient               ....       0.373 sec  (  9.4%)
   A-Matrix (El+Nuc)        ....       0.037 sec  (  0.9%)
   Potential                ....       0.336 sec  (  8.5%)
SMD gradient                ....       0.012 sec  (  0.3%)

Maximum memory used throughout the entire SCFGRAD-calculation: 30.3 MB

------------------------------------------------------------------------------
                              ORCA PROPERTY CALCULATIONS
------------------------------------------------------------------------------

GBWName                                 ... xtb_opt.gbw
Number of atoms                         ...     14
Number of basis functions               ...    148
Max core memory                         ...   1024 MB

Electric properties:
Dipole moment                           ... YES
Quadrupole moment                       ...  NO
Static polarizability (Dipole/Dipole)   ...  NO
Static polarizability (Dipole/Quad.)    ...  NO
Static polarizability (Quad./Quad.)     ...  NO
Static polarizability (Velocity)        ...  NO

Atomic electric properties:
Dipole moment                           ...  NO
Quadrupole moment                       ...  NO
Static polarizability                   ...  NO

Choice of electric origin               ... Center of mass
Position of electric origin             ...     0.000019    -0.000019     0.000001

General magnetic properties:
Magnetizability                         ...  NO

EPR properties:
g-Tensor (aka g-matrix)                 ...  NO
Zero-Field splitting spin-orbit         ...  NO
Zero-field splitting spin-spin          ...  NO
Hyperfine couplings                     ...  NO (   0 nuclei)
Quadrupole couplings                    ...  NO (   0 nuclei)
Contact density                         ...  NO (   0 nuclei)

NMR properties:
Chemical shifts                         ...  NO (   0 nuclei)
Spin-rotation constants                 ...  NO (   0 nuclei)
Spin-spin couplings                     ...  NO (   0 nuclei,    0 pairs)

Choice of magnetic origin               ... GIAO
Position of magnetic origin             ...     0.000000     0.000000     0.000000

Properties with geometric perturbations:
SCF Hessian                             ...  NO
IR spectrum                             ...  NO
VCD spectrum                            ...  NO
X-ray spectroscopy properties:
SCF XES/XAS/RIXS spectra                ...  NO


-------------
DIPOLE MOMENT
-------------

Method             : SCF
Type of density    : Electron Density
Multiplicity       :   1
Irrep              :   0
Energy             :  -617.9814635617522072 Eh
Relativity type    : 
Basis              : AO
                                X                 Y                 Z
Electronic contribution:     -6.685971488       6.238729770      -0.161415991
Nuclear contribution   :      7.280042914      -7.291839382       0.369323005
                        -----------------------------------------
Total Dipole Moment    :      0.594071426      -1.053109611       0.207907014
                        -----------------------------------------
Magnitude (a.u.)       :      1.226860236
Magnitude (Debye)      :      3.118430895



--------------------
Rotational spectrum 
--------------------
 
Rotational constants in cm-1:             0.153209             0.104953             0.067623 
Rotational constants in MHz :          4593.097437          3146.403012          2027.300457 

Dipole components along the rotational axes: 
x,y,z [a.u.] :     0.594051    -1.053121     0.207908 
x,y,z [Debye]:     1.509957    -2.676821     0.528460 

 

Dipole moment calculation done in   0.0 sec 

Maximum memory used throughout the entire PROP-calculation: 8.5 MB

--------------------------------
SUGGESTED CITATIONS FOR THIS RUN
--------------------------------

Below you find a list of papers that are relevant to this ORCA run
We neither can nor want to force you to cite these papers, but we appreciate if you do
You receive ORCA, which is the product of decades of hard work by many enthusiastic individuals, for free
The only thing we kindly ask in return is that you cite our papers,
We deeply appreciate it, if you show your appreciation for ORCA by not just citing the generic ORCA reference.

Please note that relegating all ORCA citations to the supporting information does *not* help us.
SI sections are not indexed - citations you put there will not count into any citation statistics
But we need these citations in order to attract the funding resources that allow us to do what we are doing

Therefore, if you are a happy ORCA user, please consider citing a few of the papers listed below in the main body of your paper

In addition to the list printed below, the program has created the file xtb_opt.bibtex that contains the list in bibtex format
You can import this file easily into all common literature databanks and citation aid programs


List of essential papers. We consider these as the minimum necessary citations

  1. Neese,F.
     Software update: the ORCA program system, version 5.0
     WIRES Comput. Molec. Sci., 2022 12(1)e1606
     doi.org/10.1002/wcms.1606
  2. Grimme,S.; Hansen,A.; Ehlert,S.; Mewes,J.
     r2SCAN-3c: A 'Swiss army knife' composite electronic-structure method
     J. Chem. Phys., 2021 154 064103
     doi.org/10.1063/5.0040021

List of papers to cite with high priority. The work reported in these papers was absolutely
necessary for this run to complete.
Our perspective: the developers of density functionals and basis sets usually get cited in chemistry papers
Good! But without the algorithms to do something with them, the functionals or basis sets would not do anything.
Hence, in our opinion, the algorithm design and method developments papers are equally worthy of getting cited

  1. Neese,F.
     An improvement of the resolution of the identity approximation for the formation of the Coulomb matrix
     J. Comp. Chem., 2003 24(14)1740-1747
     doi.org/10.1002/jcc.10318
  2. Garcia-Rates,M.; Neese,F.
     Effect of the Solute Cavity on the Solvation Energy and its Derivatives within the Framework of the Gaussian Charge Scheme
     J. Comput. Chem., 2020 41 922-939
     doi.org/10.1002/jcc.26139
  3. Neese,F.
     The SHARK Integral Generation and Digestion System
     J. Comp. Chem., 2022  1-16
     doi.org/10.1002/jcc.26942
  4. Lehtola,S.; Steigemann,C.; Oliveira,M.; Marques,M.
     Recent developments in Libxc - A comprehensive library of functionals for density functional theory
     Software X, 2018 7 
     doi.org/10.1016/j.softx.2017.11.002
  5. Caldeweyher,E.; Bannwarth,C.; Grimme,S.
     Extension of the D3 dispersion coefficient model
     J. Chem. Phys., 2017 147 034112-XXXX
     doi.org/10.1063/1.4993215
  6. Caldeweyher,E.; Ehlert,S.; Hansen,A.; Neugebauer,H.; Spicher,S.; Bannwarth,C.; Grimme,S.
     A generally applicable atomic-charge dependent London dispersion correction
     J. Chem. Phys., 2019 150 154122-XXXX
     doi.org/10.1063/1.5090222
  7. Caldeweyher,E.; Mewes,J.; Ehlert,S.; Grimme,S.
     Extension and evaluation of the D4 London-dispersion model for periodic systems
     Phys. Chem. Chem. Phys., 2020 22(16)8499-8512
     doi.org/10.1039/D0CP00502A

List of suggested additional citations. These are papers that are important in the 'surrounding' of 
of this run, or papers that preceded the highly important papers. If you like your results we are grateful for a citation.

  1. Neese,F.
     The ORCA program system
     WIRES Comput. Molec. Sci., 2012 2(1)73-78
     doi.org/10.1002/wcms.81
  2. Neese,F.
     Software update: the ORCA program system, version 4.0
     WIRES Comput. Molec. Sci., 2018 8(1)1-6
     doi.org/10.1002/wcms.1327
  3. Neese,F.; Wennmohs,F.; Becker,U.; Riplinger,C.
     The ORCA quantum chemistry program package
     J. Chem. Phys., 2020 152 Art. No. L224108
     doi.org/10.1063/5.0004608

List of optional additional citations

  1. Neese,F.
     Approximate second-order SCF convergence for spin unrestricted wavefunctions
     Chem. Phys. Lett., 2000 325(1-3)93-98
     doi.org/10.1016/s0009-2614(00)00662-x

Timings for individual modules:

Sum of individual times          ...        8.572 sec (=   0.143 min)
Startup calculation              ...        0.672 sec (=   0.011 min)   7.8 %
SCF iterations                   ...        3.769 sec (=   0.063 min)  44.0 %
Property calculations            ...        0.085 sec (=   0.001 min)   1.0 %
SCF Gradient evaluation          ...        4.045 sec (=   0.067 min)  47.2 %
                             ****ORCA TERMINATED NORMALLY****
TOTAL RUN TIME: 0 days 0 hours 0 minutes 9 seconds 796 msec
  ------------------------------------------------------------------------
          * successful ORCA run, taking over control again...

         :::::::::::::::::::::::::::::::::::::::::::::::::::::
         ::                  ORCA SUMMARY                   ::
         :::::::::::::::::::::::::::::::::::::::::::::::::::::
         :: total energy            -617.976202689735 Eh    ::
         :: gradient norm              0.028330167227 Eh/a0 ::
         :: HOMO-LUMO gap              0.000000000000 eV    ::
         :::::::::::::::::::::::::::::::::::::::::::::::::::::

      ----------------------------------------------------------- 
     |                       L-ANC optimizer                     |
      ----------------------------------------------------------- 
          low memory version by Sebastian Ehlert

          ...................................................
          :                      SETUP                      :
          :.................................................:
          :   energy convergence        0.5000000E-05 Eh    :
          :   grad. convergence         0.1000000E-02 Eh/a0 :
          :   optimization log               true           :
          :   writing optlog all                1     steps :
          :   Hessian reset                     8     steps :
          :   maximium step len.        1.0000000     a0    :
          :   LBFGS images                      8           :
          ...................................................
 * calculating model hessian...
Using Lindh-Hessian (1995)
 Shifting diagonal of input Hessian by   1.000000000000000E-002
 Lowest  eigenvalues of input Hessian
    0.000000    0.000000    0.000000    0.000000    0.000000    0.000000
    0.014309    0.018165    0.018887    0.022433    0.027071    0.037431
    0.040684    0.054867    0.063684    0.065330    0.067417    0.074099
 Highest eigenvalues
    1.142937    1.155150    1.188467    1.196696    1.223891    1.295422
 

........................................................................
.............................. CYCLE    1 ..............................
........................................................................
                         * ORCA takes the control...
  ------------------------------------------------------------------------

                                 *****************
                                 * O   R   C   A *
                                 *****************

                                            #,                                       
                                            ###                                      
                                            ####                                     
                                            #####                                    
                                            ######                                   
                                           ########,                                 
                                     ,,################,,,,,                         
                               ,,#################################,,                 
                          ,,##########################################,,             
                       ,#########################################, ''#####,          
                    ,#############################################,,   '####,        
                  ,##################################################,,,,####,       
                ,###########''''           ''''###############################       
              ,#####''   ,,,,##########,,,,          '''####'''          '####       
            ,##' ,,,,###########################,,,                        '##       
           ' ,,###''''                  '''############,,,                           
         ,,##''                                '''############,,,,        ,,,,,,###''
      ,#''                                            '''#######################'''  
     '                                                          ''''####''''         
             ,#######,   #######,   ,#######,      ##                                
            ,#'     '#,  ##    ##  ,#'     '#,    #''#        ,####,   ,####,        
            ##       ##  ##   ,#'  ##            #'  '#       #'       #'  '#        
            ##       ##  #######   ##           ,######,      #####,   #    #        
            '#,     ,#'  ##    ##  '#,     ,#' ,#      #,     #,   #   #,  ,#        
             '#######'   ##     ##  '#######'  #'      '#     '####' # '####'        



                #########################################################
                #                        -***-                          #
                #          Department of theory and spectroscopy        #
                #                                                       #
                #                      Frank Neese                      #
                #                                                       #
                #     Directorship, Architecture, Infrastructure        #
                #                    SHARK, DRIVERS                     #
                #        Core code/Algorithms in most modules           #
                #                                                       #
                #        Max Planck Institute fuer Kohlenforschung      #
                #                Kaiser Wilhelm Platz 1                 #
                #                 D-45470 Muelheim/Ruhr                 #
                #                      Germany                          #
                #                                                       #
                #                  All rights reserved                  #
                #                        -***-                          #
                #########################################################


                         Program Version 6.0.0  -   RELEASE  -


 With contributions from (in alphabetic order):
   Daniel Aravena         : Magnetic Suceptibility
   Michael Atanasov       : Ab Initio Ligand Field Theory (pilot matlab implementation)
   Alexander A. Auer      : GIAO ZORA, VPT2 properties, NMR spectrum
   Ute Becker             : All parallelization in ORCA, NUMFREQ, NUMCALC
   Giovanni Bistoni       : ED, misc. LED, open-shell LED, HFLD
   Martin Brehm           : Molecular dynamics
   Dmytro Bykov           : pre 5.0 version of the SCF Hessian
   Marcos Casanova-Páez   : Triplet and SCS-CIS(D). UHF-(DLPNO)-IP/EA/STEOM-CCSD. UHF-CVS-IP/STEOM-CCSD
   Vijay G. Chilkuri      : MRCI spin determinant printing, contributions to CSF-ICE
   Pauline Colinet        : FMM embedding
   Dipayan Datta          : RHF DLPNO-CCSD density
   Achintya Kumar Dutta   : EOM-CC, STEOM-CC
   Nicolas Foglia         : Exact transition moments, OPA infrastructure, MCD improvements
   Dmitry Ganyushin       : Spin-Orbit,Spin-Spin,Magnetic field MRCI
   Miquel Garcia          : C-PCM and meta-GGA Hessian, CCSD/C-PCM, Gaussian charge scheme
   Tiago L. C. Gouveia    : GS-ROHF, GS-ROCIS
   Yang Guo               : DLPNO-NEVPT2, F12-NEVPT2, CIM, IAO-localization
   Andreas Hansen         : Spin unrestricted coupled pair/coupled cluster methods
   Ingolf Harden          : AUTO-CI MPn and infrastructure 
   Benjamin Helmich-Paris : MC-RPA, TRAH-(SCF,CASSCF), AVAS, COSX integrals, SCF dyn. polar.
   Lee Huntington         : MR-EOM, pCC
   Robert Izsak           : Overlap fitted RIJCOSX, COSX-SCS-MP3, EOM
   Riya Kayal             : Wick's Theorem for AUTO-CI, AUTO-CI UHF-CCSDT
   Emily Kempfer          : AUTO-CI, RHF CISDT and CCSDT
   Christian Kollmar      : KDIIS, OOCD, Brueckner-CCSD(T), CCSD density, CASPT2, CASPT2-K, improved NEVPT2
   Axel Koslowski         : Symmetry handling
   Simone Kossmann        : Meta GGA functionals, TD-DFT gradient, OOMP2, (MP2 Hessian; deprecated post 5.0)
   Lucas Lang             : DCDCAS
   Marvin Lechner         : AUTO-CI (C++ implementation), FIC-MRCC
   Spencer Leger          : CASSCF response
   Dagmar Lenk            : GEPOL surface, SMD, ORCA-2-JSON
   Dimitrios Liakos       : Extrapolation schemes; Compound Job, initial MDCI parallelization
   Dimitrios Manganas     : Further ROCIS development; embedding schemes. LFT, Crystal Embedding
   Dimitrios Pantazis     : SARC Basis sets
   Anastasios Papadopoulos: AUTO-CI, single reference methods and gradients
   Taras Petrenko         : pre 6.0 DFT Hessian and TD-DFT gradient, (ASA, deprecated), ECA, 1-Electron XAS/XES, NRVS
   Peter Pinski           : DLPNO-MP2, DLPNO-MP2 Gradient
   Christoph Reimann      : Effective Core Potentials
   Marius Retegan         : Local ZFS, SOC
   Christoph Riplinger    : Optimizer, TS searches, QM/MM, DLPNO-CCSD(T), (RO)-DLPNO pert. Triples
   Michael Roemelt        : Original ROCIS implementation
   Masaaki Saitow         : Open-shell DLPNO-CCSD energy and density
   Barbara Sandhoefer     : DKH picture change effects
   Kantharuban Sivalingam : CASSCF convergence/infrastructure, NEVPT2 and variants, FIC-MRCI
   Bernardo de Souza      : ESD, SOC TD-DFT
   Georgi Stoychev        : AutoAux, RI-MP2 NMR, DLPNO-MP2 response, X2C
   Van Anh Tran           : RI-MP2 g-tensors
   Willem Van den Heuvel  : Paramagnetic NMR
   Zikuan Wang            : NOTCH, Electric field optimization 
   Frank Wennmohs         : Technical directorship and infrastructure
   Hang Xu                : AUTO-CI-Response properties 


 We gratefully acknowledge several colleagues who have allowed us to
 interface, adapt or use parts of their codes:
   Stefan Grimme, W. Hujo, H. Kruse, P. Pracht,  : VdW corrections, initial TS optimization,
                  C. Bannwarth, S. Ehlert,         DFT functionals, gCP, sTDA/sTD-DF
                  L. Wittmann, M. Mueller
   Ed Valeev, F. Pavosevic, A. Kumar             : LibInt (2-el integral package), F12 methods
   Garnet Chan, S. Sharma, J. Yang, R. Olivares  : DMRG
   Ulf Ekstrom                                   : XCFun DFT Library
   Mihaly Kallay                                 : mrcc  (arbitrary order and MRCC methods)
   Frank Weinhold                                : gennbo (NPA and NBO analysis)
   Simon Mueller                                 : openCOSMO-RS
   Christopher J. Cramer and Donald G. Truhlar   : smd solvation model
   Lars Goerigk                                  : TD-DFT with DH, B97 family of functionals
   V. Asgeirsson, H. Jonsson                     : NEB implementation
   FAccTs GmbH                                   : IRC, NEB, NEB-TS, DLPNO-Multilevel, CI-OPT
                                                   MM, QMMM, 2- and 3-layer-ONIOM, Crystal-QMMM,
                                                   LR-CPCM, SF, NACMEs, symmetry and pop. for TD-DFT,
                                                   nearIR, NL-DFT gradient (VV10), updates on ESD,
                                                   ML-optimized integration grids, MBIS, APM,
                                                   GOAT, DOCKER, SOLVATOR, interface openCOSMO-RS
   S Lehtola, MJT Oliveira, MAL Marques          : LibXC Library
   Liviu Ungur et al                             : ANISO software


 Your calculation uses the libint2 library for the computation of 2-el integrals
 For citations please refer to: http://libint.valeyev.net

 Your ORCA version has been built with support for libXC version: 6.2.2
 For citations please refer to: https://libxc.gitlab.io

 This ORCA versions uses:
   CBLAS   interface :  Fast vector & matrix operations
   LAPACKE interface :  Fast linear algebra routines
   SCALAPACK package :  Parallel linear algebra routines
   Shared memory     :  Shared parallel matrices
   BLAS/LAPACK       :  OpenBLAS 0.3.27  USE64BITINT DYNAMIC_ARCH NO_AFFINITY SkylakeX SINGLE_THREADED
        Core in use  :  SkylakeX
   Copyright (c) 2011-2014, The OpenBLAS Project




***************************************
The coordinates will be read from file: xtb_opt.xyz
***************************************


Your calculation utilizes the geometrical counterpoise correction gCP
Please cite in your paper:
H.Kruse, S. Grimme J.Chem.Phys., 136, (2012), 154101 
   

Your calculation utilizes the atom-pairwise dispersion correction
based on EEQ partial charges (D4)


Your calculation utilizes the SMD solvation module
Please cite in your paper:
A.V. Marenich, C.J. Cramer, D.G. Truhlar J. Phys. Chem. B, 113, (2009), 6378 

================================================================================

----- Orbital basis set information -----
Your calculation utilizes the basis: def2-mTZVPP
   Stefan Grimme, Andreas Hansen, Sebastian Ehlert, and Jan-Michael Mewes 
   J. Chem. Phys. 154, 064103 (2021). DOI: 10.1063/5.0040021

----- AuxJ basis set information -----
Your calculation utilizes the auxiliary basis: def2/J
   F. Weigend, Phys. Chem. Chem. Phys. 8, 1057 (2006).

================================================================================
                                        WARNINGS
                       Please study these warnings very carefully!
================================================================================

WARNING: Old DensityContainer found on disk!
         Will remove this file - 
         If you want to keep old densities, please start your calculation with a different basename. 

Using LibXC functional ID 497 : Re-regularized SCAN exchange by Furness et al
[ 1]  J. W. Furness, A. D. Kaplan, J. Ning, J. P. Perdew, and J. Sun.,  J. Phys. Chem. Lett. 11, 8208-8215 (2020)
[ 2]  J. W. Furness, A. D. Kaplan, J. Ning, J. P. Perdew, and J. Sun.,  J. Phys. Chem. Lett. 11, 9248-9248 (2020)
Using LibXC functional ID 498 : Re-regularized SCAN correlation by Furness et al
[ 1]  J. W. Furness, A. D. Kaplan, J. Ning, J. P. Perdew, and J. Sun.,  J. Phys. Chem. Lett. 11, 8208-8215 (2020)
[ 2]  J. W. Furness, A. D. Kaplan, J. Ning, J. P. Perdew, and J. Sun.,  J. Phys. Chem. Lett. 11, 9248-9248 (2020)
Using LibXC functional ID 497 : Re-regularized SCAN exchange by Furness et al
[ 1]  J. W. Furness, A. D. Kaplan, J. Ning, J. P. Perdew, and J. Sun.,  J. Phys. Chem. Lett. 11, 8208-8215 (2020)
[ 2]  J. W. Furness, A. D. Kaplan, J. Ning, J. P. Perdew, and J. Sun.,  J. Phys. Chem. Lett. 11, 9248-9248 (2020)
Using LibXC functional ID 498 : Re-regularized SCAN correlation by Furness et al
[ 1]  J. W. Furness, A. D. Kaplan, J. Ning, J. P. Perdew, and J. Sun.,  J. Phys. Chem. Lett. 11, 8208-8215 (2020)
[ 2]  J. W. Furness, A. D. Kaplan, J. Ning, J. P. Perdew, and J. Sun.,  J. Phys. Chem. Lett. 11, 9248-9248 (2020)

================================================================================
                                       INPUT FILE
================================================================================
NAME = xtb_opt.inp
|  1> ! r2scan-3c def2/J RI DEFGRID2 scfconv7 ENGRAD tightSCF miniprint
|  2> %cpcm
|  3>     smd true
|  4>     smdsolvent "water"
|  5> end
|  6> * xyzfile 0 1 xtb_opt.xyz
|  7> 
|  8>                          ****END OF INPUT****
================================================================================

                     *******************************
                     * Energy+Gradient Calculation *
                     *******************************

---------------------------------
CARTESIAN COORDINATES (ANGSTROEM)
---------------------------------
  C      2.206897    0.483509    0.135596
  C      1.231161   -0.586540   -0.344737
  C     -0.118747   -0.556886    0.356777
  H      0.026401   -0.517011    1.440415
  C     -1.017855   -1.719482   -0.015578
  Cl    -0.990469    1.007401   -0.047776
  H      2.401179    0.375275    1.206251
  H      1.804021    1.483984   -0.038474
  H      3.158595    0.405267   -0.394293
  H      1.656691   -1.579357   -0.158140
  H      1.069559   -0.502479   -1.424787
  H     -0.540127   -2.651495    0.298656
  H     -1.988317   -1.644393    0.479014
  H     -1.173290   -1.753352   -1.096687

----------------------------
CARTESIAN COORDINATES (A.U.)
----------------------------
  NO LB      ZA    FRAG     MASS         X           Y           Z
   0 C     6.0000    0    12.011    4.170430    0.913700    0.256239
   1 C     6.0000    0    12.011    2.326556   -1.108400   -0.651459
   2 C     6.0000    0    12.011   -0.224400   -1.052363    0.674211
   3 H     1.0000    0     1.008    0.049890   -0.977008    2.721991
   4 C     6.0000    0    12.011   -1.923467   -3.249351   -0.029438
   5 Cl   17.0000    0    35.453   -1.871715    1.903712   -0.090284
   6 H     1.0000    0     1.008    4.537571    0.709166    2.279485
   7 H     1.0000    0     1.008    3.409106    2.804324   -0.072706
   8 H     1.0000    0     1.008    5.968880    0.765845   -0.745105
   9 H     1.0000    0     1.008    3.130693   -2.984552   -0.298840
  10 H     1.0000    0     1.008    2.021174   -0.949548   -2.692457
  11 H     1.0000    0     1.008   -1.020692   -5.010600    0.564379
  12 H     1.0000    0     1.008   -3.757374   -3.107452    0.905206
  13 H     1.0000    0     1.008   -2.217197   -3.313354   -2.072437

------------------------------------------------------------------------------
                   ___                                                        
                  /   \      - P O W E R E D   B Y -                         
                 /     \                                                     
                 |  |  |   _    _      __       _____    __    __             
                 |  |  |  | |  | |    /  \     |  _  \  |  |  /  |          
                  \  \/   | |  | |   /    \    | | | |  |  | /  /          
                 / \  \   | |__| |  /  /\  \   | |_| |  |  |/  /          
                |  |  |   |  __  | /  /__\  \  |    /   |      \           
                |  |  |   | |  | | |   __   |  |    \   |  |\   \          
                \     /   | |  | | |  |  |  |  | |\  \  |  | \   \       
                 \___/    |_|  |_| |__|  |__|  |_| \__\ |__|  \__/        
                                                                              
                      - O R C A' S   B I G   F R I E N D -                    
                                      &                                       
                       - I N T E G R A L  F E E D E R -                       
                                                                              
 v1 FN, 2020, v2 2021, v3 2022-2024                                           
------------------------------------------------------------------------------


----------------------
SHARK INTEGRAL PACKAGE
----------------------

Number of atoms                             ...     14
Number of basis functions                   ...    148
Number of shells                            ...     74
Maximum angular momentum                    ...      2
Integral batch strategy                     ... SHARK/LIBINT Hybrid
RI-J (if used) integral strategy            ... SPLIT-RIJ (Revised 2003 algorithm where possible)
Printlevel                                  ...      1
Contraction scheme used                     ... SEGMENTED contraction
Prescreening option                         ... SCHWARTZ
   Thresh                                   ... 3.000e-11
   Tcut                                     ... 1.000e-12
   Tpresel                                  ... 1.000e-12 
Coulomb Range Separation                    ... NOT USED
Exchange Range Separation                   ... NOT USED
Multipole approximations                    ... NOT USED
Finite Nucleus Model                        ... NOT USED
CABS basis                                  ... NOT available
Auxiliary Coulomb fitting basis             ... AVAILABLE
   # of basis functions in Aux-J            ...    346
   # of shells in Aux-J                     ...    122
   Maximum angular momentum in Aux-J        ...      4
Auxiliary J/K fitting basis                 ... NOT available
Auxiliary Correlation fitting basis         ... NOT available
Auxiliary 'external' fitting basis          ... NOT available

Checking pre-screening integrals            ... done (  0.0 sec) Dimension = 74
Check shell pair data                       ... done (  0.0 sec)
Shell pair information
Shell pair cut-off parameter TPreSel        ...   1.0e-12
Total number of shell pairs                 ...      2775
Shell pairs after pre-screening             ...      2629
Total number of primitive shell pairs       ...     10308
Primitive shell pairs kept                  ...      7308
          la=0 lb=0:    881 shell pairs
          la=1 lb=0:   1016 shell pairs
          la=1 lb=1:    309 shell pairs
          la=2 lb=0:    254 shell pairs
          la=2 lb=1:    148 shell pairs
          la=2 lb=2:     21 shell pairs

Calculating one electron integrals          ... done (  0.0 sec)
Calculating RI/J V-Matrix + Cholesky decomp.... done (  0.0 sec)
Calculating Nuclear repulsion               ... done (  0.0 sec) ENN=    233.357030928901 Eh

Diagonalization of the overlap matrix:
Smallest eigenvalue                        ... 3.000e-04
Time for diagonalization                   ...    0.002 sec
Threshold for overlap eigenvalues          ... 1.000e-07
Number of eigenvalues below threshold      ... 0
Time for construction of square roots      ...    0.014 sec
Total time needed                          ...    0.023 sec

-------------------
DFT GRID GENERATION
-------------------

General Integration Accuracy     IntAcc      ... 4.388
Radial Grid Type                 RadialGrid  ... OptM3 with GC (2021)
Angular Grid (max. ang.)         AngularGrid ... 4 (Lebedev-302)
Angular grid pruning method      GridPruning ... 4 (adaptive)
Weight generation scheme         WeightScheme... mBecke (2022)
Basis function cutoff            BFCut       ... 1.0000e-11
Integration weight cutoff        WCut        ... 1.0000e-14
Partially contracted basis set               ... off
Rotationally invariant grid construction     ... off
Angular grids for H and He will be reduced by one unit

Total number of grid points                  ...    60409
Total number of batches                      ...      951
Average number of points per batch           ...       63
Average number of grid points per atom       ...     4315
Initializing property integral containers    ... done (  0.0 sec)

SHARK setup successfully completed in   0.7 seconds

Maximum memory used throughout the entire STARTUP-calculation: 27.1 MB
Occupation numbers will be reassigned to an Aufbau configuration
             **** ENERGY FILE WAS UPDATED (xtb_opt.en.tmp) ****
Finished Guess after   0.3 sec
Maximum memory used throughout the entire GUESS-calculation: 10.3 MB
--------------------
CPCM SOLVATION MODEL
--------------------
CPCM parameters:
  Epsilon                                         ...      78.3550
  Refrac                                          ...       1.3328
  Rsolv                                           ...       1.3000
  Surface type                                    ... GAUSSIAN VDW
  Discretization scheme                           ... Constant charge density
    Threshold for H atoms                         ...       5.0000 (charges/Ang^2)
    Threshold for non-H atoms                     ...       5.0000 (charges/Ang^2)
  Epsilon function type                           ...         CPCM
Solvent:                                          ... WATER
SMD-CDS solvent descriptors:
  Soln                                            ...       1.3328
  Soln25                                          ...       1.3323
  Sola                                            ...       0.0000
  Solb                                            ...       0.0000
  Solg                                            ...       0.0000
  Solc                                            ...       0.0000
  Solh                                            ...       0.0000
Radii:
  Scheme                                          ... Element-dependent radii
  Radius for C  used is    3.4960 Bohr (=   1.8500 Ang.)
  Radius for H  used is    2.2677 Bohr (=   1.2000 Ang.)
  Radius for Cl used is    4.4975 Bohr (=   2.3800 Ang.)
Calculating surface                               ...        done! (  0.0s)
Cavity surface points                             ...         1114
Cavity Volume                                     ...     816.4092
Cavity Surface-area                               ...     499.6045
Calculating surface distance matrix               ...        done! (  0.0s)
Performing Cholesky decomposition & store         ...        done! (  0.0s)
Overall time for CPCM initialization              ...                 0.1s

----------------------------------------D-I-I-S--------------------------------------------
Iteration    Energy (Eh)           Delta-E    RMSDP     MaxDP     DIISErr   Damp  Time(sec)
-------------------------------------------------------------------------------------------
               ***  Starting incremental Fock matrix formation  ***
    1    -617.9863799723369766     0.00e+00  8.21e-05  1.18e-03  4.79e-03  0.700   1.6
    2    -617.9864687794379279    -8.88e-05  7.59e-05  1.11e-03  3.65e-03  0.700   1.3
                               ***Turning on AO-DIIS***
                              *** Initializing SOSCF ***
---------------------------------------S-O-S-C-F--------------------------------------
Iteration    Energy (Eh)           Delta-E    RMSDP     MaxDP     MaxGrad    Time(sec)
--------------------------------------------------------------------------------------
    3    -617.9865333915976180    -6.46e-05  1.97e-04  2.84e-03  2.63e-03     1.5
               *** Restarting incremental Fock matrix formation ***
    4    -617.9866815591261684    -1.48e-04  4.49e-05  5.80e-04  2.04e-04     1.4
    5    -617.9866788797517074     2.68e-06  2.48e-05  4.45e-04  4.78e-04     1.2
    6    -617.9866837197787390    -4.84e-06  4.20e-06  9.38e-05  1.89e-05     1.2
                  *** Gradient check signals convergence ***

               *****************************************************
               *                     SUCCESS                       *
               *           SCF CONVERGED AFTER   6 CYCLES          *
               *****************************************************


SMD CDS free energy correction energy :                 2.79354     Kcal/mol
Total Energy after SMD CDS correction =              -617.982231928 Eh
             **** ENERGY FILE WAS UPDATED (xtb_opt.en.tmp) ****

----------------
TOTAL SCF ENERGY
----------------

Total Energy       :       -617.98223192789271 Eh          -16816.15145 eV

Components:
Nuclear Repulsion  :        233.35703092890103 Eh            6349.96764 eV
Electronic Energy  :       -851.33663380248811 Eh          -23166.04754 eV
One Electron Energy:      -1309.93232608931885 Eh          -35645.07075 eV
Two Electron Energy:        458.59569228683074 Eh           12479.02321 eV
CPCM Dielectric    :         -0.00708084619164 Eh              -0.19268 eV
SMD CDS (Gcds)     :          0.00445179188598 Eh               0.12114 eV

Virial components:
Potential Energy   :      -1234.06025078710650 Eh          -33580.48662 eV
Kinetic Energy     :        616.07801885921378 Eh           16764.33518 eV
Virial Ratio       :          2.00309086351142

DFT components:
N(Alpha)           :       24.999998402392 electrons
N(Beta)            :       24.999998402392 electrons
N(Total)           :       49.999996804784 electrons
E(X)               :      -51.543053993908 Eh       
E(C)               :       -1.672078251226 Eh       
E(XC)              :      -53.215132245135 Eh       

CPCM Solvation Model Properties:
Surface-charge          :         -0.03098841166650
Corrected charge        :         -0.00000000000000
Outlying charge corr.   :          0.00007789654407 Eh               0.00212 eV
Free-energy (cav+disp)  :          0.00445179188598 Eh               0.12114 eV

---------------
SCF CONVERGENCE
---------------

  Last Energy change         ...    4.8400e-06  Tolerance :   1.0000e-07
  Last MAX-Density change    ...    9.3765e-05  Tolerance :   1.0000e-07
  Last RMS-Density change    ...    4.1963e-06  Tolerance :   5.0000e-09
  Last DIIS Error            ...    2.6328e-03  Tolerance :   1.0000e-07
  Last Orbital Gradient      ...    1.8941e-05  Tolerance :   1.0000e-04
  Last Orbital Rotation      ...    3.9414e-05  Tolerance :   1.0000e-04


----------------
ORBITAL ENERGIES
----------------

  NO   OCC          E(Eh)            E(eV) 
   0   2.0000    -101.194016     -2753.6292 
   1   2.0000     -10.090018      -274.5634 
   2   2.0000     -10.029410      -272.9141 
   3   2.0000     -10.021694      -272.7041 
   4   2.0000     -10.013528      -272.4820 
   5   2.0000      -9.350184      -254.4314 
   6   2.0000      -7.095757      -193.0854 
   7   2.0000      -7.086652      -192.8376 
   8   2.0000      -7.086485      -192.8331 
   9   2.0000      -0.818586       -22.2749 
  10   2.0000      -0.728881       -19.8339 
  11   2.0000      -0.689620       -18.7655 
  12   2.0000      -0.598136       -16.2761 
  13   2.0000      -0.536521       -14.5995 
  14   2.0000      -0.440564       -11.9884 
  15   2.0000      -0.408333       -11.1113 
  16   2.0000      -0.401180       -10.9167 
  17   2.0000      -0.383737       -10.4420 
  18   2.0000      -0.346996        -9.4422 
  19   2.0000      -0.330503        -8.9935 
  20   2.0000      -0.317821        -8.6483 
  21   2.0000      -0.310207        -8.4412 
  22   2.0000      -0.302468        -8.2306 
  23   2.0000      -0.263457        -7.1690 
  24   2.0000      -0.262112        -7.1324 
  25   0.0000       0.006055         0.1648 
  26   0.0000       0.104187         2.8351 
  27   0.0000       0.117625         3.2007 
  28   0.0000       0.141652         3.8545 
  29   0.0000       0.146240         3.9794 
  30   0.0000       0.148277         4.0348 
  31   0.0000       0.162796         4.4299 
  32   0.0000       0.177978         4.8430 
  33   0.0000       0.183574         4.9953 
  34   0.0000       0.197183         5.3656 
  35   0.0000       0.202286         5.5045 
*Only the first 10 virtual orbitals were printed.
Total SCF time: 0 days 0 hours 0 min 8 sec 
Finished LeanSCF after   8.6 sec

Maximum memory used throughout the entire LEANSCF-calculation: 18.0 MB


-------------------------------------------------------------------------------
                          DFT DISPERSION CORRECTION                            
                                                                               
                                DFTD4 V3.4.0                                   
-------------------------------------------------------------------------------
-------------------------   ----------------
Dispersion correction           -0.003376412
-------------------------   ----------------

------------------   -----------------
gCP correction             0.008429288
------------------   -----------------

-------------------------   --------------------
FINAL SINGLE POINT ENERGY      -617.977179051535
-------------------------   --------------------

------------------------------------------------------------------------------
                         ORCA SCF GRADIENT CALCULATION
------------------------------------------------------------------------------

Nuc. rep. gradient        (SHARK) ... done (  0.0 sec)
HCore & Overlap gradient  (SHARK) ... done (  0.1 sec)
Split-RIJ-J gradient      (SHARK) ... done (  0.6 sec)
XC gradient                       ... done (  2.5 sec)
CPCM gradient                     ... done (  0.4 sec)
SMD gradient                      ... done (  0.0 sec)
Dispersion correction             ... done (  0.0 sec)

-------------------
DISPERSION GRADIENT
-------------------

   1   C   :    0.000067879    0.000030942    0.000005458
   2   C   :    0.000030684   -0.000007200   -0.000012087
   3   C   :   -0.000017064   -0.000009609    0.000010069
   4   H   :   -0.000010462   -0.000001301    0.000009340
   5   C   :   -0.000047828   -0.000048992   -0.000001539
   6   Cl  :   -0.000085799    0.000078315   -0.000001376
   7   H   :    0.000033030    0.000010102    0.000009820
   8   H   :    0.000022905    0.000016657   -0.000000477
   9   H   :    0.000033718    0.000008286   -0.000003399
  10   H   :    0.000021693   -0.000011808   -0.000002692
  11   H   :    0.000013760    0.000001255   -0.000013037
  12   H   :   -0.000016752   -0.000031496    0.000003236
  13   H   :   -0.000024573   -0.000016024    0.000004237
  14   H   :   -0.000021191   -0.000019126   -0.000007552

Difference to translation invariance:
           :    0.0000000000   -0.0000000000   -0.0000000000

Difference to rotation invariance:
           :    0.0000000000   -0.0000000000    0.0000000000

Norm of the Dispersion gradient    ...    0.0001814519
RMS gradient                       ...    0.0000279986
MAX gradient                       ...    0.0000857993
gCP correction                   ... done

------------------
CARTESIAN GRADIENT
------------------

   1   C   :    0.002362648    0.001348810    0.000577458
   2   C   :    0.000708283   -0.002886985   -0.000239233
   3   C   :   -0.005058559    0.009423928   -0.002501802
   4   H   :    0.000581850   -0.000610943   -0.000283524
   5   C   :   -0.000553890   -0.002997036    0.000461037
   6   Cl  :    0.003907447   -0.007130551    0.001456342
   7   H   :   -0.000530337   -0.000193823   -0.001076310
   8   H   :   -0.000484074   -0.001232303    0.000175298
   9   H   :   -0.001050524    0.000277700    0.000320423
  10   H   :    0.000282388    0.001111690   -0.000233377
  11   H   :   -0.000219838    0.000795676    0.000980090
  12   H   :   -0.000729666    0.000932067   -0.000281137
  13   H   :    0.000462732    0.000462525   -0.000383977
  14   H   :    0.000321540    0.000699246    0.001028713

Difference to translation invariance:
           :   -0.0000000000    0.0000000000    0.0000000000

[...]

Components:
Nuclear Repulsion  :        232.33644214090245 Eh            6322.19600 eV
Electronic Energy  :       -850.31562299836014 Eh          -23138.26443 eV
One Electron Energy:      -1307.93265364637705 Eh          -35590.65690 eV
Two Electron Energy:        457.61703064801691 Eh           12452.39247 eV
CPCM Dielectric    :         -0.00780169430857 Eh              -0.21229 eV
SMD CDS (Gcds)     :          0.00443537889886 Eh               0.12069 eV

Virial components:
Potential Energy   :      -1234.01714803884283 Eh          -33579.31374 eV
Kinetic Energy     :        616.03460086597545 Eh           16763.15371 eV
Virial Ratio       :          2.00316207288382

DFT components:
N(Alpha)           :       24.999999864462 electrons
N(Beta)            :       24.999999864462 electrons
N(Total)           :       49.999999728923 electrons
E(X)               :      -51.532100443190 Eh       
E(C)               :       -1.670928131060 Eh       
E(XC)              :      -53.203028574249 Eh       

CPCM Solvation Model Properties:
Surface-charge          :         -0.03088917361353
Corrected charge        :         -0.00000000000000
Outlying charge corr.   :          0.00007730171291 Eh               0.00210 eV
Free-energy (cav+disp)  :          0.00443537889886 Eh               0.12069 eV

---------------
SCF CONVERGENCE
---------------

  Last Energy change         ...    3.9158e-09  Tolerance :   1.0000e-07
  Last MAX-Density change    ...    2.7271e-05  Tolerance :   1.0000e-07
  Last RMS-Density change    ...    1.4723e-06  Tolerance :   5.0000e-09
  Last DIIS Error            ...    3.2520e-05  Tolerance :   1.0000e-07
  Last Orbital Gradient      ...    8.6064e-06  Tolerance :   1.0000e-04
  Last Orbital Rotation      ...    1.9762e-05  Tolerance :   1.0000e-04


----------------
ORBITAL ENERGIES
----------------

  NO   OCC          E(Eh)            E(eV) 
   0   2.0000    -101.191467     -2753.5598 
   1   2.0000     -10.092509      -274.6311 
   2   2.0000     -10.030551      -272.9452 
   3   2.0000     -10.022696      -272.7314 
   4   2.0000     -10.014318      -272.5035 
   5   2.0000      -9.347265      -254.3520 
   6   2.0000      -7.092774      -193.0042 
   7   2.0000      -7.083826      -192.7607 
   8   2.0000      -7.083644      -192.7558 
   9   2.0000      -0.812657       -22.1135 
  10   2.0000      -0.728669       -19.8281 
  11   2.0000      -0.690697       -18.7948 
  12   2.0000      -0.599165       -16.3041 
  13   2.0000      -0.536474       -14.5982 
  14   2.0000      -0.439394       -11.9565 
  15   2.0000      -0.407923       -11.1001 
  16   2.0000      -0.401173       -10.9165 
  17   2.0000      -0.383660       -10.4399 
  18   2.0000      -0.346045        -9.4164 
  19   2.0000      -0.328343        -8.9347 
  20   2.0000      -0.318580        -8.6690 
  21   2.0000      -0.310115        -8.4387 
  22   2.0000      -0.301561        -8.2059 
  23   2.0000      -0.263063        -7.1583 
  24   2.0000      -0.262247        -7.1361 
  25   0.0000      -0.003892        -0.1059 
  26   0.0000       0.103566         2.8182 
  27   0.0000       0.117569         3.1992 
  28   0.0000       0.141706         3.8560 
  29   0.0000       0.145365         3.9556 
  30   0.0000       0.148679         4.0458 
  31   0.0000       0.162983         4.4350 
  32   0.0000       0.176062         4.7909 
  33   0.0000       0.184365         5.0168 
  34   0.0000       0.199746         5.4354 
  35   0.0000       0.203665         5.5420 
*Only the first 10 virtual orbitals were printed.
Total SCF time: 0 days 0 hours 0 min 3 sec 
Finished LeanSCF after   3.4 sec

Maximum memory used throughout the entire LEANSCF-calculation: 18.1 MB


-------------------------------------------------------------------------------
                          DFT DISPERSION CORRECTION                            
                                                                               
                                DFTD4 V3.4.0                                   
-------------------------------------------------------------------------------
-------------------------   ----------------
Dispersion correction           -0.003371487
-------------------------   ----------------

------------------   -----------------
gCP correction             0.008272569
------------------   -----------------

-------------------------   --------------------
FINAL SINGLE POINT ENERGY      -617.977646090985
-------------------------   --------------------

------------------------------------------------------------------------------
                         ORCA SCF GRADIENT CALCULATION
------------------------------------------------------------------------------

Nuc. rep. gradient        (SHARK) ... done (  0.0 sec)
HCore & Overlap gradient  (SHARK) ... done (  0.1 sec)
Split-RIJ-J gradient      (SHARK) ... done (  0.6 sec)
XC gradient                       ... done (  2.5 sec)
CPCM gradient                     ... done (  0.4 sec)
SMD gradient                      ... done (  0.0 sec)
Dispersion correction             ... done (  0.0 sec)

-------------------
DISPERSION GRADIENT
-------------------

   1   C   :    0.000068179    0.000031127    0.000004632
   2   C   :    0.000030792   -0.000007807   -0.000011997
   3   C   :   -0.000017279   -0.000009890    0.000010421
   4   H   :   -0.000010559   -0.000001765    0.000009839
   5   C   :   -0.000047608   -0.000049140   -0.000002382
   6   Cl  :   -0.000086112    0.000079556    0.000001921
   7   H   :    0.000032398    0.000010620    0.000009366
   8   H   :    0.000023417    0.000016955   -0.000001279
   9   H   :    0.000033575    0.000008127   -0.000003413
  10   H   :    0.000021707   -0.000011743   -0.000002512
  11   H   :    0.000013919    0.000000564   -0.000013163
  12   H   :   -0.000016552   -0.000031238    0.000002373
  13   H   :   -0.000024481   -0.000016373    0.000004056
  14   H   :   -0.000021396   -0.000018992   -0.000007863

Difference to translation invariance:
           :    0.0000000000    0.0000000000   -0.0000000000

Difference to rotation invariance:
           :    0.0000000000    0.0000000000   -0.0000000000

Norm of the Dispersion gradient    ...    0.0001823131
RMS gradient                       ...    0.0000281315
MAX gradient                       ...    0.0000861118
gCP correction                   ... done

------------------
CARTESIAN GRADIENT
------------------

   1   C   :    0.000240604    0.000115137    0.000043671
   2   C   :   -0.000121192   -0.000111485    0.000049762
   3   C   :    0.000082157   -0.000039906    0.000007579
   4   H   :    0.000014742    0.000033251    0.000033154
   5   C   :   -0.000020825   -0.000049696    0.000004427
   6   Cl  :    0.000005483   -0.000052659   -0.000043301
   7   H   :   -0.000033604    0.000019528   -0.000079499
   8   H   :   -0.000038516   -0.000048340    0.000004134
   9   H   :   -0.000023249    0.000045193    0.000030285
  10   H   :    0.000019766   -0.000007297   -0.000025395
  11   H   :   -0.000007721    0.000027071   -0.000055437
  12   H   :   -0.000033793    0.000026229    0.000000377
  13   H   :   -0.000072045    0.000028334    0.000021245
  14   H   :   -0.000011807    0.000014640    0.000008998

Difference to translation invariance:
           :   -0.0000000000    0.0000000000   -0.0000000000

Difference to rotation invariance:
           :   -0.0002812394    0.0002189747   -0.0000814404

Norm of the Cartesian gradient     ...    0.0003871714
RMS gradient                       ...    0.0000597418
MAX gradient                       ...    0.0002406042

-------
TIMINGS
-------

Total SCF gradient time     ....        3.906 sec

Densities                   ....       0.000 sec  (  0.0%)
One electron gradient       ....       0.097 sec  (  2.5%)
RI-J Coulomb gradient       ....       0.573 sec  ( 14.7%)
XC gradient                 ....       2.521 sec  ( 64.6%)
CPCM gradient               ....       0.361 sec  (  9.2%)
   A-Matrix (El+Nuc)        ....       0.038 sec  (  1.0%)
   Potential                ....       0.323 sec  (  8.3%)
SMD gradient                ....       0.012 sec  (  0.3%)

Maximum memory used throughout the entire SCFGRAD-calculation: 30.3 MB

------------------------------------------------------------------------------
                              ORCA PROPERTY CALCULATIONS
------------------------------------------------------------------------------

GBWName                                 ... xtb_opt.gbw
Number of atoms                         ...     14
Number of basis functions               ...    148
Max core memory                         ...   1024 MB

Electric properties:
Dipole moment                           ... YES
Quadrupole moment                       ...  NO
Static polarizability (Dipole/Dipole)   ...  NO
Static polarizability (Dipole/Quad.)    ...  NO
Static polarizability (Quad./Quad.)     ...  NO
Static polarizability (Velocity)        ...  NO

Atomic electric properties:
Dipole moment                           ...  NO
Quadrupole moment                       ...  NO
Static polarizability                   ...  NO

Choice of electric origin               ... Center of mass
Position of electric origin             ...    -0.022884     0.029118     0.046626

General magnetic properties:
Magnetizability                         ...  NO

EPR properties:
g-Tensor (aka g-matrix)                 ...  NO
Zero-Field splitting spin-orbit         ...  NO
Zero-field splitting spin-spin          ...  NO
Hyperfine couplings                     ...  NO (   0 nuclei)
Quadrupole couplings                    ...  NO (   0 nuclei)
Contact density                         ...  NO (   0 nuclei)

NMR properties:
Chemical shifts                         ...  NO (   0 nuclei)
Spin-rotation constants                 ...  NO (   0 nuclei)
Spin-spin couplings                     ...  NO (   0 nuclei,    0 pairs)

Choice of magnetic origin               ... GIAO
Position of magnetic origin             ...     0.000000     0.000000     0.000000

Properties with geometric perturbations:
SCF Hessian                             ...  NO
IR spectrum                             ...  NO
VCD spectrum                            ...  NO
X-ray spectroscopy properties:
SCF XES/XAS/RIXS spectra                ...  NO


-------------
DIPOLE MOMENT
-------------

Method             : SCF
Type of density    : Electron Density
Multiplicity       :   1
Irrep              :   0
Energy             :  -617.9825471728673847 Eh
Relativity type    : 
Basis              : AO
                                X                 Y                 Z
Electronic contribution:     -6.770465259       6.313639787       0.139126968
Nuclear contribution   :      7.440411319      -7.496348843       0.043262037
                        -----------------------------------------
Total Dipole Moment    :      0.669946060      -1.182709056       0.182389005
                        -----------------------------------------
Magnitude (a.u.)       :      1.371456956
Magnitude (Debye)      :      3.485966549



--------------------
Rotational spectrum 
--------------------
 
Rotational constants in cm-1:             0.148972             0.103152             0.065918 
Rotational constants in MHz :          4466.078406          3092.425550          1976.178622 

Dipole components along the rotational axes: 
x,y,z [a.u.] :    -0.706906    -1.154216     0.221276 
x,y,z [Debye]:    -1.796813    -2.933784     0.562439 

 

Dipole moment calculation done in   0.0 sec 

Maximum memory used throughout the entire PROP-calculation: 8.5 MB

--------------------------------
SUGGESTED CITATIONS FOR THIS RUN
--------------------------------

Below you find a list of papers that are relevant to this ORCA run
We neither can nor want to force you to cite these papers, but we appreciate if you do
You receive ORCA, which is the product of decades of hard work by many enthusiastic individuals, for free
The only thing we kindly ask in return is that you cite our papers,
We deeply appreciate it, if you show your appreciation for ORCA by not just citing the generic ORCA reference.

Please note that relegating all ORCA citations to the supporting information does *not* help us.
SI sections are not indexed - citations you put there will not count into any citation statistics
But we need these citations in order to attract the funding resources that allow us to do what we are doing

Therefore, if you are a happy ORCA user, please consider citing a few of the papers listed below in the main body of your paper

In addition to the list printed below, the program has created the file xtb_opt.bibtex that contains the list in bibtex format
You can import this file easily into all common literature databanks and citation aid programs


List of essential papers. We consider these as the minimum necessary citations

  1. Neese,F.
     Software update: the ORCA program system, version 5.0
     WIRES Comput. Molec. Sci., 2022 12(1)e1606
     doi.org/10.1002/wcms.1606
  2. Grimme,S.; Hansen,A.; Ehlert,S.; Mewes,J.
     r2SCAN-3c: A 'Swiss army knife' composite electronic-structure method
     J. Chem. Phys., 2021 154 064103
     doi.org/10.1063/5.0040021

List of papers to cite with high priority. The work reported in these papers was absolutely
necessary for this run to complete.
Our perspective: the developers of density functionals and basis sets usually get cited in chemistry papers
Good! But without the algorithms to do something with them, the functionals or basis sets would not do anything.
Hence, in our opinion, the algorithm design and method developments papers are equally worthy of getting cited

  1. Neese,F.
     An improvement of the resolution of the identity approximation for the formation of the Coulomb matrix
     J. Comp. Chem., 2003 24(14)1740-1747
     doi.org/10.1002/jcc.10318
  2. Garcia-Rates,M.; Neese,F.
     Effect of the Solute Cavity on the Solvation Energy and its Derivatives within the Framework of the Gaussian Charge Scheme
     J. Comput. Chem., 2020 41 922-939
     doi.org/10.1002/jcc.26139
  3. Neese,F.
     The SHARK Integral Generation and Digestion System
     J. Comp. Chem., 2022  1-16
     doi.org/10.1002/jcc.26942
  4. Lehtola,S.; Steigemann,C.; Oliveira,M.; Marques,M.
     Recent developments in Libxc - A comprehensive library of functionals for density functional theory
     Software X, 2018 7 
     doi.org/10.1016/j.softx.2017.11.002
  5. Caldeweyher,E.; Bannwarth,C.; Grimme,S.
     Extension of the D3 dispersion coefficient model
     J. Chem. Phys., 2017 147 034112-XXXX
     doi.org/10.1063/1.4993215
  6. Caldeweyher,E.; Ehlert,S.; Hansen,A.; Neugebauer,H.; Spicher,S.; Bannwarth,C.; Grimme,S.
     A generally applicable atomic-charge dependent London dispersion correction
     J. Chem. Phys., 2019 150 154122-XXXX
     doi.org/10.1063/1.5090222
  7. Caldeweyher,E.; Mewes,J.; Ehlert,S.; Grimme,S.
     Extension and evaluation of the D4 London-dispersion model for periodic systems
     Phys. Chem. Chem. Phys., 2020 22(16)8499-8512
     doi.org/10.1039/D0CP00502A

List of suggested additional citations. These are papers that are important in the 'surrounding' of 
of this run, or papers that preceded the highly important papers. If you like your results we are grateful for a citation.

  1. Neese,F.
     The ORCA program system
     WIRES Comput. Molec. Sci., 2012 2(1)73-78
     doi.org/10.1002/wcms.81
  2. Neese,F.
     Software update: the ORCA program system, version 4.0
     WIRES Comput. Molec. Sci., 2018 8(1)1-6
     doi.org/10.1002/wcms.1327
  3. Neese,F.; Wennmohs,F.; Becker,U.; Riplinger,C.
     The ORCA quantum chemistry program package
     J. Chem. Phys., 2020 152 Art. No. L224108
     doi.org/10.1063/5.0004608

List of optional additional citations

  1. Neese,F.
     Approximate second-order SCF convergence for spin unrestricted wavefunctions
     Chem. Phys. Lett., 2000 325(1-3)93-98
     doi.org/10.1016/s0009-2614(00)00662-x

Timings for individual modules:

Sum of individual times          ...        8.415 sec (=   0.140 min)
Startup calculation              ...        0.684 sec (=   0.011 min)   8.1 %
SCF iterations                   ...        3.653 sec (=   0.061 min)  43.4 %
Property calculations            ...        0.093 sec (=   0.002 min)   1.1 %
SCF Gradient evaluation          ...        3.984 sec (=   0.066 min)  47.3 %
                             ****ORCA TERMINATED NORMALLY****
TOTAL RUN TIME: 0 days 0 hours 0 minutes 9 seconds 86 msec
  ------------------------------------------------------------------------
          * successful ORCA run, taking over control again...

         :::::::::::::::::::::::::::::::::::::::::::::::::::::
         ::                  ORCA SUMMARY                   ::
         :::::::::::::::::::::::::::::::::::::::::::::::::::::
         :: total energy            -617.977646090985 Eh    ::
         :: gradient norm              0.000387171367 Eh/a0 ::
         :: HOMO-LUMO gap              0.000000000000 eV    ::
         :::::::::::::::::::::::::::::::::::::::::::::::::::::

           -------------------------------------------------
          |                Property Printout                |
           -------------------------------------------------
           -------------------------------------------------
          |                Geometry Summary                 |
           -------------------------------------------------

      molecular mass/u    :       92.5673479
   center of mass at/Å    :       -0.0121202       0.0154189       0.0246733
  moments of inertia/u·Å² :        0.1131568E+03   0.1634208E+03   0.2557298E+03
rotational constants/cm⁻¹ :        0.1489759E+00   0.1031547E+00   0.6591970E-01

 * 12 selected distances

     #   Z          #   Z                                           value/Å
     1   6 C        2   6 C                                       1.5237583 (max)
     2   6 C        3   6 C                                       1.5158984
     3   6 C        4   1 H                                       1.0934130
     3   6 C        5   6 C                                       1.5111221
     1   6 C        7   1 H                                       1.0953146
     1   6 C        8   1 H                                       1.0937326
     1   6 C        9   1 H                                       1.0939281
     2   6 C       10   1 H                                       1.0986927
     2   6 C       11   1 H                                       1.0965934
     5   6 C       12   1 H                                       1.0960227
     5   6 C       13   1 H                                       1.0925852 (min)
     5   6 C       14   1 H                                       1.0940311

 * 2 distinct bonds (by element types)

   Z      Z             #   av. dist./Å        max./Å        min./Å
   1 H    6 C           9     1.0949237     1.0986927     1.0925852
   6 C    6 C           3     1.5169263     1.5237583     1.5111221


optimized geometry written to: xtbopt.coord


           -------------------------------------------------
          | TOTAL ENERGY             -617.977646090985 Eh   |
          | GRADIENT NORM               0.000387171367 Eh/α |
           -------------------------------------------------

------------------------------------------------------------------------
 * finished run on 2025/04/04 at 19:39:19.795     
------------------------------------------------------------------------
 total:
 * wall-time:     0 d,  0 h,  2 min,  3.261 sec
 *  cpu-time:     0 d,  0 h,  0 min,  0.484 sec
 * ratio c/w:     0.004 speedup
 SCF:
 * wall-time:     0 d,  0 h,  0 min,  9.877 sec
 *  cpu-time:     0 d,  0 h,  0 min,  0.169 sec
 * ratio c/w:     0.017 speedup
 ANC optimizer:
 * wall-time:     0 d,  0 h,  1 min, 53.360 sec
 *  cpu-time:     0 d,  0 h,  0 min,  0.311 sec
 * ratio c/w:     0.003 speedup

