18
 energy: -47.578497126770 gnorm: 0.025396760089 xtb: 6.7.1 (edcfbbe)
C           -0.69375130233740       -3.00744016105506       -0.00252166123476
C            0.69317463300308       -3.00758482338228        0.00239285496850
C            1.38549707174922       -1.80214176057911        0.00980403760008
C            0.70410833953094       -0.58671068245368        0.01141992815082
C           -0.70416617838919       -0.58656487023840       -0.01157033432552
C           -1.38581453674053       -1.80185029212896       -0.00994532896815
C           -1.54045740450074        0.67049157522361       -0.00048463766897
F           -1.62137507044841        1.22253548314328        1.23865132003872
F           -1.06521671149975        1.62841462630707       -0.83185771218584
F           -2.81325948678741        0.42879879721335       -0.38902062298491
C            1.54060243536406        0.67021311620956        0.00054521819878
F            1.06576223878754        1.62779233618888        0.83257820995244
F            2.81351355381374        0.42816778471416        0.38848236918558
F            1.62115101466485        1.22284856798460       -1.23834299383515
H           -1.24573864094905       -3.94075703909864       -0.00330907884539
H            1.24496576695824       -3.94101806104647        0.00320930993303
H            2.46813169343993       -1.81087776096251        0.01633836679750
H           -2.46845178819796       -1.81034661740097       -0.01647013129000
18
 energy: -47.579761003738 gnorm: 0.009396823418 xtb: 6.7.1 (edcfbbe)
C           -0.69188126990764       -3.01084568950872       -0.00217526593518
C            0.69130557362183       -3.01098875460050        0.00203309465296
C            1.38266168330797       -1.80953246795001        0.00734723471991
C            0.70043770538207       -0.59865564554721        0.01043268778961
C           -0.70050187987047       -0.59851068461404       -0.01055885370639
C           -1.38298248709293       -1.80924369186131       -0.00748210787964
C           -1.51775132059725        0.66769615058752       -0.00228902275181
F           -1.60030159325135        1.22471907019689        1.22878399394123
F           -1.04623575539704        1.62711819714700       -0.82575924560505
F           -2.79108452346652        0.45354103791214       -0.38665787972374
C            1.51789592195363        0.66741804928149        0.00235281075575
F            1.04677933379417        1.62652637519357        0.82644595780064
F            2.79133375858374        0.45292345407813        0.38616480792179
F            1.60009155821492        1.22499017514886       -1.22848694242678
H           -1.24147543616311       -3.93921738700209       -0.00278823587718
H            1.24070632556554       -3.93947509228567        0.00266445261046
H            2.46173176816348       -1.81250853345209        0.01591420694667
H           -2.46205373537989       -1.81198434408551       -0.01604257974649
18
 energy: -47.579953338723 gnorm: 0.002138866357 xtb: 6.7.1 (edcfbbe)
C           -0.69182334513718       -3.01249868713696       -0.00203008313015
C            0.69125004283387       -3.01264046929157        0.00187679832791
C            1.38414228258997       -1.81312613555971        0.00786464096665
C            0.69918756371030       -0.60477428285249        0.01012963266840
C           -0.69925832309219       -0.60463024092262       -0.01023706595960
C           -1.38446527415635       -1.81284018660499       -0.00799503538511
C           -1.50367033774791        0.66671162358021       -0.00278912311892
F           -1.58375600889163        1.22549098572918        1.22402222742675
F           -1.03080510575931        1.62319478624592       -0.82268740215160
F           -2.77663019224695        0.46756243242817       -0.38515653428299
C            1.50381303088905        0.66643320840864        0.00286086403746
F            1.03132942698329        1.62263950524370        0.82332627966055
F            2.77686519440197        0.46695358722854        0.38473066105593
F            1.58358381236439        1.22570697331329       -1.22373662656676
H           -1.24002050922051       -3.93948753438561       -0.00180548699874
H            1.23925608861007       -3.93974243770486        0.00164893962913
H            2.46208435092634       -1.81074930595582        0.01611399308328
H           -2.46240706959609       -1.81023360312456       -0.01623756577547
18
 energy: -47.579961805209 gnorm: 0.000842512492 xtb: 6.7.1 (edcfbbe)
C           -0.69196163903055       -3.01263553679618       -0.00208449990770
C            0.69138945178405       -3.01277659760150        0.00191979574490
C            1.38523338027079       -1.81364986508263        0.00802965330254
C            0.69942419944870       -0.60541361561152        0.01019671535073
C           -0.69949844769077       -0.60527026546775       -0.01029349300110
C           -1.38555756686429       -1.81336561305027       -0.00815794781657
C           -1.50180702135606        0.66704652054024       -0.00286905922780
F           -1.57937549389773        1.22587492043618        1.22378088465671
F           -1.02755754995644        1.62142176887943       -0.82344376982201
F           -2.77502024663060        0.46992951658226       -0.38428458226197
C            1.50194843789528        0.66676792783134        0.00294792651746
F            1.02805984253563        1.62089203288847        0.82404517796906
F            2.77524158094575        0.46932652924161        0.38391257146446
F            1.57924259522668        1.22605292673105       -1.22350209368757
H           -1.23962673206560       -3.94028000652679       -0.00211495636671
H            1.23886446142578       -3.94053334609378        0.00193808007845
H            2.46325931732845       -1.80996410075827        0.01691324589329
H           -2.46358294190793       -1.80945297750346       -0.01703453539942
18
 energy: -47.579963600608 gnorm: 0.000484942948 xtb: 6.7.1 (edcfbbe)
C           -0.69200508587557       -3.01262939307967       -0.00262780584271
C            0.69143476893548       -3.01276866141050        0.00244383735120
C            1.38609692455217       -1.81406578073473        0.00896798129939
C            0.69968210281336       -0.60583785806858        0.01056647925315
C           -0.69976347090314       -0.60569619337923       -0.01064332642316
C           -1.38642373791966       -1.81378552871158       -0.00909522255012
C           -1.50080247526901        0.66749704537134       -0.00297855063117
F           -1.57523511159819        1.22663234888171        1.22379707497402
F           -1.02600968854568        1.61969640874818       -0.82521552898627
F           -2.77462831488995        0.47137614363816       -0.38243471362539
C            1.50094141379310        0.66721780997132        0.00307179633075
F            1.02646777316242        1.61921656330126        0.82574295165362
F            2.77482133651408        0.47078306145367        0.38217043379696
F            1.57518305309109        1.22673824722259       -1.22353111825110
H           -1.23887230271420       -3.94118247887503       -0.00291575523936
H            1.23811441847867       -3.94143223759273        0.00269971318442
H            2.46420595738135       -1.80914555679377        0.01823464789601
H           -2.46453193354518       -1.80864372130397       -0.01835378070348
18
 energy: -47.579964212038 gnorm: 0.000164504906 xtb: 6.7.1 (edcfbbe)
C           -0.69197592540265       -3.01261908648719       -0.00283909718215
C            0.69140628138901       -3.01275737273748        0.00264671857935
C            1.38587618802196       -1.81402747916637        0.00929292509950
C            0.69960136073160       -0.60581294922610        0.01068565289084
C           -0.69968599194427       -0.60567225884623       -0.01075233448419
C           -1.38620429827275       -1.81374928875761       -0.00941969819389
C           -1.50106274134181        0.66743195989271       -0.00297335253462
F           -1.57509463234726        1.22696655255349        1.22373529829343
F           -1.02716951493979        1.61977307537809       -0.82570026703484
F           -2.77515701776013        0.47094776144166       -0.38150024504685
C            1.50120068057954        0.66715230357091        0.00307291224165
F            1.02761122101138        1.61931464352661        0.82619753023720
F            2.77533863963328        0.47035791417825        0.38127942108732
F            1.57507445629346        1.22704329529105       -1.22347484642652
H           -1.23878020857458       -3.94110454334852       -0.00350634254201
H            1.23802441732477       -3.94135247667900        0.00327489349858
H            2.46394085571468       -1.80920982045042        0.01902416704195
H           -2.46426814265527       -1.80871201149540       -0.01914422203800
18
 energy: -47.579964677241 gnorm: 0.000148305532 xtb: 6.7.1 (edcfbbe)
C           -0.69198017176436       -3.01265216751484       -0.00357033899061
C            0.69141244827166       -3.01278793267270        0.00335756106632
C            1.38574448448305       -1.81404670894839        0.01042807748879
C            0.69952680817535       -0.60584045810742        0.01106059089043
C           -0.69962004421927       -0.60570229048459       -0.01110325557518
C           -1.38607591007756       -1.81377384303912       -0.01055468053530
C           -1.50112474170508        0.66738493861505       -0.00292538627620
F           -1.57353140001460        1.22763531214893        1.22363279850976
F           -1.02859358091240        1.61952548097458       -0.82670984930480
F           -2.77583187374942        0.47073165883065       -0.37933908581715
C            1.50125986348816        0.66710423268412        0.00304149317176
F            1.02899113132200        1.61912309992043        0.82712792247702
F            2.77598317184691        0.47015005070422        0.37923394292707
F            1.57359617345804        1.22763528044564       -1.22338671375736
H           -1.23866707632173       -3.94111920953370       -0.00478662278289
H            1.23791692089271       -3.94136245043062        0.00451449254947
H            2.46377364897487       -1.80926101502649        0.02078613119278
H           -2.46410422468720       -1.80877375992731       -0.02090796374716
18
 energy: -47.579964850880 gnorm: 0.000117093056 xtb: 6.7.1 (edcfbbe)
C           -0.69198667973494       -3.01267128057398       -0.00395758833982
C            0.69142036649429       -3.01280523215831        0.00372902604109
C            1.38574336157093       -1.81405447480141        0.01107989089964
C            0.69953221356419       -0.60582425774575        0.01130462944288
C           -0.69963166686361       -0.60568795245360       -0.01132889892801
C           -1.38607717654283       -1.81378541875904       -0.01120561994353
C           -1.50109710089801        0.66739092397275       -0.00279816865683
F           -1.57236341814544        1.22789777875376        1.22371929235911
F           -1.02919386830449        1.61937489177300       -0.82713558612307
F           -2.77613458540146        0.47072868752308       -0.37802707530898
C            1.50123017292811        0.66710947091731        0.00292657762776
F            1.02955900351727        1.61901400228756        0.82749574188664
F            2.77626429924395        0.47015330435742        0.37800660450018
F            1.57248968934510        1.22784094517766       -1.22348450553460
H           -1.23869439803433       -3.94113665454815       -0.00572652001054
H            1.23794838134600       -3.94137650938318        0.00542427860402
H            2.46377535002556       -1.80933890445501        0.02211633201143
H           -2.46410831664914       -1.80885910124566       -0.02223929704063
18
 energy: -47.579964941746 gnorm: 0.000053996773 xtb: 6.7.1 (edcfbbe)
C           -0.69197934917047       -3.01271260364714       -0.00450224982353
C            0.69141454416465       -3.01284464713580        0.00425838650059
C            1.38575797455579       -1.81408318520754        0.01185785509533
C            0.69954724311492       -0.60584862325347        0.01155781713705
C           -0.69965319771593       -0.60571426992621       -0.01156281362502
C           -1.38609426796153       -1.81381812087459       -0.01198277123392
C           -1.50098001907528        0.66740872540538       -0.00264274752298
F           -1.57119634824639        1.22803521521968        1.22386015766262
F           -1.02953293702858        1.61926731663933       -0.82739236775434
F           -2.77628956894668        0.47088801625380       -0.37689621950147
C            1.50111074765467        0.66712653895622        0.00278412361047
F            1.02986505743005        1.61894983917704        0.82769293401698
F            2.77639725860335        0.47031876625218        0.37696261278180
F            1.57138549010501        1.22791926353326       -1.22363751931639
H           -1.23875613155036       -3.94115434837426       -0.00656117428409
H            1.23801455356979       -3.94139068370405        0.00622641153094
H            2.46379202744392       -1.80942452281512        0.02321628010268
H           -2.46412744948578       -1.80895245786025       -0.02333960188997
