11
 energy: -268.357309287854 gnorm: 0.035264014261 xtb: 6.7.1 (edcfbbe)
C            1.68671994044743       -1.06778067917316        0.16921008687498
C            1.03845440656017        0.25653674501368       -0.21984995429742
C           -0.45901569920340        0.34139541085128       -0.04113085611823
O           -1.04985349886522        1.40062903192066       -0.07385918993273
O           -1.13821836900437       -0.78388725144736        0.14165692406277
H            2.76593166472566       -0.96672291152838        0.09460477504192
H            1.44894631064207       -1.33256267809049        1.19695942593040
H            1.39046418961615       -1.87314078073004       -0.49893091442109
H            1.46434210874889        1.08126345727914        0.35426782505699
H            1.23233839304608        0.48024227531281       -1.27225277896377
H           -0.57377595955426       -1.58007466650017        0.14272423886324
11
 energy: -268.357998614374 gnorm: 0.015869727304 xtb: 6.7.1 (edcfbbe)
C            1.69417385976343       -1.06759221110737        0.16869954679586
C            1.03841116537935        0.25501507102608       -0.21628489316379
C           -0.45884499088210        0.34571984074934       -0.04366458257709
O           -1.06067493954625        1.40603443825396       -0.07994144683871
O           -1.14900699087674       -0.78624744711183        0.13751074334646
H            2.77888226015452       -0.97403891832559        0.09026435281181
H            1.45844140202726       -1.34103537088062        1.20049411572390
H            1.39134168810660       -1.88076076523650       -0.49704784499420
H            1.46018566717551        1.08458849573491        0.35778034648312
H            1.22925464544316        0.48488053827663       -1.27125914194206
H           -0.57583038509150       -1.57066585915621        0.14684842723955
11
 energy: -268.358191683079 gnorm: 0.005653323244 xtb: 6.7.1 (edcfbbe)
C            1.69341663167372       -1.06773056869968        0.16859680546270
C            1.03971600977788        0.25577354382274       -0.21256650607718
C           -0.45569708666730        0.34799190935915       -0.04613908623833
O           -1.06646551592799        1.40462816863616       -0.08753986425483
O           -1.15488707036668       -0.79066997514298        0.13325191547574
H            2.78020906032115       -0.97841609706842        0.08245061938254
H            1.46510220795906       -1.34648492781254        1.20352023276834
H            1.38459154726185       -1.88523408260155       -0.49408879488737
H            1.45920431063698        1.08767138985277        0.36202514643668
H            1.22933497791519        0.49147945412608       -1.26839790037030
H           -0.56819178837785       -1.56311095017374        0.15228718706791
11
 energy: -268.358223114301 gnorm: 0.002913663859 xtb: 6.7.1 (edcfbbe)
C            1.69304039951829       -1.06788858824737        0.16817892884204
C            1.03913807764120        0.25519493354935       -0.21058368064046
C           -0.45567457802143        0.34882733371842       -0.04897089253649
O           -1.06746389816474        1.40340689025554       -0.09207049668819
O           -1.15688847982289       -0.79218134888012        0.13242347850860
H            2.77919502487442       -0.97995760592631        0.07763697129568
H            1.46841982916856       -1.34597822420701        1.20370618157786
H            1.38109028054652       -1.88445397848291       -0.49363740938033
H            1.45840556663006        1.08592586129025        0.36584411433402
H            1.23142658300096        0.49343780620257       -1.26532142581688
H           -0.56435559330302       -1.56043518688949        0.15619409202893
11
 energy: -268.358233246597 gnorm: 0.001295503815 xtb: 6.7.1 (edcfbbe)
C            1.69191331944103       -1.06840022185057        0.16750356101340
C            1.03880307521944        0.25530645393094       -0.20880848263869
C           -0.45544185302831        0.34976776817290       -0.04981229783803
O           -1.06806978154495        1.40203375758759       -0.09923431687011
O           -1.15761608437890       -0.79386095471032        0.13184585328124
H            2.77707050448092       -0.98118901295706        0.07177378851309
H            1.47194533749755       -1.34529078598536        1.20370462126868
H            1.37685153725946       -1.88377914107427       -0.49322059818956
H            1.45733174224210        1.08404558211082        0.37076594592179
H            1.23443372885115        0.49649125593989       -1.26200128976418
H           -0.56088840431251       -1.55922676285535        0.16088322062380
11
 energy: -268.358236541962 gnorm: 0.001558706490 xtb: 6.7.1 (edcfbbe)
C            1.69137381244818       -1.06892901106225        0.16667108008076
C            1.03876627102050        0.25576023676745       -0.20786335308581
C           -0.45614720718273        0.34962039758062       -0.05403184564788
O           -1.06840374945458        1.40126384291336       -0.10512253930187
O           -1.15705560808927       -0.79434931257937        0.13447510015952
H            2.77593741282889       -0.98215891959963        0.06740841610907
H            1.47447114162089       -1.34519276318153        1.20327911415066
H            1.37397050217202       -1.88327200448562       -0.49354275154663
H            1.45576634507107        1.08230505272221        0.37591028625188
H            1.23781098404498        0.50022804642189       -1.25936167857613
H           -0.56015687532430       -1.55937758940234        0.16557834630114
11
 energy: -268.358243605498 gnorm: 0.001564414690 xtb: 6.7.1 (edcfbbe)
C            1.69156131176860       -1.06944578809636        0.16546967805059
C            1.03889145790164        0.25627892670908       -0.20644248714202
C           -0.45675772063395        0.34953632261483       -0.05481403222398
O           -1.06959606348873        1.40043766648409       -0.11434473694286
O           -1.15662603194599       -0.79426170663511        0.13639883251096
H            2.77588246274846       -0.98362316894122        0.06255702005555
H            1.47760274718726       -1.34566324926012        1.20262957349519
H            1.37104496808046       -1.88300029114979       -0.49419435168576
H            1.45414503014268        1.08071615052236        0.38164036125796
H            1.24073570109159        0.50454408140576       -1.25639559154931
H           -0.56055095031744       -1.55962093843663        0.17089611159099
11
 energy: -268.358250944740 gnorm: 0.001087844667 xtb: 6.7.1 (edcfbbe)
C            1.69172078770201       -1.07043901694892        0.16230708374217
C            1.03958266454415        0.25750201681855       -0.20334756533052
C           -0.45763141172684        0.34828804468691       -0.05906130512933
O           -1.07253533915894        1.39791448853617       -0.13540128978325
O           -1.15585428495467       -0.79344116292413        0.14250606527427
H            2.77599607635806       -0.98715416057938        0.05250941639847
H            1.48366539030278       -1.34847570754205        1.20060075459116
H            1.36479882967855       -1.88268887884432       -0.49666082336729
H            1.44974985059129        1.07765031708989        0.39488038734140
H            1.24762213064466        0.51573671368143       -1.24982940971338
H           -0.56078207181599       -1.55899455661375        0.18489761512625
11
 energy: -268.358254018926 gnorm: 0.000605149279 xtb: 6.7.1 (edcfbbe)
C            1.69173909234021       -1.07086188503743        0.16034091145160
C            1.03961881144775        0.25757763281251       -0.20178748926161
C           -0.45782751447926        0.34764803111493       -0.06213484215100
O           -1.07346631304638        1.39620753497368       -0.14614091375208
O           -1.15604809793100       -0.79277318273747        0.14619666909994
H            2.77575061222496       -0.98851892359076        0.04847283567635
H            1.48576703548225       -1.35051404920783        1.19858017964452
H            1.36283611814680       -1.88182750113307       -0.49913864190323
H            1.44714156332552        1.07542805830576        0.40142920569124
H            1.25105134507964        0.52117866255110       -1.24614842993556
H           -0.56023019879489       -1.55764622403364        0.19373179561682
11
 energy: -268.358254018926 gnorm: 0.000605149279 xtb: 6.7.1 (edcfbbe)
C            1.69173909234021       -1.07086188503743        0.16034091145160
C            1.03961881144775        0.25757763281251       -0.20178748926161
C           -0.45782751447926        0.34764803111493       -0.06213484215100
O           -1.07346631304638        1.39620753497368       -0.14614091375208
O           -1.15604809793100       -0.79277318273747        0.14619666909994
H            2.77575061222496       -0.98851892359076        0.04847283567635
H            1.48576703548225       -1.35051404920783        1.19858017964452
H            1.36283611814680       -1.88182750113307       -0.49913864190323
H            1.44714156332552        1.07542805830576        0.40142920569124
H            1.25105134507964        0.52117866255110       -1.24614842993556
H           -0.56023019879489       -1.55764622403364        0.19373179561682
