      -----------------------------------------------------------      
     |                   =====================                   |     
     |                           x T B                           |     
     |                   =====================                   |     
     |                         S. Grimme                         |     
     |          Mulliken Center for Theoretical Chemistry        |     
     |                    University of Bonn                     |     
      -----------------------------------------------------------      

   * xtb version 6.7.1 (edcfbbe) compiled by 'albert@albert-system' on 2024-07-22

   xtb is free software: you can redistribute it and/or modify it under
   the terms of the GNU Lesser General Public License as published by
   the Free Software Foundation, either version 3 of the License, or
   (at your option) any later version.
   
   xtb is distributed in the hope that it will be useful,
   but WITHOUT ANY WARRANTY; without even the implied warranty of
   MERCHANTABILITY or FITNESS FOR A PARTICULAR PURPOSE.  See the
   GNU Lesser General Public License for more details.
   
   Cite this work as:
   * C. Bannwarth, E. Caldeweyher, S. Ehlert, A. Hansen, P. Pracht,
     J. Seibert, S. Spicher, S. Grimme, WIREs Comput. Mol. Sci., 2020, 11,
     e01493. DOI: 10.1002/wcms.1493
   
   for GFN2-xTB:
   * C. Bannwarth, S. Ehlert and S. Grimme., J. Chem. Theory Comput., 2019,
     15, 1652-1671. DOI: 10.1021/acs.jctc.8b01176
   for GFN1-xTB:
   * S. Grimme, C. Bannwarth, P. Shushkov, J. Chem. Theory Comput., 2017,
     13, 1989-2009. DOI: 10.1021/acs.jctc.7b00118
   for GFN0-xTB:
   * P. Pracht, E. Caldeweyher, S. Ehlert, S. Grimme, ChemRxiv, 2019, preprint.
     DOI: 10.26434/chemrxiv.8326202.v1
   for GFN-FF:
   * S. Spicher and S. Grimme, Angew. Chem. Int. Ed., 2020, 59, 15665-15673.
     DOI: 10.1002/anie.202004239
   
   for ALPB and GBSA implicit solvation:
   * S. Ehlert, M. Stahn, S. Spicher, S. Grimme, J. Chem. Theory Comput.,
     2021, 17, 4250-4261. DOI: 10.1021/acs.jctc.1c00471
   
   for ddCOSMO and CPCM-X implicit solvation:
   * M. Stahn, S. Ehlert, S. Grimme, J. Phys. Chem. A,
     2023, XX, XXXX-XXXX. DOI: 10.1021/acs.jpca.3c04382
   
   for DFT-D4:
   * E. Caldeweyher, C. Bannwarth and S. Grimme, J. Chem. Phys., 2017,
     147, 034112. DOI: 10.1063/1.4993215
   * E. Caldeweyher, S. Ehlert, A. Hansen, H. Neugebauer, S. Spicher,
     C. Bannwarth and S. Grimme, J. Chem. Phys., 2019, 150, 154122.
     DOI: 10.1063/1.5090222
   * E. Caldeweyher, J.-M. Mewes, S. Ehlert and S. Grimme, Phys. Chem. Chem. Phys.
     2020, 22, 8499-8512. DOI: 10.1039/D0CP00502A
   
   for sTDA-xTB:
   * S. Grimme and C. Bannwarth, J. Chem. Phys., 2016, 145, 054103.
     DOI: 10.1063/1.4959605
   
   in the mass-spec context:
   * V. Asgeirsson, C. Bauer and S. Grimme, Chem. Sci., 2017, 8, 4879.
     DOI: 10.1039/c7sc00601b
   * J. Koopman and S. Grimme, ACS Omega 2019, 4, 12, 15120-15133.
     DOI: 10.1021/acsomega.9b02011
   
   for metadynamics refer to:
   * S. Grimme, J. Chem. Theory Comput., 2019, 155, 2847-2862
     DOI: 10.1021/acs.jctc.9b00143
   
   for SPH calculations refer to:
   * S. Spicher and S. Grimme, J. Chem. Theory Comput., 2021, 17, 1701-1714
     DOI: 10.1021/acs.jctc.0c01306
   
   for ONIOM refer to:
   * C. Plett, A. Katbashev, S. Ehlert, S. Grimme, M. Bursch,
     Phys. Chem. Chem. Phys., 2023, 25, 17860-17868. DOI: 10.1039/D3CP02178E
   
   for DIPRO refer to:
   * J. Kohn, N. Gildemeister, S. Grimme, D. Fazzi, A. Hansen,
     J. Chem. Phys., 2023, just accepted.
   
   for PTB refer to:
   * S. Grimme, M. Mueller, A. Hansen, J. Chem. Phys., 2023, 158, 124111.
     DOI: 10.1063/5.0137838
   
   with help from (in alphabetical order)
   P. Atkinson, C. Bannwarth, F. Bohle, G. Brandenburg, E. Caldeweyher
   M. Checinski, S. Dohm, S. Ehlert, S. Ehrlich, I. Gerasimov, C. Hölzer
   A. Katbashev, J. Kohn, J. Koopman, C. Lavigne, S. Lehtola, F. März, M. Müller,
   F. Musil, H. Neugebauer, J. Pisarek, C. Plett, P. Pracht, F. Pultar,
   J. Seibert, P. Shushkov, S. Spicher, M. Stahn, M. Steiner, T. Strunk,
   J. Stückrath, T. Rose, and J. Unsleber
   
 * started run on 2025/04/03 at 21:00:21.771     
   ID    Z sym.   atoms
    1    6 C      1-10
    2    8 O      11
    3    1 H      12-25

           -------------------------------------------------
          |                Calculation Setup                |
           -------------------------------------------------

          program call               : /srv/scratch/z5358697/.xtb/bin/xtb gas.coord --gfn2 --sp --chrg 0 --norestart --parallel 1
          hostname                   : k148
          coordinate file            : gas.coord
          omp threads                :                     1


           -------------------------------------------------
          |                 G F N 2 - x T B                 |
           -------------------------------------------------

        Reference                      10.1021/acs.jctc.8b01176
      * Hamiltonian:
        H0-scaling (s, p, d)           1.850000    2.230000    2.230000
        zeta-weighting                 0.500000
      * Dispersion:
        s8                             2.700000
        a1                             0.520000
        a2                             5.000000
        s9                             5.000000
      * Repulsion:
        kExp                           1.500000    1.000000
        rExp                           1.000000
      * Coulomb:
        alpha                          2.000000
        third order                    shell-resolved
        anisotropic                    true
        a3                             3.000000
        a5                             4.000000
        cn-shift                       1.200000
        cn-exp                         4.000000
        max-rad                        5.000000


          ...................................................
          :                      SETUP                      :
          :.................................................:
          :  # basis functions                  58          :
          :  # atomic orbitals                  58          :
          :  # shells                           36          :
          :  # electrons                        60          :
          :  max. iterations                   250          :
          :  Hamiltonian                  GFN2-xTB          :
          :  restarted?                      false          :
          :  GBSA solvation                  false          :
          :  PC potential                    false          :
          :  electronic temp.          300.0000000     K    :
          :  accuracy                    1.0000000          :
          :  -> integral cutoff          0.2500000E+02      :
          :  -> integral neglect         0.1000000E-07      :
          :  -> SCF convergence          0.1000000E-05 Eh   :
          :  -> wf. convergence          0.1000000E-03 e    :
          :  Broyden damping             0.4000000          :
          :  net charge                          0          :
          :  unpaired electrons                  0          :
          ...................................................

 iter      E             dE          RMSdq      gap      omega  full diag
   1    -33.0989703 -0.330990E+02  0.367E+00    4.13       0.0  T
   2    -33.1293380 -0.303677E-01  0.218E+00    4.26       1.0  T
   3    -33.1273000  0.203802E-02  0.813E-01    4.14       1.0  T
   4    -33.1320643 -0.476435E-02  0.280E-01    4.26       1.0  T
   5    -33.1327297 -0.665402E-03  0.782E-02    4.26       1.0  T
   6    -33.1327573 -0.276083E-04  0.417E-02    4.24       1.0  T
   7    -33.1327687 -0.113731E-04  0.125E-02    4.25       1.6  T
   8    -33.1327692 -0.498966E-06  0.456E-03    4.24       4.4  T
   9    -33.1327694 -0.189981E-06  0.178E-03    4.24      11.2  T
  10    -33.1327694 -0.186868E-07  0.760E-04    4.24      26.3  T
  11    -33.1327694 -0.548881E-08  0.310E-04    4.24      64.5  T

   *** convergence criteria satisfied after 11 iterations ***

         #    Occupation            Energy/Eh            Energy/eV
      -------------------------------------------------------------
         1        2.0000           -0.7045215             -19.1710
       ...           ...                  ...                  ...
        24        2.0000           -0.4478142             -12.1856
        25        2.0000           -0.4350227             -11.8376
        26        2.0000           -0.4305591             -11.7161
        27        2.0000           -0.4163426             -11.3293
        28        2.0000           -0.4093385             -11.1387
        29        2.0000           -0.3986570             -10.8480
        30        2.0000           -0.3731244             -10.1532 (HOMO)
        31                         -0.2171278              -5.9083 (LUMO)
        32                         -0.2071207              -5.6360
        33                         -0.0844502              -2.2980
        34                          0.0613208               1.6686
        35                          0.0784809               2.1356
       ...                                ...                  ...
        58                          0.6694214              18.2159
      -------------------------------------------------------------
                  HL-Gap            0.1559966 Eh            4.2449 eV
             Fermi-level           -0.2951261 Eh           -8.0308 eV

 SCC (total)                   0 d,  0 h,  0 min,  0.017 sec
 SCC setup                      ...        0 min,  0.000 sec (  1.082%)
 Dispersion                     ...        0 min,  0.000 sec (  0.911%)
 classical contributions        ...        0 min,  0.000 sec (  0.171%)
 integral evaluation            ...        0 min,  0.002 sec ( 13.474%)
 iterations                     ...        0 min,  0.008 sec ( 46.465%)
 molecular gradient             ...        0 min,  0.006 sec ( 36.928%)
 printout                       ...        0 min,  0.000 sec (  0.871%)

         :::::::::::::::::::::::::::::::::::::::::::::::::::::
         ::                     SUMMARY                     ::
         :::::::::::::::::::::::::::::::::::::::::::::::::::::
         :: total energy             -32.619377006496 Eh    ::
         :: gradient norm              0.005377556769 Eh/a0 ::
         :: HOMO-LUMO gap              4.244882511790 eV    ::
         ::.................................................::
         :: SCC energy               -33.132645289277 Eh    ::
         :: -> isotropic ES            0.024385796626 Eh    ::
         :: -> anisotropic ES          0.007775446141 Eh    ::
         :: -> anisotropic XC          0.015107510687 Eh    ::
         :: -> dispersion             -0.021389919714 Eh    ::
         :: repulsion energy           0.513268282780 Eh    ::
         :: add. restraining           0.000000000000 Eh    ::
         :: total charge              -0.000000000000 e     ::
         :::::::::::::::::::::::::::::::::::::::::::::::::::::

           -------------------------------------------------
          |                Property Printout                |
           -------------------------------------------------

    * Orbital Energies and Occupations

         #    Occupation            Energy/Eh            Energy/eV
      -------------------------------------------------------------
         1        2.0000           -0.7045215             -19.1710
       ...           ...                  ...                  ...
        18        2.0000           -0.4746013             -12.9146
        19        2.0000           -0.4719209             -12.8416
        20        2.0000           -0.4680844             -12.7372
        21        2.0000           -0.4609226             -12.5423
        22        2.0000           -0.4527985             -12.3213
        23        2.0000           -0.4502117             -12.2509
        24        2.0000           -0.4478142             -12.1856
        25        2.0000           -0.4350227             -11.8376
        26        2.0000           -0.4305591             -11.7161
        27        2.0000           -0.4163426             -11.3293
        28        2.0000           -0.4093385             -11.1387
        29        2.0000           -0.3986570             -10.8480
        30        2.0000           -0.3731244             -10.1532 (HOMO)
        31                         -0.2171278              -5.9083 (LUMO)
        32                         -0.2071207              -5.6360
        33                         -0.0844502              -2.2980
        34                          0.0613208               1.6686
        35                          0.0784809               2.1356
        36                          0.0944649               2.5705
        37                          0.1010737               2.7504
        38                          0.1144304               3.1138
        39                          0.1328196               3.6142
        40                          0.1466261               3.9899
        41                          0.1682853               4.5793
       ...                                ...                  ...
        58                          0.6694214              18.2159
      -------------------------------------------------------------
                  HL-Gap            0.1559966 Eh            4.2449 eV
             Fermi-level           -0.2951261 Eh           -8.0308 eV

     #   Z          covCN         q      C6AA      α(0)
     1   6 C        3.762    -0.106    22.577     6.773
     2   6 C        3.902     0.026    20.085     6.370
     3   6 C        3.761    -0.108    22.606     6.778
     4   6 C        3.762    -0.106    22.577     6.773
     5   6 C        2.972    -0.002    28.073     8.691
     6   6 C        2.929    -0.036    28.892     8.815
     7   6 C        2.918    -0.056    29.388     8.890
     8   6 C        2.846     0.142    24.911     8.180
     9   6 C        2.918    -0.073    29.823     8.955
    10   6 C        2.926    -0.041    29.010     8.833
    11   8 O        1.659    -0.397    20.783     6.154
    12   1 H        0.925     0.037     2.491     2.468
    13   1 H        0.925     0.037     2.492     2.469
    14   1 H        0.925     0.034     2.535     2.490
    15   1 H        0.925     0.035     2.510     2.477
    16   1 H        0.925     0.036     2.502     2.474
    17   1 H        0.925     0.035     2.510     2.477
    18   1 H        0.925     0.037     2.492     2.469
    19   1 H        0.925     0.037     2.491     2.468
    20   1 H        0.925     0.034     2.535     2.490
    21   1 H        0.926     0.035     2.523     2.484
    22   1 H        0.926     0.046     2.375     2.410
    23   1 H        0.926     0.022     2.700     2.570
    24   1 H        0.926     0.038     2.478     2.461
    25   1 H        0.804     0.295     0.735     1.347

 Mol. C6AA /au·bohr⁶  :       5858.830738
 Mol. C8AA /au·bohr⁸  :     134629.089641
 Mol. α(0) /au        :        118.766588


Wiberg/Mayer (AO) data.
largest (>0.10) Wiberg bond orders for each atom

 ---------------------------------------------------------------------------
     #   Z sym  total        # sym  WBO       # sym  WBO       # sym  WBO
 ---------------------------------------------------------------------------
     1   6 C    3.995 --     2 C    0.988    14 H    0.987    13 H    0.985
                            12 H    0.984
     2   6 C    3.992 --     3 C    1.000     4 C    0.988     1 C    0.988
                             5 C    0.984
     3   6 C    3.996 --     2 C    1.000    17 H    0.985    15 H    0.985
                            16 H    0.985
     4   6 C    3.995 --     2 C    0.988    20 H    0.987    18 H    0.985
                            19 H    0.984
     5   6 C    3.987 --    10 C    1.422     6 C    1.395     2 C    0.984
     6   6 C    3.992 --     7 C    1.469     5 C    1.395    21 H    0.965
                             9 C    0.106
     7   6 C    3.988 --     6 C    1.469     8 C    1.357    22 H    0.968
                            10 C    0.107
     8   6 C    3.936 --     9 C    1.383     7 C    1.357    11 O    1.064
     9   6 C    3.986 --    10 C    1.437     8 C    1.383    23 H    0.967
                             6 C    0.106
    10   6 C    3.992 --     9 C    1.437     5 C    1.422    24 H    0.966
                             7 C    0.107
    11   8 O    2.112 --     8 C    1.064    25 H    0.892
    12   1 H    0.999 --     1 C    0.984
    13   1 H    0.998 --     1 C    0.985
    14   1 H    0.999 --     1 C    0.987
    15   1 H    0.999 --     3 C    0.985
    16   1 H    0.998 --     3 C    0.985
    17   1 H    0.999 --     3 C    0.985
    18   1 H    0.998 --     4 C    0.985
    19   1 H    0.999 --     4 C    0.984
    20   1 H    0.999 --     4 C    0.987
    21   1 H    0.999 --     6 C    0.965
    22   1 H    0.997 --     7 C    0.968
    23   1 H    0.999 --     9 C    0.967
    24   1 H    0.999 --    10 C    0.966
    25   1 H    0.913 --    11 O    0.892
 ---------------------------------------------------------------------------

Topologies differ in total number of bonds
Writing topology from bond orders to xtbtopo.mol

molecular dipole:
                 x           y           z       tot (Debye)
 q only:       -0.254       0.362      -0.000
   full:       -0.199       0.584      -0.000       1.569
molecular quadrupole (traceless):
                xx          xy          yy          xz          yz          zz
 q only:        0.658       5.182       1.154      -0.002      -0.001      -1.811
  q+dip:        1.456       7.705       3.756      -0.002      -0.002      -5.213
   full:        0.681       7.763       2.317      -0.002      -0.002      -2.998


           -------------------------------------------------
          | TOTAL ENERGY              -32.619377006496 Eh   |
          | GRADIENT NORM               0.005377556769 Eh/α |
          | HOMO-LUMO GAP               4.244882511790 eV   |
           -------------------------------------------------

------------------------------------------------------------------------
 * finished run on 2025/04/03 at 21:00:21.814     
------------------------------------------------------------------------
 total:
 * wall-time:     0 d,  0 h,  0 min,  0.042 sec
 *  cpu-time:     0 d,  0 h,  0 min,  0.026 sec
 * ratio c/w:     0.616 speedup
 SCF:
 * wall-time:     0 d,  0 h,  0 min,  0.018 sec
 *  cpu-time:     0 d,  0 h,  0 min,  0.017 sec
 * ratio c/w:     0.993 speedup

