24
 energy: -687.117221488528 gnorm: 0.003505518044 xtb: 6.7.1 (edcfbbe)
C           -2.57660494914065       -0.86498157397780        0.33024184642685
C           -1.14773724375925       -0.42403575231442        0.58402450597490
H           -0.99259173410047       -0.37341209218801        1.67424300385684
C           -0.80420027364574        0.93078674565202       -0.03505779970147
H           -0.99790140071454        0.89303047820291       -1.11723371810411
C            0.66806641250139        1.24560471074184        0.19176368998127
H            0.83731158475169        1.37938689855051        1.27234616413655
C            1.54610017726370        0.10399434348049       -0.30215335709512
H            1.44531319831881        0.00447561300263       -1.39330558946926
C            1.08948393596128       -1.20240267421743        0.33970743115573
H            1.19791982613304       -1.15983849221584        1.43616588039101
O           -0.28894138663826       -1.42830639509695        0.01578776337494
O            1.84091775179103       -2.24998394218739       -0.20774864289512
O            2.89342201821637        0.41768355271993        0.05693174134278
O            0.95498703853549        2.46455167074913       -0.50234501179177
O           -1.64080306549797        1.91009083159215        0.58747936284949
O           -2.90788380017790       -0.92147458986963       -1.06258638350349
H           -3.26099280320396       -0.14752487444958        0.78846556424156
H           -2.73100962645318       -1.84322113439461        0.80402367836833
H            1.73354718922958       -3.02840604254782        0.35739817160786
H            3.47063980214614       -0.19892346100337       -0.40931552857965
H            1.85855327315716        2.72031494562574       -0.27691828292624
H           -1.41662105147502        2.76542260901053        0.19762358582683
H           -2.32716941624262       -1.57894056432416       -1.46822105394031
24
 energy: -687.117241595371 gnorm: 0.001442736057 xtb: 6.7.1 (edcfbbe)
C           -2.57691648082648       -0.86484921487703        0.32935764971627
C           -1.14832568722018       -0.42404643670847        0.58499050606955
H           -0.99524832320812       -0.37245912180803        1.67580379099788
C           -0.80402702998291        0.93029094893211       -0.03492544411474
H           -0.99731785918463        0.89157520565321       -1.11707336522535
C            0.66795131707687        1.24507730751548        0.19189867724646
H            0.83791492179416        1.37908652021559        1.27232617115098
C            1.54561623281893        0.10373383197080       -0.30270142201152
H            1.44449448540535        0.00452599833011       -1.39392171229378
C            1.08972741371576       -1.20234934422568        0.33974139245707
H            1.20146034390908       -1.16038895953834        1.43604160634199
O           -0.28923940745971       -1.42917907595823        0.01869120179504
O            1.83978283726267       -2.25121772841584       -0.20972046907247
O            2.89312044665480        0.41761189713716        0.05656120335806
O            0.95388973426924        2.46441948266753       -0.50296237375337
O           -1.64081240917324        1.91035633316960        0.58670296561613
O           -2.90809879827763       -0.91949446470365       -1.06343524991341
H           -3.26180292368399       -0.14823539764405        0.78867431953235
H           -2.73143084278541       -1.84355680788742        0.80309139477194
H            1.73876508892075       -3.02656782925943        0.35962077288304
H            3.47129260555052       -0.20097391714516       -0.40829534525037
H            1.85732838862613        2.72211280419071       -0.27737729804745
H           -1.41472753165189        2.76632029118258        0.19893819095206
H           -2.32959105474061       -1.57790142545975       -1.47071027346306
24
 energy: -687.117265504606 gnorm: 0.002825053544 xtb: 6.7.1 (edcfbbe)
C           -2.57850546147720       -0.86421467174607        0.32684653843437
C           -1.15047467728040       -0.42404985363459        0.58801071633904
H           -1.00386719214977       -0.36899507026465        1.68014541511377
C           -0.80364531846467        0.92856720210377       -0.03458944351292
H           -0.99612109803473        0.88674769052316       -1.11661447643117
C            0.66746368227490        1.24366205668990        0.19157683102767
H            0.83997277348347        1.37879446712638        1.27133864113083
C            1.54384195390873        0.10270692729252       -0.30457757418094
H            1.44186054374836        0.00420642893335       -1.39585683208334
C            1.09013865282258       -1.20258554788677        0.33953208705334
H            1.21310946106940       -1.16271104009830        1.43485863909171
O           -0.29031706000487       -1.43186150447152        0.02813620579652
O            1.83617563632815       -2.25401854965179       -0.21662676632696
O            2.89229716844456        0.41630790217822        0.05422602430071
O            0.95054261722944        2.46407189905281       -0.50538756183818
O           -1.64115303377341        1.91062614910036        0.58399042530567
O           -2.90873884000393       -0.91141945423203       -1.06558565415334
H           -3.26487768118729       -0.15072630520612        0.78982570955838
H           -2.73341495041118       -1.84522499037493        0.79737861962057
H            1.76054743722513       -3.01924573065280        0.36944713990431
H            3.47119889348355       -0.20950045660375       -0.40360973397282
H            1.85233364124466        2.72806958676563       -0.27796679447877
H           -1.40651533590229        2.76838516670388        0.20444723237220
H           -2.33804636710472       -1.57370105235923       -1.47762895209130
24
 energy: -687.117272671159 gnorm: 0.001794911824 xtb: 6.7.1 (edcfbbe)
C           -2.57864258081734       -0.86401376704375        0.32664234985161
C           -1.15053480766449       -0.42399776548556        0.58817934783470
H           -1.00388293740450       -0.36874917193009        1.68009959837126
C           -0.80389565812994        0.92845784217794       -0.03469138684837
H           -0.99642338726525        0.88643164912135       -1.11674960193941
C            0.66724600540286        1.24367344683357        0.19117737957767
H            0.83993216243070        1.37904952462507        1.27084823880974
C            1.54337511910640        0.10248387449243       -0.30485902473924
H            1.44116927065316        0.00378293695245       -1.39606939467183
C            1.09002336161437       -1.20296460632372        0.33943376600783
H            1.21341820293433       -1.16299962812340        1.43453399993389
O           -0.29043727019149       -1.43207270957727        0.02868784365070
O            1.83575188202815       -2.25393744254294       -0.21699851369188
O            2.89193769146405        0.41577747663865        0.05331425662093
O            0.95023177489060        2.46388223991899       -0.50589399322974
O           -1.64134609505582        1.91056224578580        0.58359154438537
O           -2.90882970637530       -0.90975362260320       -1.06577415460892
H           -3.26488826152236       -0.15102620277831        0.79031130991541
H           -2.73342207821097       -1.84559275433466        0.79555444140566
H            1.76560531489988       -3.01763432380077        0.37186103568462
H            3.46970751135047       -0.21146502556271       -0.40269859379394
H            1.85121255153148        2.72858431382901       -0.27714080471709
H           -1.40427183027466        2.76830873407282        0.20577652480128
H           -2.33923083983118       -1.57289594272789       -1.47781976717750
24
 energy: -687.117266722465 gnorm: 0.004578896851 xtb: 6.7.1 (edcfbbe)
C           -2.58033275520669       -0.86281323501707        0.32505982710386
C           -1.15147850025652       -0.42418041407444        0.58877837313597
H           -1.00496574719979       -0.36713944299372        1.67966428877933
C           -0.80555485316158        0.92714969081048       -0.03599863456412
H           -0.99848194625932        0.88318823387640       -1.11819215237633
C            0.66565358768659        1.24347737884655        0.18785096185512
H            0.83970000833698        1.38053254219929        1.26701544293139
C            1.53968825148647        0.10089314736657       -0.30813035421366
H            1.43512603041040        0.00009555499145       -1.39890704962065
C            1.08842489598492       -1.20527885044950        0.33809002688491
H            1.21558404474260       -1.16391319137567        1.43191703068656
O           -0.29223314999834       -1.43439198516188        0.03198390813837
O            1.83266899743277       -2.25406027877311       -0.21973202303944
O            2.88934488098430        0.41200140272745        0.04522035062383
O            0.94764004511413        2.46232127473427       -0.51052001623504
O           -1.64297161103609        1.90981514856308        0.57995545726175
O           -2.91029801004800       -0.89553268525994       -1.06764553662073
H           -3.26559151493128       -0.15397594351937        0.79531246623415
H           -2.73394229767942       -1.84896774201978        0.78220143015256
H            1.80924258931890       -3.00379541518226        0.39367478483835
H            3.45990690560277       -0.22976230839272       -0.39444408116556
H            1.84192710089109        2.73525336143736       -0.26954721721521
H           -1.38504986653857        2.76875691457446        0.21860135854474
H           -2.35020216753663       -1.56578126405318       -1.48089238770537
24
 energy: -687.117283319265 gnorm: 0.001680905004 xtb: 6.7.1 (edcfbbe)
C           -2.57968870462131       -0.86331011042309        0.32584979492077
C           -1.15091462376192       -0.42428335986075        0.58779709939926
H           -1.00340880651471       -0.36825931673953        1.67894748891467
C           -0.80502539735655        0.92764752418831       -0.03598605167609
H           -0.99795069730726        0.88459050921772       -1.11811536711871
C            0.66625259704464        1.24366392476842        0.18852054398563
H            0.83956484411747        1.37998869064953        1.26793620532476
C            1.54110103862039        0.10149422982548       -0.30723999668937
H            1.43694232150130        0.00109927882777       -1.39813665842040
C            1.08886864598075       -1.20435564334774        0.33857867269082
H            1.21289745672195       -1.16296767973860        1.43306050414532
O           -0.29147871704526       -1.43331996788875        0.02910817761366
O            1.83440804022715       -2.25387613356815       -0.21733334781248
O            2.89036064973171        0.41342601030166        0.04731971396925
O            0.94868890376814        2.46290255795584       -0.50919757957281
O           -1.64239915257366        1.90994087731053        0.58111073591714
O           -2.91046976906000       -0.90068171545603       -1.06675410466591
H           -3.26509472495406       -0.15309005472858        0.79415706212222
H           -2.73339296311588       -1.84786898173778        0.78703698401314
H            1.79441309005624       -3.00825356202429        0.38639913080849
H            3.46298342794262       -0.22468320157944       -0.39657016217193
H            1.84463734384144        2.73377355024092       -0.27093365966982
H           -1.39072228075496        2.76854654996449        0.21522312735971
H           -2.34676750885005       -1.56823232061833       -1.47946188493804
24
 energy: -687.117286214966 gnorm: 0.000382594175 xtb: 6.7.1 (edcfbbe)
C           -2.57933775380751       -0.86370434229044        0.32628403668779
C           -1.15064301620690       -0.42451065275653        0.58663029062034
H           -1.00229318875135       -0.36947976419806        1.67813182668381
C           -0.80459370174090        0.92791405224921       -0.03632746312263
H           -0.99742320923035        0.88567152407117       -1.11841257453353
C            0.66673209295042        1.24350563644604        0.18878258915862
H            0.83961552933787        1.37902456308236        1.26838618837515
C            1.54209694004065        0.10178149014176       -0.30729745862794
H            1.43782516748231        0.00180991440194       -1.39828280136389
C            1.08900902761990       -1.20350187858647        0.33846735359858
H            1.21063818209642       -1.16178021833943        1.43354427518437
O           -0.29119284918807       -1.43266714445997        0.02630458672146
O            1.83559159128453       -2.25398577262025       -0.21565558534642
O            2.89103707979229        0.41452784325824        0.04815135650361
O            0.94928732047465        2.46333242512393       -0.50829163592858
O           -1.64182730789064        1.91005755582112        0.58177321258755
O           -2.91163871334473       -0.90463445858226       -1.06610111612183
H           -3.26474606419975       -0.15245520014804        0.79351063902036
H           -2.73305430754445       -1.84702758653874        0.79106337831239
H            1.78608729023677       -3.01086587734583        0.38375413337741
H            3.46552376061907       -0.22233492718764       -0.39739223249483
H            1.84589057108207        2.73406462224664       -0.27068165629452
H           -1.39350718731277        2.76896168907296        0.21413854403899
H           -2.34527221292276       -1.56981204521119       -1.47916319020047
24
 energy: -687.117286214966 gnorm: 0.000382594175 xtb: 6.7.1 (edcfbbe)
C           -2.57933775380751       -0.86370434229044        0.32628403668779
C           -1.15064301620690       -0.42451065275653        0.58663029062034
H           -1.00229318875135       -0.36947976419806        1.67813182668381
C           -0.80459370174090        0.92791405224921       -0.03632746312263
H           -0.99742320923035        0.88567152407117       -1.11841257453353
C            0.66673209295042        1.24350563644604        0.18878258915862
H            0.83961552933787        1.37902456308236        1.26838618837515
C            1.54209694004065        0.10178149014176       -0.30729745862794
H            1.43782516748231        0.00180991440194       -1.39828280136389
C            1.08900902761990       -1.20350187858647        0.33846735359858
H            1.21063818209642       -1.16178021833943        1.43354427518437
O           -0.29119284918807       -1.43266714445997        0.02630458672146
O            1.83559159128453       -2.25398577262025       -0.21565558534642
O            2.89103707979229        0.41452784325824        0.04815135650361
O            0.94928732047465        2.46333242512393       -0.50829163592858
O           -1.64182730789064        1.91005755582112        0.58177321258755
O           -2.91163871334473       -0.90463445858226       -1.06610111612183
H           -3.26474606419975       -0.15245520014804        0.79351063902036
H           -2.73305430754445       -1.84702758653874        0.79106337831239
H            1.78608729023677       -3.01086587734583        0.38375413337741
H            3.46552376061907       -0.22233492718764       -0.39739223249483
H            1.84589057108207        2.73406462224664       -0.27068165629452
H           -1.39350718731277        2.76896168907296        0.21413854403899
H           -2.34527221292276       -1.56981204521119       -1.47916319020047
