 Entering Gaussian System
 *********************************************
 Gaussian 98:
 frequency output generated by the xtb code
 *********************************************
                         Standard orientation:
 --------------------------------------------------------------------
  Center     Atomic     Atomic              Coordinates (Angstroms)
  Number     Number      Type              X           Y           Z
 --------------------------------------------------------------------
    1          6             0       -3.170141   -0.019325    1.014301
    2          8             0       -1.760941    0.013411    0.777985
    3          6             0       -1.346985   -0.129390   -0.474459
    4          8             0       -2.108763   -0.284033   -1.408155
    5          6             0        0.156213   -0.075151   -0.593210
    6          6             0        0.796494   -1.199412    0.230749
    7          6             0        2.316218   -1.138137    0.112102
    8          6             0        2.835605    0.217739    0.580340
    9          6             0        2.195727    1.340199   -0.230854
   10          6             0        0.675663    1.286253   -0.113292
   11          1             0       -3.290545    0.110567    2.085110
   12          1             0       -3.581257   -0.974420    0.685378
   13          1             0       -3.659291    0.784734    0.463259
   14          1             0        0.400120   -0.209390   -1.651609
   15          1             0        0.501212   -1.083091    1.274873
   16          1             0        0.430814   -2.165919   -0.122467
   17          1             0        2.759251   -1.935149    0.710964
   18          1             0        2.604743   -1.298802   -0.928695
   19          1             0        2.594918    0.352213    1.636652
   20          1             0        3.920768    0.255832    0.474167
   21          1             0        2.552785    2.308103    0.123862
   22          1             0        2.481364    1.239675   -1.279952
   23          1             0        0.379050    1.429530    0.927136
   24          1             0        0.224142    2.081399   -0.710393
 --------------------------------------------------------------------
     1 basis functions        1 primitive gaussians
     1 alpha electrons        1 beta electrons
 
 Harmonic frequencies (cm**-1), IR intensities (km*mol⁻¹),
 Raman scattering activities (A**4/amu), Raman depolarization ratios,
 reduced masses (AMU), force constants (mDyne/A) and normal coordinates:
                      1                      2                      3
                        a                      a                      a 
 Frequencies --    24.5606                36.5598                94.7387
 Red. masses --    10.8622                 3.8116                 9.5142
 Frc consts  --     0.0000                 0.0000                 0.0000
 IR Inten    --     2.6200                 0.9206                 0.3264
 Raman Activ --     0.0000                 0.0000                 0.0000
 Depolar     --     0.0000                 0.0000                 0.0000
 Atom AN      X      Y      Z        X      Y      Z        X      Y      Z
   1   6    -0.01   0.16  -0.02     0.00  -0.11   0.01    -0.29  -0.06  -0.27
   2   8    -0.02   0.38  -0.05     0.01  -0.21   0.03    -0.27  -0.00   0.04
   3   6     0.00  -0.03   0.00    -0.00   0.02  -0.00    -0.01   0.02   0.11
   4   8     0.02  -0.57   0.07    -0.02   0.35  -0.04     0.17  -0.00  -0.02
   5   6    -0.01   0.11  -0.02     0.00  -0.04   0.01     0.00   0.04   0.27
   6   6     0.01  -0.03  -0.21    -0.00   0.00   0.06     0.04   0.07   0.27
   7   6     0.01  -0.01  -0.22    -0.00  -0.00   0.06     0.02  -0.04  -0.12
   8   6     0.00  -0.09   0.01    -0.00   0.02  -0.00     0.25  -0.04  -0.36
   9   6    -0.01   0.05   0.21     0.00  -0.02  -0.06     0.03   0.00  -0.12
  10   6    -0.01   0.03   0.21     0.00  -0.01  -0.06     0.05   0.02   0.27
  11   1    -0.01   0.28  -0.04    -0.02   0.48  -0.06    -0.16  -0.02  -0.09
  12   1     0.07  -0.06   0.22     0.08  -0.23   0.47    -0.05  -0.02  -0.11
  13   1    -0.06  -0.12  -0.19    -0.05  -0.34  -0.40    -0.06  -0.02  -0.11
  14   1    -0.00   0.08  -0.01     0.00  -0.02   0.00     0.01   0.01   0.08
  15   1     0.00  -0.06  -0.06    -0.00   0.01   0.01     0.08   0.06   0.09
  16   1     0.00   0.01  -0.11    -0.00  -0.00   0.03    -0.03   0.02   0.13
  17   1     0.00  -0.03  -0.10    -0.00   0.01   0.03     0.04  -0.01  -0.05
  18   1    -0.00   0.05  -0.07     0.00  -0.02   0.02    -0.08  -0.04  -0.05
  19   1     0.00  -0.08   0.01    -0.00   0.02  -0.00     0.19  -0.00  -0.08
  20   1     0.00  -0.02   0.00    -0.00   0.00  -0.00     0.06  -0.03  -0.22
  21   1    -0.00  -0.00   0.11     0.00  -0.00  -0.03     0.04  -0.01  -0.05
  22   1    -0.00   0.07   0.06     0.00  -0.02  -0.01    -0.08   0.02  -0.06
  23   1    -0.00  -0.04   0.07     0.00   0.01  -0.02     0.09  -0.02   0.10
  24   1    -0.00   0.04   0.10     0.00  -0.01  -0.03    -0.03   0.02   0.13
                      4                      5                      6
                        a                      a                      a 
 Frequencies --   104.9821               211.3027               227.8446
 Red. masses --     9.3246                 9.8454                 7.5278
 Frc consts  --     0.0000                 0.0000                 0.0000
 IR Inten    --     0.6755                 6.0625                 3.2641
 Raman Activ --     0.0000                 0.0000                 0.0000
 Depolar     --     0.0000                 0.0000                 0.0000
 Atom AN      X      Y      Z        X      Y      Z        X      Y      Z
   1   6     0.03  -0.51   0.07     0.27   0.05   0.28    -0.01   0.10  -0.02
   2   8    -0.01   0.24  -0.03     0.19  -0.04  -0.26     0.01  -0.29   0.04
   3   6    -0.01   0.18  -0.03     0.01  -0.04  -0.26     0.00  -0.08   0.01
   4   8     0.00  -0.13   0.02     0.05  -0.04  -0.33     0.00  -0.12   0.02
   5   6    -0.01   0.25  -0.04     0.01   0.00  -0.01    -0.00   0.03  -0.00
   6   6    -0.20   0.19   0.04    -0.15   0.09   0.23    -0.04   0.21   0.25
   7   6    -0.19  -0.08   0.10    -0.16  -0.06   0.10    -0.10   0.00  -0.29
   8   6     0.00  -0.13   0.02     0.05  -0.03  -0.20     0.01  -0.16   0.03
   9   6     0.20  -0.08  -0.07    -0.16   0.07   0.09     0.10   0.09   0.28
  10   6     0.18   0.19  -0.11    -0.14  -0.04   0.24     0.03   0.14  -0.30
  11   1     0.01  -0.20   0.03     0.20   0.02   0.10    -0.01   0.06  -0.01
  12   1     0.14  -0.20   0.00     0.02   0.02   0.14    -0.07   0.06   0.01
  13   1    -0.12  -0.21   0.05     0.03   0.02   0.14     0.07   0.06  -0.03
  14   1    -0.00   0.05  -0.01     0.08   0.01   0.02     0.00  -0.07   0.01
  15   1    -0.06   0.09   0.01    -0.03   0.11   0.06     0.09   0.19   0.09
  16   1    -0.10   0.07   0.03    -0.08   0.01   0.14    -0.10   0.04   0.21
  17   1    -0.10  -0.03   0.05    -0.05   0.01   0.06     0.02  -0.06  -0.21
  18   1    -0.05  -0.06   0.04    -0.08  -0.09   0.03    -0.14   0.10  -0.13
  19   1    -0.00  -0.01   0.00     0.14   0.00  -0.03     0.00  -0.12   0.02
  20   1     0.00  -0.09   0.02     0.00  -0.03  -0.18     0.00  -0.05   0.01
  21   1     0.10  -0.03  -0.04    -0.05   0.00   0.07    -0.01  -0.01   0.21
  22   1     0.06  -0.06  -0.02    -0.09   0.09   0.01     0.13   0.14   0.10
  23   1     0.05   0.09  -0.04    -0.02  -0.09   0.08    -0.10   0.15  -0.13
  24   1     0.10   0.07  -0.05    -0.07   0.02   0.13     0.10  -0.01  -0.22
                      7                      8                      9
                        a                      a                      a 
 Frequencies --   243.3559               294.7799               310.5382
 Red. masses --    10.6944                10.7196                10.3315
 Frc consts  --     0.0000                 0.0000                 0.0000
 IR Inten    --     7.4684                15.2250                 2.6078
 Raman Activ --     0.0000                 0.0000                 0.0000
 Depolar     --     0.0000                 0.0000                 0.0000
 Atom AN      X      Y      Z        X      Y      Z        X      Y      Z
   1   6    -0.01   0.20  -0.03     0.26  -0.05  -0.45    -0.10  -0.01  -0.01
   2   8     0.02  -0.55   0.07     0.37   0.04   0.15    -0.11  -0.01  -0.07
   3   6     0.00  -0.08   0.01     0.15   0.02   0.06    -0.18  -0.02  -0.09
   4   8     0.01  -0.23   0.03    -0.15   0.04   0.35    -0.47  -0.01   0.09
   5   6    -0.02   0.33  -0.04     0.05  -0.01  -0.10    -0.08  -0.04  -0.23
   6   6    -0.13   0.16  -0.19    -0.13  -0.01   0.03     0.08   0.12  -0.09
   7   6    -0.11  -0.01   0.15    -0.15  -0.09   0.09     0.15   0.05   0.21
   8   6     0.00  -0.00   0.00    -0.09  -0.03  -0.15     0.44   0.02  -0.02
   9   6     0.12  -0.05  -0.15    -0.16   0.10   0.06     0.15   0.02   0.22
  10   6     0.12   0.21   0.14    -0.13   0.00   0.02     0.09  -0.14  -0.06
  11   1    -0.01   0.11  -0.02    -0.08  -0.02  -0.15    -0.02  -0.00  -0.00
  12   1    -0.14   0.11   0.02     0.14  -0.02  -0.20    -0.03  -0.00  -0.00
  13   1     0.13   0.11  -0.05     0.14  -0.02  -0.20    -0.03  -0.00  -0.00
  14   1    -0.01   0.15  -0.02     0.03  -0.00  -0.02    -0.04  -0.01  -0.07
  15   1    -0.10  -0.01  -0.07    -0.06   0.04  -0.00    -0.02   0.07  -0.04
  16   1    -0.04   0.07  -0.13    -0.06  -0.00   0.02     0.07   0.01   0.00
  17   1    -0.11   0.01   0.12    -0.05   0.01   0.08    -0.04   0.03   0.14
  18   1     0.04  -0.07   0.07    -0.03  -0.10   0.04     0.09  -0.07   0.09
  19   1    -0.00   0.05  -0.01     0.05  -0.00  -0.03     0.28   0.02   0.03
  20   1     0.00  -0.04   0.01    -0.03  -0.02  -0.11     0.11  -0.02  -0.16
  21   1     0.11  -0.01  -0.12    -0.05   0.01   0.08    -0.04   0.01   0.14
  22   1    -0.03  -0.10  -0.05    -0.04   0.10   0.01     0.09   0.10   0.06
  23   1     0.10   0.02   0.06    -0.05  -0.04   0.01    -0.02  -0.08  -0.02
  24   1     0.03   0.11   0.10    -0.06   0.00   0.02     0.07   0.00   0.00
                     10                     11                     12
                        a                      a                      a 
 Frequencies --   363.1327               427.4262               505.3999
 Red. masses --     8.1360                 9.2794                10.7710
 Frc consts  --     0.0000                 0.0000                 0.0000
 IR Inten    --     4.6308                 0.0020                 6.0577
 Raman Activ --     0.0000                 0.0000                 0.0000
 Depolar     --     0.0000                 0.0000                 0.0000
 Atom AN      X      Y      Z        X      Y      Z        X      Y      Z
   1   6    -0.14   0.01   0.13     0.00  -0.00  -0.00    -0.05   0.00   0.03
   2   8    -0.13   0.01   0.10     0.00  -0.05   0.01     0.01   0.03   0.23
   3   6     0.07   0.02   0.14    -0.00   0.02  -0.00     0.09   0.03   0.19
   4   8     0.37   0.01  -0.06     0.00  -0.04   0.01     0.46   0.02  -0.05
   5   6     0.06   0.01   0.05     0.01  -0.17   0.02    -0.11  -0.05  -0.31
   6   6    -0.05  -0.20  -0.18    -0.30  -0.26   0.06    -0.14   0.23  -0.14
   7   6    -0.04  -0.19   0.18    -0.34   0.26  -0.01    -0.15   0.21   0.00
   8   6     0.00  -0.03  -0.24    -0.01   0.19  -0.03     0.17   0.03   0.12
   9   6    -0.05   0.23   0.12     0.31   0.29  -0.07    -0.13  -0.22   0.06
  10   6    -0.07   0.14  -0.23     0.32  -0.23   0.01    -0.11  -0.27  -0.07
  11   1    -0.02   0.00   0.04    -0.00   0.00  -0.00    -0.06  -0.00   0.00
  12   1    -0.04   0.00   0.05    -0.01   0.00   0.00     0.01  -0.00  -0.01
  13   1    -0.04   0.01   0.05     0.01   0.00  -0.00     0.01  -0.00  -0.01
  14   1    -0.03  -0.00   0.00     0.00  -0.08   0.01    -0.13  -0.02  -0.11
  15   1    -0.09  -0.17  -0.06    -0.15  -0.15   0.00    -0.08   0.16  -0.06
  16   1     0.01  -0.02  -0.19     0.00  -0.08  -0.07    -0.01   0.03   0.04
  17   1    -0.05   0.03   0.20    -0.01   0.06  -0.08    -0.08  -0.01  -0.06
  18   1     0.07  -0.20   0.10    -0.16   0.14  -0.03    -0.05   0.12  -0.01
  19   1     0.12  -0.00  -0.04    -0.00   0.10  -0.01     0.17   0.02   0.06
  20   1    -0.01  -0.03  -0.18     0.00  -0.08   0.01     0.04  -0.01  -0.10
  21   1    -0.05   0.02   0.20    -0.00   0.08   0.06    -0.08  -0.02  -0.06
  22   1     0.05   0.23   0.04     0.15   0.16  -0.01    -0.04  -0.13   0.02
  23   1    -0.11   0.14  -0.10     0.16  -0.13   0.03    -0.06  -0.17  -0.01
  24   1     0.01  -0.03  -0.18     0.00  -0.06   0.09    -0.01  -0.02   0.04
                     13                     14                     15
                        a                      a                      a 
 Frequencies --   515.7040               690.0055               708.4895
 Red. masses --     5.7582                10.5621                12.1479
 Frc consts  --     0.0000                 0.0000                 0.0000
 IR Inten    --     3.1654                17.7247                28.8775
 Raman Activ --     0.0000                 0.0000                 0.0000
 Depolar     --     0.0000                 0.0000                 0.0000
 Atom AN      X      Y      Z        X      Y      Z        X      Y      Z
   1   6     0.15  -0.00  -0.07    -0.27  -0.00   0.07     0.01   0.01  -0.00
   2   8     0.11  -0.00  -0.05    -0.16  -0.03  -0.25    -0.01   0.23  -0.02
   3   6    -0.05  -0.01  -0.05     0.39  -0.01  -0.08     0.03  -0.88   0.12
   4   8    -0.08  -0.01  -0.05    -0.07   0.05   0.38    -0.01   0.25  -0.04
   5   6    -0.09   0.03   0.29     0.47  -0.01  -0.23    -0.01  -0.01   0.01
   6   6    -0.10  -0.19   0.03    -0.02  -0.08   0.03    -0.03   0.11  -0.08
   7   6    -0.09   0.20   0.03    -0.10   0.00   0.03    -0.11   0.04  -0.00
   8   6     0.26   0.03   0.11    -0.05   0.00   0.04     0.00  -0.03   0.00
   9   6    -0.08  -0.19   0.08    -0.09  -0.00   0.03     0.11   0.05  -0.01
  10   6    -0.12   0.18  -0.03    -0.02   0.09   0.01     0.01   0.13   0.05
  11   1     0.02  -0.00  -0.02     0.09   0.01   0.04    -0.00  -0.03   0.00
  12   1     0.05  -0.00  -0.03    -0.13  -0.00   0.09     0.05  -0.02  -0.01
  13   1     0.05  -0.00  -0.03    -0.13   0.01   0.09    -0.04  -0.02   0.01
  14   1     0.03   0.01   0.09     0.20   0.00  -0.05    -0.01   0.05  -0.01
  15   1    -0.10  -0.28   0.01    -0.08   0.02  -0.02    -0.03   0.04  -0.03
  16   1     0.08  -0.02  -0.21    -0.02  -0.01   0.00    -0.01   0.03  -0.02
  17   1     0.03  -0.02  -0.15     0.06  -0.03  -0.10    -0.06   0.00   0.01
  18   1    -0.10   0.20  -0.04    -0.10   0.11  -0.03    -0.02  -0.00   0.00
  19   1     0.28   0.02   0.07     0.11   0.01   0.04    -0.00   0.00  -0.00
  20   1     0.06  -0.02  -0.20    -0.02  -0.02  -0.12     0.00  -0.05   0.01
  21   1     0.03  -0.01  -0.15     0.06   0.01  -0.11     0.06   0.00  -0.00
  22   1    -0.08  -0.21   0.02    -0.09  -0.12   0.00     0.03   0.01  -0.00
  23   1    -0.13   0.26  -0.07    -0.07  -0.03  -0.01     0.03   0.05   0.02
  24   1     0.08  -0.04  -0.21    -0.02   0.01   0.00     0.00   0.03   0.01
                     16                     17                     18
                        a                      a                      a 
 Frequencies --   824.1012               833.8620               890.3409
 Red. masses --     4.4343                 8.6160                 7.2278
 Frc consts  --     0.0000                 0.0000                 0.0000
 IR Inten    --     0.0186                 4.7643                29.6684
 Raman Activ --     0.0000                 0.0000                 0.0000
 Depolar     --     0.0000                 0.0000                 0.0000
 Atom AN      X      Y      Z        X      Y      Z        X      Y      Z
   1   6     0.00  -0.00   0.00    -0.06   0.01   0.07     0.22  -0.01  -0.13
   2   8     0.00  -0.01   0.00     0.08   0.04   0.31    -0.16  -0.05  -0.33
   3   6    -0.00   0.04  -0.00    -0.17  -0.01  -0.04     0.02   0.02   0.16
   4   8     0.00  -0.01   0.00    -0.05  -0.03  -0.25     0.09   0.03   0.20
   5   6     0.01  -0.15   0.02     0.04  -0.04  -0.27    -0.23   0.01   0.18
   6   6    -0.09  -0.14  -0.19     0.02  -0.30   0.04     0.04  -0.08  -0.13
   7   6    -0.11   0.07  -0.23     0.08  -0.23   0.08    -0.00  -0.09  -0.02
   8   6    -0.01   0.15  -0.02    -0.05   0.02   0.15    -0.15   0.02   0.20
   9   6     0.10   0.14   0.20     0.06   0.25   0.01    -0.01   0.08  -0.05
  10   6     0.10  -0.07   0.22    -0.01   0.30  -0.04     0.03   0.04  -0.15
  11   1    -0.00   0.00  -0.00    -0.19  -0.01  -0.00     0.26   0.01  -0.01
  12   1    -0.00   0.00   0.00     0.05  -0.00  -0.05    -0.03   0.00   0.05
  13   1     0.00   0.00  -0.00     0.05  -0.01  -0.05    -0.03   0.01   0.05
  14   1    -0.00   0.05  -0.01    -0.02  -0.01  -0.08    -0.21  -0.01   0.01
  15   1     0.16   0.23  -0.02     0.03   0.10  -0.00     0.20   0.10   0.01
  16   1    -0.13  -0.11   0.25    -0.08  -0.11   0.16    -0.12  -0.03   0.13
  17   1    -0.14   0.17   0.22     0.16  -0.10  -0.13    -0.04  -0.04   0.00
  18   1     0.18  -0.22   0.04    -0.03   0.12  -0.02     0.15   0.07   0.02
  19   1     0.00  -0.06   0.01     0.19   0.02   0.08     0.27   0.03   0.12
  20   1     0.00  -0.02   0.00    -0.03  -0.02  -0.16    -0.07  -0.04  -0.25
  21   1     0.12   0.11  -0.26     0.15   0.08  -0.16    -0.05   0.04  -0.01
  22   1    -0.16  -0.24   0.03    -0.02  -0.13   0.01     0.16  -0.04   0.04
  23   1    -0.18   0.21  -0.04     0.04  -0.09   0.03     0.21  -0.07   0.03
  24   1     0.14  -0.15  -0.21    -0.09   0.14   0.13    -0.13   0.05   0.12
                     19                     20                     21
                        a                      a                      a 
 Frequencies --   899.2667               932.3648               946.2887
 Red. masses --     8.3884                 3.8584                 7.4634
 Frc consts  --     0.0000                 0.0000                 0.0000
 IR Inten    --     2.2480                 7.3636                10.9156
 Raman Activ --     0.0000                 0.0000                 0.0000
 Depolar     --     0.0000                 0.0000                 0.0000
 Atom AN      X      Y      Z        X      Y      Z        X      Y      Z
   1   6    -0.06   0.00   0.05     0.00   0.00  -0.00    -0.16   0.00   0.09
   2   8     0.06   0.02   0.13     0.00  -0.01   0.00     0.15   0.02   0.13
   3   6    -0.06  -0.01  -0.07    -0.00   0.02  -0.00     0.01  -0.02  -0.13
   4   8    -0.08  -0.02  -0.12     0.00  -0.01   0.00    -0.10  -0.02  -0.10
   5   6     0.13   0.01   0.04     0.00  -0.09   0.01     0.25   0.05   0.28
   6   6     0.25   0.08  -0.02     0.08   0.17   0.17    -0.04   0.21  -0.14
   7   6    -0.10   0.26   0.03    -0.08   0.10  -0.20    -0.06  -0.20  -0.10
   8   6    -0.51  -0.04  -0.13     0.00  -0.10   0.01     0.07   0.04   0.25
   9   6    -0.08  -0.25   0.10     0.07   0.16   0.16    -0.08   0.16  -0.14
  10   6     0.26  -0.06  -0.01    -0.10   0.11  -0.21    -0.02  -0.25  -0.08
  11   1    -0.12  -0.00   0.00     0.00  -0.00   0.00    -0.17  -0.01   0.01
  12   1     0.02  -0.00  -0.03     0.00  -0.00  -0.00     0.02  -0.00  -0.04
  13   1     0.02  -0.01  -0.03    -0.00  -0.00   0.00     0.02  -0.01  -0.04
  14   1     0.08   0.01   0.02     0.01  -0.28   0.04     0.24   0.03   0.11
  15   1     0.10  -0.00   0.00     0.00  -0.27   0.07     0.11  -0.01   0.00
  16   1     0.12   0.01  -0.01     0.14   0.09  -0.21    -0.19   0.15  -0.10
  17   1     0.02   0.15   0.08    -0.13   0.13   0.18    -0.18  -0.15  -0.03
  18   1     0.07   0.06   0.04     0.01  -0.27   0.01     0.11  -0.00   0.00
  19   1     0.18   0.01   0.03     0.01  -0.28   0.04     0.14   0.02   0.09
  20   1    -0.17  -0.06  -0.36     0.00  -0.02   0.00     0.01  -0.01  -0.06
  21   1     0.03  -0.12   0.12     0.12   0.09  -0.21    -0.20   0.12  -0.07
  22   1     0.07  -0.04   0.05     0.02  -0.26   0.07     0.10   0.01  -0.00
  23   1     0.10   0.01   0.00     0.03  -0.27   0.01     0.11   0.02  -0.00
  24   1     0.12   0.00  -0.01    -0.15   0.13   0.18    -0.17  -0.19  -0.05
                     22                     23                     24
                        a                      a                      a 
 Frequencies --   971.8884               979.0599              1047.6743
 Red. masses --     7.5301                 7.5142                12.6528
 Frc consts  --     0.0000                 0.0000                 0.0000
 IR Inten    --     0.2164                 4.4081                42.0441
 Raman Activ --     0.0000                 0.0000                 0.0000
 Depolar     --     0.0000                 0.0000                 0.0000
 Atom AN      X      Y      Z        X      Y      Z        X      Y      Z
   1   6     0.00  -0.00  -0.00     0.21   0.00  -0.07     0.52   0.01  -0.07
   2   8    -0.00   0.02  -0.00    -0.18  -0.01  -0.03    -0.60   0.00   0.25
   3   6     0.01  -0.14   0.02    -0.14   0.01   0.12    -0.11  -0.00   0.03
   4   8    -0.00   0.03  -0.00     0.01  -0.00  -0.01    -0.06  -0.01  -0.09
   5   6    -0.01   0.24  -0.03     0.02  -0.00  -0.02     0.37   0.01  -0.04
   6   6    -0.29  -0.09   0.15     0.15   0.30   0.01    -0.04  -0.06  -0.03
   7   6     0.22  -0.16  -0.14     0.05  -0.26   0.17    -0.05   0.08  -0.05
   8   6    -0.01   0.30  -0.04    -0.20  -0.02  -0.07     0.08   0.01   0.02
   9   6    -0.20  -0.14   0.18     0.02   0.30   0.09    -0.04  -0.10  -0.03
  10   6     0.30  -0.10  -0.12     0.17  -0.27   0.09    -0.05   0.04  -0.05
  11   1     0.00  -0.00   0.00     0.09   0.00  -0.01     0.05  -0.00  -0.02
  12   1    -0.00   0.00  -0.00     0.02   0.00   0.01     0.07   0.02  -0.01
  13   1     0.00   0.00   0.00     0.02  -0.00   0.01     0.07  -0.01  -0.00
  14   1    -0.00   0.00  -0.00    -0.11  -0.01  -0.03     0.23   0.01   0.02
  15   1    -0.10  -0.08   0.04    -0.15  -0.04  -0.04     0.01   0.04  -0.01
  16   1    -0.21   0.06  -0.06     0.09   0.13  -0.18    -0.07  -0.00   0.02
  17   1     0.18   0.07   0.03     0.11  -0.16  -0.16    -0.03   0.05   0.04
  18   1    -0.03  -0.15  -0.04    -0.19   0.09  -0.04     0.03  -0.03   0.01
  19   1     0.00  -0.10   0.01     0.02   0.00  -0.01    -0.02  -0.00  -0.00
  20   1    -0.02   0.37  -0.05    -0.06  -0.01  -0.09     0.02   0.01   0.04
  21   1    -0.18   0.04  -0.04     0.10   0.12  -0.20    -0.03  -0.04   0.05
  22   1     0.04  -0.13   0.08    -0.18  -0.11  -0.01     0.03   0.03   0.00
  23   1     0.10  -0.08  -0.02    -0.16   0.02  -0.05     0.01  -0.04   0.00
  24   1     0.20   0.09   0.04     0.10  -0.16  -0.14    -0.07   0.00   0.02
                     25                     26                     27
                        a                      a                      a 
 Frequencies --  1066.5500              1089.8750              1098.8738
 Red. masses --     1.6691                 6.4837                 5.9957
 Frc consts  --     0.0000                 0.0000                 0.0000
 IR Inten    --     0.0908                 0.5752                 2.1112
 Raman Activ --     0.0000                 0.0000                 0.0000
 Depolar     --     0.0000                 0.0000                 0.0000
 Atom AN      X      Y      Z        X      Y      Z        X      Y      Z
   1   6     0.00   0.00  -0.00    -0.02  -0.00   0.00    -0.00   0.04  -0.00
   2   8    -0.00  -0.00   0.00     0.03  -0.00  -0.01     0.00  -0.04   0.01
   3   6     0.00  -0.02   0.00    -0.01  -0.00   0.00    -0.00   0.07  -0.01
   4   8    -0.00   0.00  -0.00     0.01   0.00   0.02     0.00  -0.02   0.00
   5   6     0.00  -0.08   0.01     0.01   0.02   0.07     0.02  -0.48   0.07
   6   6    -0.08   0.06  -0.03    -0.31   0.09  -0.02    -0.16   0.21  -0.16
   7   6    -0.01  -0.08  -0.03     0.33   0.09   0.02     0.09  -0.05  -0.00
   8   6    -0.01   0.12  -0.02    -0.16  -0.02  -0.11    -0.01   0.07  -0.01
   9   6     0.01  -0.07   0.05     0.34  -0.05   0.04    -0.08  -0.06   0.02
  10   6     0.07   0.08   0.01    -0.30  -0.12   0.01     0.14   0.25   0.10
  11   1     0.00  -0.00   0.00     0.00   0.00   0.00     0.00  -0.02   0.00
  12   1     0.01  -0.00   0.00    -0.00  -0.00   0.00     0.06  -0.02  -0.00
  13   1    -0.01  -0.00   0.00    -0.00   0.00   0.00    -0.06  -0.02   0.01
  14   1     0.02  -0.41   0.06     0.07   0.01   0.03     0.01  -0.19   0.03
  15   1     0.26  -0.15   0.09    -0.11   0.04  -0.01    -0.22   0.12  -0.10
  16   1    -0.24   0.13  -0.09    -0.26   0.11  -0.07     0.12  -0.03   0.01
  17   1    -0.15  -0.13  -0.04     0.30   0.16   0.02    -0.18  -0.17  -0.07
  18   1     0.25   0.16   0.03     0.14   0.09   0.01    -0.04  -0.00  -0.02
  19   1    -0.02   0.37  -0.05     0.04   0.00  -0.01     0.00  -0.07   0.01
  20   1     0.00  -0.04   0.01    -0.04  -0.02  -0.09    -0.02   0.43  -0.06
  21   1     0.16  -0.10   0.07     0.31  -0.12   0.06     0.20  -0.13   0.11
  22   1    -0.27   0.12  -0.07     0.15  -0.07   0.03     0.04   0.01   0.02
  23   1    -0.24  -0.20  -0.04    -0.11  -0.05  -0.00     0.20   0.16   0.06
  24   1     0.22   0.17   0.05    -0.25  -0.15  -0.03    -0.12  -0.04   0.00
                     28                     29                     30
                        a                      a                      a 
 Frequencies --  1112.4239              1138.1844              1139.9189
 Red. masses --     3.8380                 6.0435                 7.5682
 Frc consts  --     0.0000                 0.0000                 0.0000
 IR Inten    --     1.4575                 6.5777                 0.0024
 Raman Activ --     0.0000                 0.0000                 0.0000
 Depolar     --     0.0000                 0.0000                 0.0000
 Atom AN      X      Y      Z        X      Y      Z        X      Y      Z
   1   6    -0.02   0.42  -0.05    -0.13  -0.05  -0.37     0.00  -0.00   0.00
   2   8     0.01  -0.23   0.03     0.13   0.05   0.36    -0.00   0.00  -0.00
   3   6    -0.00   0.01  -0.00    -0.08  -0.00   0.01    -0.00   0.02  -0.00
   4   8     0.00  -0.01   0.00    -0.01  -0.01  -0.11     0.00  -0.00   0.00
   5   6    -0.00   0.05  -0.01    -0.04  -0.02  -0.16    -0.00   0.05  -0.00
   6   6     0.02  -0.02   0.01    -0.02   0.03   0.10     0.26  -0.03  -0.01
   7   6    -0.01   0.00   0.00     0.03  -0.03  -0.09    -0.28  -0.24  -0.05
   8   6    -0.00  -0.00   0.00    -0.04   0.01   0.08    -0.02   0.42  -0.06
   9   6     0.01   0.00  -0.00     0.03   0.01  -0.09     0.30  -0.19   0.11
  10   6    -0.02  -0.02  -0.01    -0.02   0.00   0.11    -0.26  -0.05   0.01
  11   1     0.01  -0.24   0.03     0.56   0.02  -0.02    -0.00   0.00  -0.00
  12   1     0.57  -0.14  -0.03    -0.22  -0.04   0.23    -0.00   0.00  -0.00
  13   1    -0.56  -0.18   0.07    -0.22   0.07   0.22     0.01   0.00  -0.00
  14   1    -0.00   0.03  -0.00     0.18   0.01   0.00    -0.01   0.15  -0.02
  15   1     0.02  -0.01   0.01     0.01  -0.09   0.04     0.11  -0.04   0.01
  16   1    -0.02   0.01  -0.00     0.04   0.01  -0.04     0.05   0.00  -0.01
  17   1     0.03   0.02   0.01    -0.04  -0.01   0.02    -0.11  -0.10  -0.04
  18   1    -0.00  -0.00   0.00     0.06  -0.04  -0.00    -0.26  -0.16  -0.05
  19   1    -0.00   0.01  -0.00     0.06   0.01   0.03    -0.01   0.24  -0.03
  20   1     0.00  -0.05   0.01    -0.02  -0.01  -0.05    -0.01   0.23  -0.03
  21   1    -0.03   0.02  -0.01    -0.04   0.01   0.02     0.12  -0.07   0.06
  22   1     0.00  -0.00   0.00     0.06   0.04  -0.01     0.27  -0.11   0.09
  23   1    -0.02  -0.01  -0.01    -0.00   0.10   0.01    -0.11  -0.05  -0.00
  24   1     0.02   0.01   0.00     0.04  -0.02  -0.04    -0.05   0.00   0.01
                     31                     32                     33
                        a                      a                      a 
 Frequencies --  1149.9600              1187.2706              1203.7461
 Red. masses --     8.5682                 3.9885                10.1982
 Frc consts  --     0.0000                 0.0000                 0.0000
 IR Inten    --   102.5362                 2.8377               285.3115
 Raman Activ --     0.0000                 0.0000                 0.0000
 Depolar     --     0.0000                 0.0000                 0.0000
 Atom AN      X      Y      Z        X      Y      Z        X      Y      Z
   1   6     0.12   0.02   0.13    -0.00   0.01  -0.00     0.06  -0.00  -0.04
   2   8    -0.21  -0.01   0.01    -0.00   0.00  -0.00    -0.16   0.03   0.29
   3   6     0.25  -0.01  -0.17     0.00  -0.06   0.01     0.42  -0.04  -0.42
   4   8     0.06   0.01   0.10     0.00   0.02  -0.00    -0.03   0.00   0.03
   5   6    -0.28  -0.05  -0.28    -0.02   0.33  -0.05    -0.33   0.01   0.16
   6   6    -0.07   0.07   0.25    -0.08  -0.14   0.18    -0.01   0.01  -0.13
   7   6     0.12  -0.09  -0.21     0.04   0.10  -0.03     0.04  -0.00   0.20
   8   6    -0.13   0.02   0.19     0.01  -0.12   0.02    -0.02  -0.04  -0.26
   9   6     0.12   0.04  -0.22    -0.05   0.10  -0.00     0.03   0.06   0.19
  10   6    -0.07  -0.00   0.26     0.09  -0.17  -0.13    -0.01  -0.04  -0.12
  11   1    -0.22  -0.01   0.01    -0.00  -0.01   0.00    -0.00  -0.00  -0.01
  12   1     0.06   0.02  -0.07     0.01  -0.00  -0.00    -0.06   0.00   0.06
  13   1     0.07  -0.03  -0.06    -0.01  -0.00   0.00    -0.06   0.01   0.06
  14   1     0.07  -0.00  -0.04    -0.01   0.23  -0.03     0.11   0.02   0.08
  15   1    -0.05  -0.18   0.07     0.07  -0.10   0.08     0.08   0.04  -0.01
  16   1     0.14   0.01  -0.08     0.21  -0.14   0.10     0.04  -0.05   0.07
  17   1    -0.08  -0.02   0.04    -0.34  -0.18  -0.02    -0.04  -0.12  -0.09
  18   1     0.15  -0.08  -0.01     0.18   0.07   0.03     0.04   0.18   0.03
  19   1     0.15   0.02   0.08     0.00  -0.03   0.01    -0.11  -0.02  -0.09
  20   1    -0.05  -0.02  -0.14    -0.02   0.32  -0.05     0.00   0.01   0.05
  21   1    -0.09   0.02   0.03     0.36  -0.14   0.06    -0.04   0.09  -0.12
  22   1     0.14   0.09  -0.03    -0.18   0.04  -0.05     0.05  -0.16   0.07
  23   1    -0.07   0.19   0.02    -0.06  -0.12  -0.05     0.08  -0.04  -0.00
  24   1     0.14  -0.01  -0.07    -0.20  -0.18  -0.05     0.03   0.07   0.06
                     34                     35                     36
                        a                      a                      a 
 Frequencies --  1235.6680              1245.5579              1246.3032
 Red. masses --     5.6175                 3.7551                 3.5384
 Frc consts  --     0.0000                 0.0000                 0.0000
 IR Inten    --   114.0058                 1.8334                 2.1084
 Raman Activ --     0.0000                 0.0000                 0.0000
 Depolar     --     0.0000                 0.0000                 0.0000
 Atom AN      X      Y      Z        X      Y      Z        X      Y      Z
   1   6     0.02  -0.00  -0.04    -0.00   0.00  -0.00    -0.02  -0.00  -0.01
   2   8    -0.07   0.02   0.21     0.00   0.00  -0.00     0.04   0.00  -0.00
   3   6     0.29  -0.03  -0.29    -0.00  -0.01   0.00    -0.04  -0.00   0.01
   4   8    -0.09  -0.01  -0.05    -0.00   0.00  -0.00    -0.02  -0.00  -0.01
   5   6    -0.04   0.02   0.18    -0.00   0.08  -0.01     0.10   0.05   0.32
   6   6     0.12  -0.01  -0.04     0.05  -0.07  -0.15    -0.10  -0.01  -0.07
   7   6    -0.05  -0.01  -0.11    -0.08   0.13   0.25     0.14  -0.02  -0.11
   8   6     0.03   0.04   0.26     0.00  -0.09   0.01    -0.11   0.01   0.07
   9   6    -0.05  -0.02  -0.10     0.08   0.06  -0.28     0.14  -0.00  -0.11
  10   6     0.12   0.01  -0.04    -0.05  -0.03   0.17    -0.10  -0.02  -0.07
  11   1     0.02   0.00  -0.01     0.00  -0.00   0.00     0.03   0.00   0.00
  12   1    -0.05  -0.00   0.05    -0.00  -0.00   0.00     0.00  -0.01   0.01
  13   1    -0.05   0.01   0.05     0.00  -0.00  -0.00     0.00   0.01   0.00
  14   1    -0.38  -0.02  -0.04     0.01  -0.21   0.03     0.07   0.02   0.09
  15   1    -0.10   0.08  -0.06     0.27  -0.02   0.04    -0.37   0.23  -0.14
  16   1    -0.11   0.07  -0.04    -0.18   0.04   0.02     0.30  -0.18   0.14
  17   1     0.17   0.18   0.08     0.02  -0.01  -0.03    -0.11  -0.07  -0.01
  18   1    -0.23  -0.23  -0.05    -0.16   0.05   0.02     0.04  -0.06  -0.02
  19   1     0.09   0.02   0.09     0.03  -0.52   0.07     0.07   0.01   0.03
  20   1    -0.00  -0.00  -0.03    -0.02   0.38  -0.05    -0.03  -0.02  -0.08
  21   1     0.18  -0.13   0.12    -0.02  -0.00   0.03    -0.12   0.06  -0.03
  22   1    -0.25   0.18  -0.11     0.16   0.06  -0.04     0.03   0.06  -0.04
  23   1    -0.09  -0.10  -0.03    -0.27  -0.06  -0.03    -0.34  -0.29  -0.07
  24   1    -0.11  -0.09  -0.02     0.18   0.05  -0.03     0.28   0.24   0.08
                     37                     38                     39
                        a                      a                      a 
 Frequencies --  1272.9903              1292.3581              1329.0178
 Red. masses --     3.6122                 3.5078                 4.2865
 Frc consts  --     0.0000                 0.0000                 0.0000
 IR Inten    --     4.5452                 0.1086                 0.4650
 Raman Activ --     0.0000                 0.0000                 0.0000
 Depolar     --     0.0000                 0.0000                 0.0000
 Atom AN      X      Y      Z        X      Y      Z        X      Y      Z
   1   6     0.00  -0.00  -0.03    -0.00  -0.01   0.00    -0.00  -0.00   0.00
   2   8    -0.00   0.01   0.08     0.00   0.00  -0.00     0.00  -0.00  -0.00
   3   6     0.08  -0.01  -0.06    -0.00   0.04  -0.01    -0.00   0.02  -0.00
   4   8    -0.10  -0.02  -0.10    -0.00  -0.01   0.00     0.00  -0.01   0.00
   5   6     0.30   0.02   0.02     0.02  -0.36   0.05     0.01  -0.24   0.03
   6   6    -0.01  -0.05   0.16     0.13  -0.03   0.15    -0.18   0.18  -0.04
   7   6     0.05   0.06  -0.01    -0.02   0.09  -0.01    -0.12  -0.07  -0.00
   8   6    -0.02  -0.02  -0.16     0.00  -0.04   0.01     0.01  -0.26   0.04
   9   6     0.05  -0.06   0.01     0.01   0.08  -0.02     0.12  -0.06   0.02
  10   6    -0.01   0.09   0.14    -0.13  -0.08  -0.13     0.16   0.20  -0.01
  11   1     0.03   0.00  -0.00     0.00   0.01  -0.00     0.00   0.01  -0.00
  12   1    -0.02  -0.00   0.02    -0.00   0.00  -0.00    -0.00   0.00  -0.00
  13   1    -0.02   0.01   0.02     0.00   0.00   0.00     0.00   0.00   0.00
  14   1    -0.63  -0.06  -0.16    -0.03   0.56  -0.08    -0.02   0.34  -0.05
  15   1    -0.10  -0.02   0.01    -0.10  -0.00  -0.00     0.25  -0.15   0.09
  16   1    -0.09   0.06  -0.06    -0.33   0.20  -0.16     0.14  -0.03   0.01
  17   1    -0.23  -0.13  -0.01    -0.13  -0.03   0.02     0.25   0.18   0.06
  18   1     0.22   0.15   0.04     0.09   0.07   0.02     0.04   0.06   0.01
  19   1    -0.05  -0.01  -0.05     0.01  -0.11   0.02    -0.01   0.20  -0.03
  20   1    -0.00  -0.00  -0.00    -0.00   0.09  -0.01    -0.02   0.31  -0.04
  21   1    -0.24   0.10  -0.05     0.13  -0.02  -0.01    -0.27   0.14  -0.10
  22   1     0.23  -0.12   0.07    -0.09   0.05  -0.04    -0.05   0.05  -0.02
  23   1    -0.10   0.01   0.01     0.09   0.01  -0.00    -0.23  -0.19  -0.05
  24   1    -0.08  -0.08  -0.04     0.31   0.27   0.09    -0.14  -0.05   0.00
                     40                     41                     42
                        a                      a                      a 
 Frequencies --  1335.8433              1344.5609              1352.8125
 Red. masses --     4.6408                 4.8357                 5.2789
 Frc consts  --     0.0000                 0.0000                 0.0000
 IR Inten    --     3.7819                12.0379                 0.4584
 Raman Activ --     0.0000                 0.0000                 0.0000
 Depolar     --     0.0000                 0.0000                 0.0000
 Atom AN      X      Y      Z        X      Y      Z        X      Y      Z
   1   6    -0.00  -0.00   0.00     0.02  -0.00  -0.02     0.02  -0.00  -0.01
   2   8     0.00  -0.00  -0.00     0.00   0.00   0.04    -0.00   0.00   0.02
   3   6    -0.00   0.00   0.00     0.03  -0.00  -0.04     0.01   0.00  -0.00
   4   8     0.00  -0.00   0.00    -0.04  -0.01  -0.03    -0.02  -0.00  -0.02
   5   6     0.01  -0.16   0.02     0.23   0.02   0.07     0.18   0.01  -0.01
   6   6    -0.20   0.08  -0.06    -0.22   0.16  -0.06    -0.23   0.03  -0.09
   7   6     0.27   0.09   0.08    -0.16  -0.18  -0.03     0.28   0.14   0.08
   8   6    -0.01   0.18  -0.02     0.09   0.00   0.02    -0.15  -0.01   0.02
   9   6    -0.27   0.03  -0.09    -0.18   0.15  -0.07     0.29  -0.08   0.11
  10   6     0.19   0.12   0.03    -0.20  -0.18  -0.01    -0.22  -0.08  -0.07
  11   1     0.00   0.00   0.00    -0.04  -0.00  -0.01    -0.03  -0.00  -0.01
  12   1     0.00   0.00  -0.00    -0.04   0.01   0.03    -0.03   0.01   0.02
  13   1     0.00   0.00  -0.00    -0.04  -0.00   0.03    -0.03  -0.00   0.02
  14   1    -0.01   0.26  -0.04    -0.24  -0.01  -0.05    -0.15  -0.01  -0.05
  15   1     0.24  -0.15   0.09     0.19  -0.09   0.07     0.28  -0.12   0.09
  16   1     0.01  -0.02   0.04     0.32  -0.13   0.06     0.07  -0.07   0.05
  17   1    -0.12  -0.15  -0.06     0.26   0.15   0.02    -0.15  -0.12  -0.03
  18   1    -0.25  -0.17  -0.04     0.15   0.09   0.02    -0.32  -0.18  -0.05
  19   1     0.00  -0.07   0.01     0.03   0.01   0.01     0.05   0.01   0.02
  20   1     0.02  -0.39   0.05     0.03   0.01   0.08    -0.04  -0.01  -0.06
  21   1     0.13  -0.11   0.10     0.27  -0.11   0.06    -0.16   0.10  -0.06
  22   1     0.26  -0.12   0.08     0.16  -0.07   0.05    -0.33   0.13  -0.10
  23   1    -0.23  -0.19  -0.04     0.17   0.11   0.04     0.26   0.16   0.05
  24   1    -0.01  -0.04  -0.03     0.31   0.17   0.02     0.07   0.09   0.03
                     43                     44                     45
                        a                      a                      a 
 Frequencies --  1353.8636              1374.9986              1423.5959
 Red. masses --     5.1699                 2.6370                 1.5110
 Frc consts  --     0.0000                 0.0000                 0.0000
 IR Inten    --     0.7665                17.1534                12.5427
 Raman Activ --     0.0000                 0.0000                 0.0000
 Depolar     --     0.0000                 0.0000                 0.0000
 Atom AN      X      Y      Z        X      Y      Z        X      Y      Z
   1   6    -0.00   0.00   0.00     0.29  -0.00  -0.13    -0.01   0.21  -0.03
   2   8    -0.00   0.00  -0.00     0.13  -0.00  -0.08    -0.00   0.04  -0.01
   3   6     0.00  -0.01   0.00    -0.08   0.00   0.05    -0.00   0.00  -0.00
   4   8     0.00   0.00   0.00     0.03   0.01   0.03     0.00  -0.00   0.00
   5   6    -0.00   0.05  -0.01    -0.00  -0.00  -0.01     0.00  -0.01   0.00
   6   6     0.04  -0.10  -0.02     0.03  -0.02   0.01    -0.00   0.00   0.00
   7   6     0.14   0.22  -0.04    -0.00   0.01  -0.01    -0.00  -0.00  -0.00
   8   6     0.02  -0.46   0.06     0.00  -0.00  -0.00    -0.00   0.00  -0.00
   9   6    -0.16   0.21  -0.02    -0.00  -0.01  -0.00     0.00  -0.00   0.00
  10   6    -0.03  -0.09   0.05     0.03   0.02   0.01     0.00   0.00  -0.00
  11   1     0.00  -0.00   0.00    -0.56  -0.04  -0.08     0.03  -0.71   0.09
  12   1    -0.00  -0.00   0.00    -0.43   0.10   0.27    -0.21  -0.04   0.42
  13   1     0.00  -0.00  -0.00    -0.42  -0.06   0.29     0.22  -0.12  -0.40
  14   1     0.01  -0.11   0.02     0.03   0.00   0.01    -0.00   0.01  -0.00
  15   1    -0.01   0.06  -0.02    -0.04   0.02  -0.01     0.00   0.00   0.00
  16   1    -0.13   0.04  -0.03    -0.03   0.01  -0.01     0.00   0.00  -0.00
  17   1    -0.07   0.02   0.03    -0.01  -0.01  -0.00     0.00   0.00   0.00
  18   1    -0.24  -0.20  -0.04     0.01   0.00   0.00     0.00   0.00   0.00
  19   1    -0.03   0.54  -0.08    -0.00  -0.00  -0.00     0.00  -0.00   0.00
  20   1    -0.01   0.21  -0.03     0.00  -0.00  -0.00    -0.00   0.00  -0.00
  21   1     0.07   0.02  -0.04    -0.01   0.00  -0.00    -0.00   0.00  -0.00
  22   1     0.26  -0.16   0.10     0.01  -0.00   0.00    -0.00   0.00  -0.00
  23   1     0.00   0.06   0.01    -0.04  -0.02  -0.01    -0.00  -0.00  -0.00
  24   1     0.13   0.06   0.02    -0.02  -0.01  -0.00    -0.00   0.00   0.00
                     46                     47                     48
                        a                      a                      a 
 Frequencies --  1449.7258              1473.9615              1479.3703
 Red. masses --     1.6017                 1.8721                 1.9432
 Frc consts  --     0.0000                 0.0000                 0.0000
 IR Inten    --     1.8167                 0.0051                 0.5185
 Raman Activ --     0.0000                 0.0000                 0.0000
 Depolar     --     0.0000                 0.0000                 0.0000
 Atom AN      X      Y      Z        X      Y      Z        X      Y      Z
   1   6    -0.09  -0.03  -0.19    -0.00  -0.00   0.00     0.00  -0.00  -0.00
   2   8    -0.04  -0.01  -0.04    -0.00  -0.00   0.00    -0.00   0.00   0.00
   3   6    -0.02  -0.00  -0.02     0.00   0.00  -0.00    -0.00  -0.00  -0.00
   4   8     0.02   0.01   0.03    -0.00  -0.00  -0.00    -0.00  -0.00  -0.00
   5   6     0.00  -0.00  -0.01     0.00  -0.03   0.00     0.03   0.00   0.00
   6   6    -0.00  -0.00   0.00    -0.10  -0.09   0.09     0.03   0.08  -0.06
   7   6     0.00   0.00   0.00    -0.07   0.07   0.05    -0.03   0.03   0.02
   8   6    -0.00  -0.00  -0.00    -0.00   0.03  -0.00     0.15   0.03   0.18
   9   6     0.00  -0.00   0.00     0.06   0.07  -0.07    -0.02  -0.03   0.03
  10   6    -0.00   0.00   0.00     0.11  -0.10  -0.06     0.04  -0.09  -0.04
  11   1    -0.23  -0.02  -0.04    -0.00   0.00  -0.00    -0.00  -0.00  -0.00
  12   1     0.37  -0.32   0.45    -0.00   0.00  -0.00     0.00  -0.00   0.00
  13   1     0.34   0.45   0.36     0.00   0.00   0.00     0.00   0.00   0.00
  14   1     0.00  -0.00  -0.00    -0.00   0.01  -0.00    -0.03  -0.00  -0.01
  15   1     0.01   0.00   0.00     0.18   0.34   0.02    -0.09  -0.23  -0.00
  16   1     0.00   0.00  -0.01     0.15   0.07  -0.35    -0.08  -0.05   0.23
  17   1    -0.00  -0.00   0.00     0.12  -0.11  -0.23     0.07  -0.04  -0.10
  18   1    -0.00  -0.00  -0.00     0.14  -0.22   0.08     0.07  -0.10   0.04
  19   1     0.00   0.00   0.00     0.00  -0.01   0.00    -0.53  -0.04  -0.11
  20   1     0.00   0.00   0.00     0.00  -0.01   0.00    -0.04  -0.08  -0.54
  21   1    -0.00   0.00  -0.00    -0.11  -0.06   0.26     0.07   0.02  -0.11
  22   1    -0.00   0.00  -0.00    -0.12  -0.25  -0.01     0.07   0.11   0.01
  23   1     0.01  -0.00   0.00    -0.21   0.31  -0.11    -0.12   0.21  -0.07
  24   1     0.00  -0.00  -0.01    -0.16   0.15   0.32    -0.09   0.10   0.21
                     49                     50                     51
                        a                      a                      a 
 Frequencies --  1482.9032              1484.0492              1498.4600
 Red. masses --     2.0339                 1.8947                 2.0264
 Frc consts  --     0.0000                 0.0000                 0.0000
 IR Inten    --     0.0329                 0.5680                 0.2552
 Raman Activ --     0.0000                 0.0000                 0.0000
 Depolar     --     0.0000                 0.0000                 0.0000
 Atom AN      X      Y      Z        X      Y      Z        X      Y      Z
   1   6     0.00   0.00  -0.00     0.00  -0.00  -0.00     0.00   0.00   0.00
   2   8    -0.00   0.00  -0.00    -0.00  -0.00   0.00     0.00  -0.00  -0.00
   3   6    -0.00   0.00  -0.00    -0.01  -0.00   0.00    -0.00   0.00   0.00
   4   8    -0.00  -0.00   0.00     0.00   0.00   0.00     0.00   0.00   0.00
   5   6     0.00  -0.01   0.00     0.02   0.00  -0.00    -0.02  -0.00  -0.00
   6   6     0.07   0.09  -0.06     0.06   0.08  -0.07    -0.06  -0.08   0.06
   7   6    -0.11   0.12   0.05     0.08  -0.12  -0.06     0.07  -0.11  -0.04
   8   6     0.00  -0.02   0.00    -0.01  -0.01  -0.04     0.12   0.02   0.12
   9   6     0.10   0.12  -0.09     0.06   0.10  -0.09     0.06   0.10  -0.06
  10   6    -0.08   0.08   0.03     0.08  -0.10  -0.05    -0.07   0.08   0.03
  11   1    -0.00  -0.00   0.00    -0.00  -0.00  -0.00     0.00   0.00   0.00
  12   1     0.00  -0.00   0.00     0.00  -0.00   0.00    -0.00   0.00  -0.00
  13   1    -0.00  -0.00  -0.00     0.00   0.00   0.00    -0.00  -0.00  -0.00
  14   1    -0.00   0.02  -0.00     0.01  -0.00  -0.00     0.03   0.00   0.01
  15   1    -0.14  -0.26  -0.01    -0.13  -0.28  -0.01     0.12   0.24   0.01
  16   1    -0.12  -0.04   0.26    -0.10  -0.06   0.27     0.11   0.04  -0.23
  17   1     0.16  -0.13  -0.31    -0.14   0.15   0.31    -0.11   0.11   0.24
  18   1     0.20  -0.30   0.11    -0.18   0.31  -0.10    -0.15   0.25  -0.08
  19   1    -0.00   0.03  -0.00     0.12   0.01   0.02    -0.37  -0.03  -0.08
  20   1    -0.00   0.03  -0.00     0.02   0.02   0.12    -0.02  -0.05  -0.37
  21   1    -0.16  -0.06   0.36    -0.12  -0.07   0.31    -0.10  -0.05   0.26
  22   1    -0.18  -0.36  -0.02    -0.13  -0.31  -0.01    -0.12  -0.27  -0.01
  23   1     0.15  -0.21   0.07    -0.16   0.26  -0.09     0.14  -0.22   0.07
  24   1     0.12  -0.09  -0.22    -0.12   0.13   0.26     0.11  -0.09  -0.22
                     52                     53                     54
                        a                      a                      a 
 Frequencies --  1693.5957              2950.3851              2965.9979
 Red. masses --    13.3107                 1.7539                 1.8936
 Frc consts  --     0.0000                 0.0000                 0.0000
 IR Inten    --   718.9457                27.5172                81.8403
 Raman Activ --     0.0000                 0.0000                 0.0000
 Depolar     --     0.0000                 0.0000                 0.0000
 Atom AN      X      Y      Z        X      Y      Z        X      Y      Z
   1   6     0.01   0.00  -0.00    -0.00   0.00   0.00     0.00  -0.00   0.00
   2   8    -0.01  -0.01  -0.05     0.00   0.00   0.00     0.00  -0.00   0.00
   3   6     0.53   0.10   0.58     0.00  -0.00  -0.01    -0.00   0.00  -0.00
   4   8    -0.38  -0.07  -0.45     0.00   0.00   0.00     0.00   0.00   0.00
   5   6    -0.09  -0.01  -0.01     0.06  -0.03  -0.24     0.00   0.01  -0.00
   6   6    -0.01   0.01  -0.01     0.01   0.03   0.03     0.03   0.13   0.11
   7   6     0.00  -0.00   0.00     0.00  -0.00   0.01     0.01   0.01  -0.09
   8   6     0.00  -0.00  -0.00     0.01  -0.00  -0.01     0.00  -0.00  -0.00
   9   6     0.00   0.01   0.00     0.00   0.00   0.01    -0.02   0.03   0.09
  10   6    -0.01  -0.01  -0.01     0.01  -0.02   0.04    -0.04   0.10  -0.14
  11   1    -0.04  -0.00  -0.00     0.00  -0.00  -0.00     0.00  -0.00  -0.00
  12   1     0.00  -0.01   0.03    -0.00  -0.00  -0.00     0.00   0.01   0.00
  13   1     0.00   0.01   0.03    -0.00   0.00  -0.00    -0.00   0.01  -0.00
  14   1     0.07   0.01   0.03    -0.22   0.11   0.90    -0.00  -0.00   0.01
  15   1    -0.00   0.00  -0.00     0.03  -0.00  -0.09     0.07  -0.01  -0.21
  16   1     0.00  -0.00   0.01    -0.04  -0.11  -0.04    -0.18  -0.47  -0.17
  17   1     0.01   0.00  -0.00    -0.01   0.01  -0.01     0.04  -0.06   0.03
  18   1    -0.00   0.00  -0.00     0.00  -0.00  -0.02    -0.08   0.04   0.30
  19   1    -0.00  -0.00  -0.00    -0.00   0.00   0.02    -0.00  -0.00   0.00
  20   1    -0.00  -0.00  -0.00    -0.01  -0.00   0.00    -0.00   0.00  -0.00
  21   1     0.01  -0.00  -0.00    -0.01  -0.01  -0.00    -0.03  -0.07  -0.02
  22   1    -0.00  -0.00   0.00     0.00  -0.00  -0.02     0.09  -0.03  -0.32
  23   1    -0.00  -0.00  -0.00     0.03  -0.02  -0.09    -0.07   0.04   0.22
  24   1     0.00   0.00   0.00    -0.05   0.09  -0.07     0.23  -0.41   0.31
                     55                     56                     57
                        a                      a                      a 
 Frequencies --  2966.9944              2969.9822              2970.7309
 Red. masses --     1.8598                 1.8840                 1.9258
 Frc consts  --     0.0000                 0.0000                 0.0000
 IR Inten    --     2.2468                72.1162                 1.4161
 Raman Activ --     0.0000                 0.0000                 0.0000
 Depolar     --     0.0000                 0.0000                 0.0000
 Atom AN      X      Y      Z        X      Y      Z        X      Y      Z
   1   6     0.00   0.00  -0.00     0.00   0.00   0.00     0.00  -0.00   0.00
   2   8     0.00   0.00   0.00     0.00  -0.00  -0.00    -0.00  -0.00   0.00
   3   6    -0.00  -0.00  -0.00    -0.00  -0.00  -0.00     0.00   0.00   0.00
   4   8     0.00   0.00   0.00     0.00   0.00   0.00    -0.00   0.00  -0.00
   5   6     0.00  -0.00  -0.02     0.01  -0.01  -0.06    -0.00   0.01   0.00
   6   6    -0.01  -0.06  -0.05    -0.04  -0.13  -0.09     0.03   0.09   0.04
   7   6    -0.01  -0.02   0.15    -0.01   0.01  -0.01     0.01  -0.05   0.18
   8   6     0.10  -0.01  -0.12    -0.09   0.01   0.10     0.01  -0.01  -0.00
   9   6    -0.01   0.06   0.13    -0.01  -0.03  -0.03    -0.00  -0.10  -0.15
  10   6    -0.02   0.04  -0.06    -0.05   0.11  -0.12    -0.03   0.06  -0.04
  11   1     0.00   0.00   0.00     0.00  -0.00  -0.00     0.00  -0.00   0.00
  12   1     0.00  -0.00  -0.00    -0.00  -0.00  -0.00     0.00   0.00   0.00
  13   1     0.00  -0.00   0.00    -0.00   0.00  -0.00    -0.00   0.00  -0.00
  14   1    -0.01   0.01   0.05    -0.05   0.02   0.19     0.00   0.00  -0.01
  15   1    -0.04   0.01   0.11    -0.04  -0.00   0.13     0.00   0.01   0.01
  16   1     0.08   0.21   0.08     0.18   0.49   0.18    -0.12  -0.33  -0.13
  17   1    -0.09   0.15  -0.09     0.03  -0.06   0.05    -0.15   0.27  -0.19
  18   1     0.13  -0.07  -0.45    -0.00   0.00  -0.01     0.12  -0.07  -0.43
  19   1    -0.10   0.06   0.46     0.08  -0.04  -0.35    -0.00   0.00   0.02
  20   1    -0.25  -0.01   0.01     0.23   0.01  -0.01    -0.01   0.00   0.00
  21   1    -0.07  -0.17  -0.05     0.04   0.12   0.04     0.12   0.32   0.10
  22   1     0.12  -0.04  -0.44    -0.02   0.00   0.07    -0.12   0.04   0.44
  23   1    -0.04   0.02   0.10    -0.04   0.03   0.12     0.00   0.00  -0.03
  24   1     0.09  -0.16   0.12     0.23  -0.42   0.32     0.12  -0.22   0.17
                     58                     59                     60
                        a                      a                      a 
 Frequencies --  2977.4672              2985.0078              2987.2334
 Red. masses --     1.9377                 1.5073                 1.9034
 Frc consts  --     0.0000                 0.0000                 0.0000
 IR Inten    --   103.1745                94.4722                34.0681
 Raman Activ --     0.0000                 0.0000                 0.0000
 Depolar     --     0.0000                 0.0000                 0.0000
 Atom AN      X      Y      Z        X      Y      Z        X      Y      Z
   1   6     0.00   0.00   0.00    -0.00   0.00  -0.00    -0.01   0.27  -0.03
   2   8     0.00  -0.00  -0.00    -0.00   0.00   0.00    -0.00   0.00  -0.00
   3   6    -0.00  -0.00  -0.00     0.00   0.00   0.00     0.00  -0.00   0.00
   4   8     0.00   0.00   0.00    -0.00  -0.00  -0.00    -0.00   0.00  -0.00
   5   6     0.00  -0.00  -0.01    -0.00   0.00   0.01     0.00  -0.00  -0.00
   6   6    -0.02  -0.03   0.01     0.01   0.03   0.00    -0.01   0.00   0.05
   7   6    -0.02   0.06  -0.12    -0.05   0.07   0.05    -0.02   0.03   0.01
   8   6     0.16  -0.01  -0.13     0.08   0.02   0.13     0.00   0.00  -0.00
   9   6    -0.01  -0.10  -0.10    -0.04  -0.06   0.06     0.02   0.03  -0.02
  10   6    -0.03   0.03   0.00     0.01  -0.03   0.01     0.02  -0.01  -0.05
  11   1     0.00  -0.00  -0.00    -0.00   0.00   0.00    -0.00   0.04  -0.01
  12   1    -0.00  -0.00  -0.00     0.00   0.00   0.00    -0.24  -0.53  -0.20
  13   1    -0.00   0.00  -0.00     0.00  -0.01   0.00     0.28  -0.45   0.33
  14   1    -0.00   0.00   0.03     0.00  -0.00  -0.02    -0.00  -0.00   0.00
  15   1     0.03  -0.02  -0.11    -0.01   0.01   0.03     0.05  -0.02  -0.17
  16   1     0.06   0.16   0.06    -0.04  -0.11  -0.04     0.00   0.01   0.01
  17   1     0.15  -0.27   0.20     0.11  -0.20   0.17     0.06  -0.10   0.09
  18   1    -0.07   0.04   0.23     0.08  -0.04  -0.33     0.03  -0.01  -0.13
  19   1    -0.08   0.05   0.39     0.15  -0.07  -0.54    -0.00   0.00   0.00
  20   1    -0.52  -0.02   0.04    -0.45  -0.01   0.07    -0.00   0.00  -0.00
  21   1     0.12   0.33   0.12     0.09   0.25   0.11    -0.04  -0.13  -0.05
  22   1    -0.07   0.01   0.23     0.08  -0.05  -0.33    -0.03   0.02   0.13
  23   1     0.03  -0.01  -0.12    -0.01   0.00   0.03    -0.05   0.02   0.19
  24   1     0.07  -0.13   0.10    -0.05   0.09  -0.07    -0.00   0.01  -0.02
                     61                     62                     63
                        a                      a                      a 
 Frequencies --  2987.5235              2990.9304              2991.8036
 Red. masses --     1.6280                 1.5722                 1.6600
 Frc consts  --     0.0000                 0.0000                 0.0000
 IR Inten    --    27.8160               129.0548               190.8109
 Raman Activ --     0.0000                 0.0000                 0.0000
 Depolar     --     0.0000                 0.0000                 0.0000
 Atom AN      X      Y      Z        X      Y      Z        X      Y      Z
   1   6     0.01  -0.11   0.01    -0.00   0.02  -0.00     0.01   0.00   0.00
   2   8     0.00  -0.00   0.00    -0.00  -0.00  -0.00     0.00   0.00   0.00
   3   6    -0.00   0.00  -0.00    -0.00   0.00   0.00    -0.00  -0.00  -0.00
   4   8     0.00  -0.00   0.00    -0.00  -0.00  -0.00     0.00   0.00   0.00
   5   6     0.00  -0.00  -0.00    -0.00   0.00   0.00     0.01  -0.00  -0.03
   6   6    -0.02   0.01   0.08     0.05   0.04  -0.09     0.06   0.01  -0.16
   7   6    -0.07   0.09   0.02    -0.05   0.08  -0.02     0.03  -0.02  -0.05
   8   6     0.00   0.01  -0.00    -0.01   0.00   0.00     0.08   0.00  -0.00
   9   6     0.06   0.09  -0.05     0.03   0.08   0.02     0.03   0.03  -0.05
  10   6     0.03  -0.01  -0.09    -0.07   0.07   0.12     0.04  -0.03  -0.12
  11   1     0.00  -0.02   0.00    -0.00   0.00  -0.00     0.00   0.00   0.01
  12   1     0.10   0.23   0.09    -0.02  -0.04  -0.02    -0.01  -0.03  -0.01
  13   1    -0.12   0.19  -0.14     0.03  -0.04   0.03    -0.01   0.02  -0.01
  14   1    -0.00  -0.00   0.00     0.00   0.00  -0.01    -0.02   0.01   0.09
  15   1     0.08  -0.04  -0.30    -0.11   0.06   0.41    -0.17   0.08   0.63
  16   1    -0.00   0.01   0.01    -0.07  -0.19  -0.09    -0.03  -0.12  -0.07
  17   1     0.16  -0.30   0.25     0.15  -0.27   0.21    -0.03   0.05  -0.05
  18   1     0.08  -0.03  -0.33     0.03  -0.01  -0.14    -0.05   0.03   0.20
  19   1    -0.00   0.00   0.00    -0.00   0.00  -0.00     0.02  -0.00  -0.03
  20   1    -0.00   0.00   0.00     0.04   0.00  -0.00    -0.30  -0.01   0.04
  21   1    -0.13  -0.37  -0.15    -0.11  -0.31  -0.12    -0.05  -0.14  -0.06
  22   1    -0.08   0.05   0.33    -0.02   0.02   0.08    -0.05   0.03   0.22
  23   1    -0.09   0.04   0.33     0.15  -0.06  -0.58    -0.13   0.06   0.48
  24   1     0.00   0.01  -0.02     0.09  -0.17   0.16    -0.02   0.04  -0.05
                     64                     65                     66
                        a                      a                      a 
 Frequencies --  2995.2917              2997.2554              3056.5221
 Red. masses --     1.5482                 1.3833                 1.8051
 Frc consts  --     0.0000                 0.0000                 0.0000
 IR Inten    --    90.8160                11.1939                 2.5219
 Raman Activ --     0.0000                 0.0000                 0.0000
 Depolar     --     0.0000                 0.0000                 0.0000
 Atom AN      X      Y      Z        X      Y      Z        X      Y      Z
   1   6    -0.02  -0.00  -0.01    -0.14  -0.02  -0.12     0.01  -0.03  -0.27
   2   8    -0.00   0.00   0.00    -0.02  -0.00   0.00     0.00  -0.00  -0.00
   3   6     0.00  -0.00  -0.00    -0.00  -0.00  -0.00    -0.00  -0.00  -0.00
   4   8    -0.00  -0.00  -0.00     0.00   0.00   0.00     0.00   0.00   0.00
   5   6     0.00  -0.00  -0.01     0.00  -0.00  -0.00     0.00  -0.00  -0.00
   6   6     0.03   0.03  -0.05    -0.00  -0.00  -0.00    -0.00  -0.00   0.00
   7   6    -0.06   0.09  -0.03     0.01  -0.01   0.00     0.00   0.00  -0.00
   8   6    -0.11  -0.01  -0.06     0.02   0.00   0.01     0.00  -0.00  -0.00
   9   6    -0.05  -0.09   0.00     0.01   0.01  -0.00     0.00  -0.00  -0.00
  10   6     0.03  -0.04  -0.04    -0.00   0.00  -0.00    -0.00   0.00   0.00
  11   1     0.00  -0.00  -0.01     0.00  -0.01  -0.12    -0.10   0.11   0.95
  12   1     0.03   0.07   0.02     0.24   0.62   0.19     0.02   0.06  -0.01
  13   1     0.03  -0.06   0.04     0.29  -0.52   0.33     0.03  -0.06   0.00
  14   1    -0.01   0.00   0.02    -0.00   0.00   0.00    -0.00   0.00   0.00
  15   1    -0.07   0.04   0.25     0.00  -0.00  -0.00     0.00  -0.00  -0.00
  16   1    -0.05  -0.13  -0.06     0.01   0.02   0.01     0.00   0.00   0.00
  17   1     0.17  -0.31   0.24    -0.02   0.04  -0.03     0.00  -0.00   0.00
  18   1     0.03  -0.01  -0.16    -0.01   0.00   0.03    -0.00   0.00   0.00
  19   1    -0.09   0.04   0.30     0.01  -0.00  -0.03    -0.00   0.00   0.00
  20   1     0.49   0.01  -0.07    -0.06  -0.00   0.01    -0.00  -0.00   0.00
  21   1     0.13   0.37   0.15    -0.02  -0.05  -0.02     0.00   0.00   0.00
  22   1     0.04  -0.03  -0.16    -0.01   0.00   0.03    -0.00   0.00   0.00
  23   1    -0.06   0.03   0.24     0.00   0.00  -0.01     0.00  -0.00  -0.00
  24   1    -0.06   0.10  -0.09     0.01  -0.01   0.01     0.00  -0.00   0.00
