      -----------------------------------------------------------      
     |                   =====================                   |     
     |                           x T B                           |     
     |                   =====================                   |     
     |                         S. Grimme                         |     
     |          Mulliken Center for Theoretical Chemistry        |     
     |                    University of Bonn                     |     
      -----------------------------------------------------------      

   * xtb version 6.7.1 (edcfbbe) compiled by 'albert@albert-system' on 2024-07-22

   xtb is free software: you can redistribute it and/or modify it under
   the terms of the GNU Lesser General Public License as published by
   the Free Software Foundation, either version 3 of the License, or
   (at your option) any later version.
   
   xtb is distributed in the hope that it will be useful,
   but WITHOUT ANY WARRANTY; without even the implied warranty of
   MERCHANTABILITY or FITNESS FOR A PARTICULAR PURPOSE.  See the
   GNU Lesser General Public License for more details.
   
   Cite this work as:
   * C. Bannwarth, E. Caldeweyher, S. Ehlert, A. Hansen, P. Pracht,
     J. Seibert, S. Spicher, S. Grimme, WIREs Comput. Mol. Sci., 2020, 11,
     e01493. DOI: 10.1002/wcms.1493
   
   for GFN2-xTB:
   * C. Bannwarth, S. Ehlert and S. Grimme., J. Chem. Theory Comput., 2019,
     15, 1652-1671. DOI: 10.1021/acs.jctc.8b01176
   for GFN1-xTB:
   * S. Grimme, C. Bannwarth, P. Shushkov, J. Chem. Theory Comput., 2017,
     13, 1989-2009. DOI: 10.1021/acs.jctc.7b00118
   for GFN0-xTB:
   * P. Pracht, E. Caldeweyher, S. Ehlert, S. Grimme, ChemRxiv, 2019, preprint.
     DOI: 10.26434/chemrxiv.8326202.v1
   for GFN-FF:
   * S. Spicher and S. Grimme, Angew. Chem. Int. Ed., 2020, 59, 15665-15673.
     DOI: 10.1002/anie.202004239
   
   for ALPB and GBSA implicit solvation:
   * S. Ehlert, M. Stahn, S. Spicher, S. Grimme, J. Chem. Theory Comput.,
     2021, 17, 4250-4261. DOI: 10.1021/acs.jctc.1c00471
   
   for ddCOSMO and CPCM-X implicit solvation:
   * M. Stahn, S. Ehlert, S. Grimme, J. Phys. Chem. A,
     2023, XX, XXXX-XXXX. DOI: 10.1021/acs.jpca.3c04382
   
   for DFT-D4:
   * E. Caldeweyher, C. Bannwarth and S. Grimme, J. Chem. Phys., 2017,
     147, 034112. DOI: 10.1063/1.4993215
   * E. Caldeweyher, S. Ehlert, A. Hansen, H. Neugebauer, S. Spicher,
     C. Bannwarth and S. Grimme, J. Chem. Phys., 2019, 150, 154122.
     DOI: 10.1063/1.5090222
   * E. Caldeweyher, J.-M. Mewes, S. Ehlert and S. Grimme, Phys. Chem. Chem. Phys.
     2020, 22, 8499-8512. DOI: 10.1039/D0CP00502A
   
   for sTDA-xTB:
   * S. Grimme and C. Bannwarth, J. Chem. Phys., 2016, 145, 054103.
     DOI: 10.1063/1.4959605
   
   in the mass-spec context:
   * V. Asgeirsson, C. Bauer and S. Grimme, Chem. Sci., 2017, 8, 4879.
     DOI: 10.1039/c7sc00601b
   * J. Koopman and S. Grimme, ACS Omega 2019, 4, 12, 15120-15133.
     DOI: 10.1021/acsomega.9b02011
   
   for metadynamics refer to:
   * S. Grimme, J. Chem. Theory Comput., 2019, 155, 2847-2862
     DOI: 10.1021/acs.jctc.9b00143
   
   for SPH calculations refer to:
   * S. Spicher and S. Grimme, J. Chem. Theory Comput., 2021, 17, 1701-1714
     DOI: 10.1021/acs.jctc.0c01306
   
   for ONIOM refer to:
   * C. Plett, A. Katbashev, S. Ehlert, S. Grimme, M. Bursch,
     Phys. Chem. Chem. Phys., 2023, 25, 17860-17868. DOI: 10.1039/D3CP02178E
   
   for DIPRO refer to:
   * J. Kohn, N. Gildemeister, S. Grimme, D. Fazzi, A. Hansen,
     J. Chem. Phys., 2023, just accepted.
   
   for PTB refer to:
   * S. Grimme, M. Mueller, A. Hansen, J. Chem. Phys., 2023, 158, 124111.
     DOI: 10.1063/5.0137838
   
   with help from (in alphabetical order)
   P. Atkinson, C. Bannwarth, F. Bohle, G. Brandenburg, E. Caldeweyher
   M. Checinski, S. Dohm, S. Ehlert, S. Ehrlich, I. Gerasimov, C. Hölzer
   A. Katbashev, J. Kohn, J. Koopman, C. Lavigne, S. Lehtola, F. März, M. Müller,
   F. Musil, H. Neugebauer, J. Pisarek, C. Plett, P. Pracht, F. Pultar,
   J. Seibert, P. Shushkov, S. Spicher, M. Stahn, M. Steiner, T. Strunk,
   J. Stückrath, T. Rose, and J. Unsleber
   
 * started run on 2025/04/03 at 21:46:34.013     
   ID    Z sym.   atoms
    1    6 C      1-6
    2    8 O      7
    3   53 I      8
    4    1 H      9-13

           -------------------------------------------------
          |                Calculation Setup                |
           -------------------------------------------------

          program call               : /srv/scratch/z5358697/.xtb/bin/xtb gas.coord --gfn2 --sp --chrg 0 --norestart --parallel 1
          hostname                   : k163
          coordinate file            : gas.coord
          omp threads                :                     1


           -------------------------------------------------
          |                 G F N 2 - x T B                 |
           -------------------------------------------------

        Reference                      10.1021/acs.jctc.8b01176
      * Hamiltonian:
        H0-scaling (s, p, d)           1.850000    2.230000    2.230000
        zeta-weighting                 0.500000
      * Dispersion:
        s8                             2.700000
        a1                             0.520000
        a2                             5.000000
        s9                             5.000000
      * Repulsion:
        kExp                           1.500000    1.000000
        rExp                           1.000000
      * Coulomb:
        alpha                          2.000000
        third order                    shell-resolved
        anisotropic                    true
        a3                             3.000000
        a5                             4.000000
        cn-shift                       1.200000
        cn-exp                         4.000000
        max-rad                        5.000000


          ...................................................
          :                      SETUP                      :
          :.................................................:
          :  # basis functions                  43          :
          :  # atomic orbitals                  42          :
          :  # shells                           22          :
          :  # electrons                        42          :
          :  max. iterations                   250          :
          :  Hamiltonian                  GFN2-xTB          :
          :  restarted?                      false          :
          :  GBSA solvation                  false          :
          :  PC potential                    false          :
          :  electronic temp.          300.0000000     K    :
          :  accuracy                    1.0000000          :
          :  -> integral cutoff          0.2500000E+02      :
          :  -> integral neglect         0.1000000E-07      :
          :  -> SCF convergence          0.1000000E-05 Eh   :
          :  -> wf. convergence          0.1000000E-03 e    :
          :  Broyden damping             0.4000000          :
          :  net charge                          0          :
          :  unpaired electrons                  0          :
          ...................................................

 iter      E             dE          RMSdq      gap      omega  full diag
   1    -23.5588558 -0.235589E+02  0.701E+00    4.08       0.0  T
   2    -23.5737598 -0.149040E-01  0.476E+00    3.88       1.0  T
   3    -23.5649643  0.879548E-02  0.186E+00    3.89       1.0  T
   4    -23.5761005 -0.111362E-01  0.548E-01    3.91       1.0  T
   5    -23.5760822  0.182640E-04  0.453E-01    3.88       1.0  T
   6    -23.5764445 -0.362288E-03  0.247E-01    3.88       1.0  T
   7    -23.5765733 -0.128786E-03  0.138E-01    3.89       1.0  T
   8    -23.5765858 -0.125142E-04  0.435E-02    3.90       1.0  T
   9    -23.5765920 -0.623660E-05  0.148E-02    3.90       1.9  T
  10    -23.5765925 -0.423625E-06  0.421E-03    3.90       6.6  T
  11    -23.5765925 -0.128175E-07  0.164E-03    3.90      16.9  T
  12    -23.5765925 -0.331406E-08  0.686E-04    3.90      40.4  T
  13    -23.5765925 -0.220295E-08  0.298E-04    3.90      93.1  T

   *** convergence criteria satisfied after 13 iterations ***

         #    Occupation            Energy/Eh            Energy/eV
      -------------------------------------------------------------
         1        2.0000           -0.7315826             -19.9074
       ...           ...                  ...                  ...
        15        2.0000           -0.4830645             -13.1449
        16        2.0000           -0.4572495             -12.4424
        17        2.0000           -0.4419604             -12.0264
        18        2.0000           -0.4377981             -11.9131
        19        2.0000           -0.4098675             -11.1531
        20        2.0000           -0.3986703             -10.8484
        21        2.0000           -0.3896796             -10.6037 (HOMO)
        22                         -0.2463275              -6.7029 (LUMO)
        23                         -0.2348790              -6.3914
        24                         -0.2195491              -5.9742
        25                         -0.1138279              -3.0974
        26                          0.0272627               0.7419
       ...                                ...                  ...
        42                          0.6394730              17.4009
      -------------------------------------------------------------
                  HL-Gap            0.1433521 Eh            3.9008 eV
             Fermi-level           -0.3180035 Eh           -8.6533 eV

 SCC (total)                   0 d,  0 h,  0 min,  0.021 sec
 SCC setup                      ...        0 min,  0.000 sec (  0.751%)
 Dispersion                     ...        0 min,  0.000 sec (  0.272%)
 classical contributions        ...        0 min,  0.000 sec (  0.068%)
 integral evaluation            ...        0 min,  0.014 sec ( 66.847%)
 iterations                     ...        0 min,  0.004 sec ( 18.687%)
 molecular gradient             ...        0 min,  0.003 sec ( 12.813%)
 printout                       ...        0 min,  0.000 sec (  0.499%)

         :::::::::::::::::::::::::::::::::::::::::::::::::::::
         ::                     SUMMARY                     ::
         :::::::::::::::::::::::::::::::::::::::::::::::::::::
         :: total energy             -23.261058239146 Eh    ::
         :: gradient norm              0.011088541305 Eh/a0 ::
         :: HOMO-LUMO gap              3.900809549004 eV    ::
         ::.................................................::
         :: SCC energy               -23.576571015050 Eh    ::
         :: -> isotropic ES            0.021837396814 Eh    ::
         :: -> anisotropic ES          0.002427204808 Eh    ::
         :: -> anisotropic XC          0.006676220184 Eh    ::
         :: -> dispersion             -0.012165342828 Eh    ::
         :: repulsion energy           0.315512775904 Eh    ::
         :: add. restraining           0.000000000000 Eh    ::
         :: total charge              -0.000000000000 e     ::
         :::::::::::::::::::::::::::::::::::::::::::::::::::::

           -------------------------------------------------
          |                Property Printout                |
           -------------------------------------------------

    * Orbital Energies and Occupations

         #    Occupation            Energy/Eh            Energy/eV
      -------------------------------------------------------------
         1        2.0000           -0.7315826             -19.9074
       ...           ...                  ...                  ...
         9        2.0000           -0.5516419             -15.0109
        10        2.0000           -0.5471828             -14.8896
        11        2.0000           -0.5306861             -14.4407
        12        2.0000           -0.5075755             -13.8118
        13        2.0000           -0.5001359             -13.6094
        14        2.0000           -0.4904121             -13.3448
        15        2.0000           -0.4830645             -13.1449
        16        2.0000           -0.4572495             -12.4424
        17        2.0000           -0.4419604             -12.0264
        18        2.0000           -0.4377981             -11.9131
        19        2.0000           -0.4098675             -11.1531
        20        2.0000           -0.3986703             -10.8484
        21        2.0000           -0.3896796             -10.6037 (HOMO)
        22                         -0.2463275              -6.7029 (LUMO)
        23                         -0.2348790              -6.3914
        24                         -0.2195491              -5.9742
        25                         -0.1138279              -3.0974
        26                          0.0272627               0.7419
        27                          0.0325698               0.8863
        28                          0.0329507               0.8966
        29                          0.0690109               1.8779
        30                          0.0786052               2.1390
        31                          0.1136935               3.0938
        32                          0.1461977               3.9782
       ...                                ...                  ...
        42                          0.6394730              17.4009
      -------------------------------------------------------------
                  HL-Gap            0.1433521 Eh            3.9008 eV
             Fermi-level           -0.3180035 Eh           -8.6533 eV

     #   Z          covCN         q      C6AA      α(0)
     1   6 C        2.919    -0.031    28.762     8.795
     2   6 C        2.922    -0.040    29.005     8.832
     3   6 C        3.032    -0.034    28.806     8.803
     4   6 C        2.958     0.035    27.225     8.558
     5   6 C        2.983     0.146    24.811     8.171
     6   6 C        2.922    -0.071    29.772     8.948
     7   8 O        1.678    -0.362    20.115     6.055
     8  53 I        1.231    -0.124   381.144    33.701
     9   1 H        0.926     0.043     2.414     2.429
    10   1 H        0.926     0.044     2.396     2.421
    11   1 H        0.926     0.055     2.252     2.347
    12   1 H        0.926     0.035     2.518     2.481
    13   1 H        0.804     0.303     0.711     1.324

 Mol. C6AA /au·bohr⁶  :       3930.072779
 Mol. C8AA /au·bohr⁸  :     161507.659875
 Mol. α(0) /au        :        102.865771


Wiberg/Mayer (AO) data.
largest (>0.10) Wiberg bond orders for each atom

 ---------------------------------------------------------------------------
     #   Z sym  total        # sym  WBO       # sym  WBO       # sym  WBO
 ---------------------------------------------------------------------------
     1   6 C    3.992 --     6 C    1.443     2 C    1.437     9 H    0.970
     2   6 C    3.991 --     1 C    1.437     3 C    1.423    10 H    0.969
     3   6 C    3.990 --     4 C    1.443     2 C    1.423    11 H    0.968
                             6 C    0.104
     4   6 C    3.951 --     3 C    1.443     5 C    1.346     8 I    0.965
     5   6 C    3.943 --     6 C    1.366     4 C    1.346     7 O    1.093
     6   6 C    3.986 --     1 C    1.443     5 C    1.366    12 H    0.965
                             3 C    0.104
     7   8 O    2.166 --     5 C    1.093    13 H    0.884
     8  53 I    1.101 --     4 C    0.965
     9   1 H    0.997 --     1 C    0.970
    10   1 H    0.998 --     2 C    0.969
    11   1 H    0.997 --     3 C    0.968
    12   1 H    0.999 --     6 C    0.965
    13   1 H    0.908 --     7 O    0.884
 ---------------------------------------------------------------------------

Topologies differ in total number of bonds
Writing topology from bond orders to xtbtopo.mol

molecular dipole:
                 x           y           z       tot (Debye)
 q only:       -1.096      -0.223      -0.000
   full:       -1.916      -0.390      -0.000       4.971
molecular quadrupole (traceless):
                xx          xy          yy          xz          yz          zz
 q only:        0.559       3.015       3.766       0.000      -0.001      -4.325
  q+dip:       -1.434       5.390       7.688       0.001      -0.001      -6.254
   full:       -0.952       5.010       5.784       0.001      -0.001      -4.832


           -------------------------------------------------
          | TOTAL ENERGY              -23.261058239146 Eh   |
          | GRADIENT NORM               0.011088541305 Eh/α |
          | HOMO-LUMO GAP               3.900809549004 eV   |
           -------------------------------------------------

------------------------------------------------------------------------
 * finished run on 2025/04/03 at 21:46:34.058     
------------------------------------------------------------------------
 total:
 * wall-time:     0 d,  0 h,  0 min,  0.045 sec
 *  cpu-time:     0 d,  0 h,  0 min,  0.016 sec
 * ratio c/w:     0.357 speedup
 SCF:
 * wall-time:     0 d,  0 h,  0 min,  0.021 sec
 *  cpu-time:     0 d,  0 h,  0 min,  0.009 sec
 * ratio c/w:     0.446 speedup

