22
 energy: -31.874308418219 gnorm: 0.027566836607 xtb: 6.7.1 (edcfbbe)
C            3.37554846956867       -0.08619119944605       -0.03983378453883
N            1.95682504374780       -0.40408115408037        0.11919192035377
C            1.67237244877828       -1.70233175940614        0.73084270456892
C            1.04726625809312        0.57362588725818       -0.06921303648231
O            1.38502664312982        1.74941709270880       -0.32692695981191
C           -0.40759171058114        0.23321069554088       -0.00688085146922
C           -0.94740643953028       -0.82816520146373       -0.73897395906173
C           -2.32108616306135       -1.05022213773256       -0.73434823240387
C           -3.16062943497777       -0.22724195634843        0.01299939629528
C           -2.62516520364405        0.83210688663267        0.74355241276252
C           -1.25540522343644        1.07125877511162        0.72274220693485
H            3.51692800938126        0.60916961786856       -0.86834666614472
H            3.91587588435864       -1.01122778728273       -0.25351244306364
H            3.78846978011258        0.36098903332863        0.87284085047426
H            1.85137127511799       -2.51849621227072        0.02242581427212
H            0.64256723577524       -1.74998506577868        1.08122587812698
H            2.33545005185292       -1.83877589154765        1.59241512767527
H           -0.29705602612819       -1.47230603701255       -1.32218827586238
H           -2.73563063130141       -1.86786711534756       -1.31539520083555
H           -4.23086742886702       -0.40806657815408        0.02263297926466
H           -3.27648982253764        1.47585349065850        1.32607074668149
H           -0.83483347480897        1.90353211040190        1.27844334346070
22
 energy: -31.875710894425 gnorm: 0.007587025408 xtb: 6.7.1 (edcfbbe)
C            3.36454803304930       -0.09455967687662       -0.03392720220623
N            1.95334157709965       -0.40522940119700        0.12456636889486
C            1.66931408652328       -1.69279728698654        0.73041987774421
C            1.04818826052124        0.56795807671692       -0.06649013681584
O            1.38948440199440        1.72780396733694       -0.34390800306121
C           -0.40383773743707        0.22584061870204        0.00161576011103
C           -0.94393968385186       -0.82846862670155       -0.73069388313003
C           -2.31161081169980       -1.04835836190748       -0.72626052150530
C           -3.14789696416358       -0.22860018415752        0.01550274814810
C           -2.61557170709164        0.82558496836897        0.74189233766398
C           -1.25140300716266        1.06125178933693        0.72422012020520
H            3.48482252974190        0.61593540981189       -0.85022503333048
H            3.90277701840534       -1.01348991369497       -0.26150447728933
H            3.77174347799666        0.35232701027908        0.87673966106031
H            1.85027510381322       -2.49619968447173        0.01357385463221
H            0.63781672691166       -1.73392158501138        1.06933571529191
H            2.33062865095934       -1.83074353499143        1.58848156429275
H           -0.29814822075256       -1.46008554176359       -1.32349699376439
H           -2.72540813264801       -1.86087134363531       -1.30600514450225
H           -4.21393552957467       -0.40554358341545        0.02144027792409
H           -3.26497204130557        1.47096003568404        1.31605347234783
H           -0.83067649028653        1.89541234221226        1.26843360848526
22
 energy: -31.875906532336 gnorm: 0.002571756319 xtb: 6.7.1 (edcfbbe)
C            3.35844546983616       -0.09645726464217       -0.02893462713936
N            1.95068829643600       -0.40359241328041        0.12917426805743
C            1.66390732305250       -1.68746008191877        0.73059712916861
C            1.04950550753190        0.56828221380036       -0.07429502136381
O            1.39360427482583        1.72050880060058       -0.36587687515196
C           -0.40094966367132        0.22468825564374        0.00185119054106
C           -0.94099278910530       -0.82714971758329       -0.73174065246433
C           -2.30637985958064       -1.04939381653821       -0.72300152848417
C           -3.14147335719807       -0.23143080113554        0.01932203130953
C           -2.61015487032952        0.82293431989836        0.74305561252336
C           -1.24753011426880        1.05780079558456        0.72515572197223
H            3.47074845028591        0.62871922160970       -0.83364774730768
H            3.89338798099365       -1.01083533882628       -0.27293847726020
H            3.76800523385984        0.33919317308456        0.88468484208951
H            1.84845926161596       -2.48822476806260        0.01307567262775
H            0.63076104536869       -1.72920455168136        1.06180441492912
H            2.31916694634335       -1.82886088865141        1.59086208415288
H           -0.29595708038548       -1.45560127937524       -1.32584640193494
H           -2.71959434450904       -1.86162609322676       -1.30048089236396
H           -4.20586284159496       -0.40789086733387        0.02532389670122
H           -3.25816632864770        1.46954353853548        1.31432175641014
H           -0.82407899981689        1.89026305713706        1.26729757418421
22
 energy: -31.876041400816 gnorm: 0.003413046743 xtb: 6.7.1 (edcfbbe)
C            3.35496266366306       -0.09771223972850       -0.02297608340052
N            1.94844322384285       -0.39993369220807        0.13622959439730
C            1.65710767848170       -1.68216198590632        0.73288053274557
C            1.05070713094681        0.57064263315999       -0.08583218961817
O            1.39708749193747        1.71568416434596       -0.39835854599119
C           -0.39884081238947        0.22645714429920       -0.00247544912792
C           -0.93861490599928       -0.82517022736258       -0.73613875263759
C           -2.30264076983317       -1.05157133143796       -0.72080129579291
C           -3.13671524513672       -0.23519444730433        0.02404152664064
C           -2.60570576729815        0.81993114738759        0.74625851235942
C           -1.24389730806393        1.05646711587563        0.72496194713477
H            3.46291213831123        0.64710321370980       -0.81126437562032
H            3.88516304578149       -1.00737569166705       -0.29171351528080
H            3.77166622544918        0.31649521510644        0.89747329383999
H            1.84647516051748       -2.48206593274929        0.01550437371025
H            0.62158838818159       -1.72568659726327        1.05597754556753
H            2.30520942364357       -1.82690232302606        1.59745183000280
H           -0.29381084008575       -1.44980588132975       -1.33364044903885
H           -2.71573315965070       -1.86471596687459       -1.29597677369288
H           -4.20008112983580       -0.41350962022613        0.03312857424025
H           -3.25237956176509        1.46623772624102        1.31810627864989
H           -0.81736352965630        1.88699307059677        1.26692739210940
22
 energy: -31.876288805220 gnorm: 0.007664082513 xtb: 6.7.1 (edcfbbe)
C            3.35192837895374       -0.10043370803463       -0.00779848470392
N            1.94501198625609       -0.38842704959576        0.15339193497920
C            1.64179018403382       -1.66823884532776        0.74166099855634
C            1.05288963248376        0.57609095481731       -0.11963485958491
O            1.40207271986401        1.70613373372261       -0.48077127208261
C           -0.39564805129921        0.23256302226482       -0.01906762020175
C           -0.93627766034251       -0.81895578137195       -0.75234900423759
C           -2.29795655653896       -1.05589267578182       -0.71890255497315
C           -3.12830180396379       -0.24527808991391        0.03689640958778
C           -2.59634540098655        0.81140154968850        0.75615149042092
C           -1.23581473019326        1.05413020423823        0.72275313444875
H            3.45565676860931        0.69399217150745       -0.75170329382531
H            3.86744667356415       -0.99968957323132       -0.34280362213249
H            3.78964127172757        0.25021562690873        0.93304498983678
H            1.84307366211121       -2.46796870798115        0.02608154975941
H            0.60040144126832       -1.71507972427471        1.04611215378842
H            2.27363614912050       -1.81839235034791        1.61743200229931
H           -0.29244315651280       -1.43565141326716       -1.35884870102300
H           -2.71207924732310       -1.87209583989114       -1.28838467188717
H           -4.19006272936344       -0.42990918482948        0.05696154496899
H           -3.23974407013758        1.45428785441423        1.33462938628797
H           -0.80333592028916        1.88140331992530        1.26491246091474
22
 energy: -31.876456578609 gnorm: 0.010161555926 xtb: 6.7.1 (edcfbbe)
C            3.35373809904356       -0.10230157386364        0.00466295195113
N            1.94401104046487       -0.37655948058848        0.16576035390301
C            1.63063857549831       -1.65504510335013        0.75138384628749
C            1.05417007064643        0.57911171048670       -0.15021167506405
O            1.40307317257481        1.69807518799752       -0.54661621122135
C           -0.39462395508766        0.23796687590054       -0.03843088226666
C           -0.93826208544526       -0.81308517832209       -0.77085372483915
C           -2.29861450990930       -1.05803894929457       -0.72105188980990
C           -3.12396144352252       -0.25404689812697        0.04841564157687
C           -2.58884834484857        0.80264672565893        0.76612616039105
C           -1.22915009876856        1.05210107697524        0.71853940254552
H            3.46244713664549        0.72763496844296       -0.70065201795581
H            3.85512236223540       -0.99194195235340       -0.38191247638401
H            3.80783573026099        0.19102086766241        0.96083182660995
H            1.84059771121656       -2.45673143225953        0.03934164831529
H            0.58519024013779       -1.70218815697635        1.04277764387282
H            2.25122270770771       -1.80599844548469        1.63562104235311
H           -0.29667568636928       -1.42416711386992       -1.38631946692108
H           -2.71537113881864       -1.87574476945753       -1.28725009089689
H           -4.18486839304099       -0.44518560713386        0.08140975473536
H           -3.22876885532015        1.43956676861768        1.35591129692832
H           -0.79336279425883        1.87711597297766        1.26228083708570
22
 energy: -31.876659702042 gnorm: 0.006792297040 xtb: 6.7.1 (edcfbbe)
C            3.35956939928608       -0.10282310491450        0.01306984740389
N            1.94540117508883       -0.36583177563094        0.17173330561659
C            1.62462717692760       -1.64361289345317        0.76165832660315
C            1.05485550309241        0.57846664042426       -0.17482337052669
O            1.40094177275936        1.69092084031909       -0.58991772684364
C           -0.39541874550787        0.24075512460277       -0.05833840591389
C           -0.94470140736902       -0.80833722902471       -0.79048659200139
C           -2.30478163538143       -1.05714279274948       -0.72798309357559
C           -3.12363245401167       -0.26043537270055        0.05747221930800
C           -2.58273145179579        0.79380327575296        0.77589376019933
C           -1.22339286780978        1.04894868221259        0.71363368643022
H            3.48129159663264        0.74359071570816       -0.66366053244131
H            3.84994859070492       -0.98335126524379       -0.40268689755688
H            3.82053871592816        0.14776967724407        0.97601898232463
H            1.83835917453852       -2.44964649334673        0.05498543519394
H            0.57743027814105       -1.68718439302504        1.04706360815096
H            2.24019569951920       -1.79026763377690        1.65061181782656
H           -0.30704804209938       -1.41660497521991       -1.41450351689655
H           -2.72594608311521       -1.87384359489414       -1.29425799688811
H           -4.18434260073373       -0.45700148157207        0.10405938216442
H           -3.21869928436886        1.42307153594060        1.38049467168591
H           -0.78692496938387        1.87296200698593        1.25972706093318
22
 energy: -31.876801891529 gnorm: 0.004631220784 xtb: 6.7.1 (edcfbbe)
C            3.36504689412688       -0.10381148225792        0.02004664815437
N            1.94711066155509       -0.35615220168413        0.17491438987539
C            1.62020539794781       -1.63041128359341        0.77478027114217
C            1.05624717468092        0.57557748097258       -0.19580916694487
O            1.39949964833237        1.68107843665511       -0.63309595527124
C           -0.39553810138502        0.23903966403433       -0.07611035684461
C           -0.95241363272807       -0.80526625239810       -0.80946578641871
C           -2.31199094267872       -1.05468795555065       -0.73689393245273
C           -3.12258208196421       -0.26655671067434        0.06569123178751
C           -2.57433738671661        0.78300047299454        0.78534792070145
C           -1.21606283719135        1.04210564967405        0.70879470380145
H            3.49623358918946        0.76773537158355       -0.62175196764567
H            3.84259518490339       -0.97443843513756       -0.43354903661097
H            3.82853434818508        0.09740036357957        0.99226313171056
H            1.83306390195213       -2.44254407673129        0.07545389084606
H            0.57241636481973       -1.66527870077441        1.05767735485370
H            2.23407235768473       -1.76916568988376        1.66595108934679
H           -0.32078329465725       -1.41059690162106       -1.44326187302726
H           -2.73880158813451       -1.86679431678802       -1.30638239358380
H           -4.18249569757909       -0.46646231591010        0.12503663501952
H           -3.20491553221671        1.40462270952263        1.40454177129390
H           -0.77956488708388        1.86581166762687        1.25558540146373
22
 energy: -31.876885384965 gnorm: 0.003703463751 xtb: 6.7.1 (edcfbbe)
C            3.36849071422107       -0.10381271779288        0.02232253834505
N            1.94884528829488       -0.35179176670360        0.17182672508057
C            1.61922173432494       -1.61965229026991        0.78753675372903
C            1.05724850417281        0.56994645382382       -0.21071582068594
O            1.39738671387065        1.67244518498224       -0.65609651725964
C           -0.39527782354043        0.23276843967270       -0.08699429877352
C           -0.95971573859207       -0.80441997872039       -0.82373066872614
C           -2.31923181076026       -1.05048963029297       -0.74629224019873
C           -3.12222600765717       -0.26937226306994        0.06968896902096
C           -2.56652183277635        0.77302036243475        0.79332481762113
C           -1.20916326712944        1.03199520020124        0.70768989201886
H            3.50582971898901        0.77986224559484       -0.59604337522486
H            3.83938957694061       -0.96418426666883       -0.45171462462260
H            3.82765695486600        0.06697675520046        0.99650471481045
H            1.82649192432441       -2.43886746716613        0.09606567585966
H            0.57211046472035       -1.64436386626770        1.07302763957121
H            2.23602089069581       -1.74892137923309        1.67758390552081
H           -0.33450161386668       -1.40796908860904       -1.46542363157858
H           -2.75172828793791       -1.85461551343887       -1.32266785029023
H           -4.18134461384707       -0.46829794626012        0.13578650112041
H           -3.19145419441611        1.38966162047392        1.42250707954702
H           -0.77198775385487        1.85428740574801        1.25557778631184
22
 energy: -31.876895034368 gnorm: 0.007387029735 xtb: 6.7.1 (edcfbbe)
C            3.36991441184455       -0.10497318971042        0.03021328691269
N            1.94895207535280       -0.34317536664245        0.17527156400016
C            1.61203210643161       -1.60150755682586        0.80628450780625
C            1.05888014296188        0.56616405934942       -0.23993193269139
O            1.39645694880432        1.65838985932234       -0.71657281543775
C           -0.39351430491940        0.22809248202350       -0.10528704809473
C           -0.96613146069439       -0.80098407612430       -0.84592503991786
C           -2.32474464783002       -1.04743766189859       -0.75597001605859
C           -3.11830366078027       -0.27585712392686        0.07786570032910
C           -2.55426170255102        0.75868512851379        0.80552096162277
C           -1.19839031228544        1.01926520032819        0.70597784960109
H            3.51029865040442        0.81607902173871       -0.54072930982132
H            3.82723348657421       -0.94762665051510       -0.49937523191383
H            3.83606735073847        0.00103919921497        1.01639155057894
H            1.81696387660071       -2.42948067985984        0.12516453948492
H            0.56383423607757       -1.61652442758960        1.08864113808164
H            2.22635201312229       -1.72207026231535        1.69882830799703
H           -0.34820151329804       -1.39948154222258       -1.49906426676291
H           -2.76376249148599       -1.84414821525687       -1.33701334455655
H           -4.17599246882237       -0.47567987219274        0.15482469917706
H           -3.17143917550885        1.36856211963045        1.44810034910142
H           -0.75670401969485        1.83687504859772        1.25654852175865
22
 energy: -31.876955632471 gnorm: 0.003139787794 xtb: 6.7.1 (edcfbbe)
C            3.36726421053911       -0.10432637170142        0.02543305997310
N            1.94819081009464       -0.34837260182597        0.17341830436737
C            1.61413521581108       -1.60687425268734        0.80274122982294
C            1.05832665734735        0.56662490294492       -0.22859615864360
O            1.39737813148795        1.66133943306679       -0.69664820882730
C           -0.39340769691135        0.22817049535882       -0.09802885070891
C           -0.96325398094708       -0.80176262471167       -0.83949082136947
C           -2.32237797056698       -1.04705679547711       -0.75447353108373
C           -3.11902379952558       -0.27249496121089        0.07284533805034
C           -2.55742027964109        0.76245067428869        0.80188074524691
C           -1.20103732500185        1.02076020028753        0.70875257019992
H            3.50309153665867        0.80220753151127       -0.56159375069996
H            3.83200486114941       -0.94918886777383       -0.48447558489108
H            3.83130271261050        0.02613523452565        1.00427514617919
H            1.81734196576854       -2.43417164759994        0.12014452828470
H            0.56690349945144       -1.62435065963146        1.08853260931156
H            2.23072739218920       -1.72915767460754        1.69340662726668
H           -0.34321653578936       -1.40119495420143       -1.48908049347554
H           -2.75954934766812       -1.84491842349651       -1.33484080754943
H           -4.17723592193473       -0.47053105857783        0.14421603196633
H           -3.17623554939484        1.37427309393337        1.44025203561473
H           -0.75836904468472        1.83664482122444        1.26109395216203
22
 energy: -31.876974960920 gnorm: 0.001610399838 xtb: 6.7.1 (edcfbbe)
C            3.36614668009694       -0.10428168388100        0.02457977444956
N            1.94769578078888       -0.34882170439100        0.17288364677115
C            1.61223540865009       -1.60299592745070        0.80833434715163
C            1.05856380672772        0.56507107390589       -0.23367931147305
O            1.39779630318826        1.65699295618555       -0.70543210730539
C           -0.39267165190342        0.22675021854690       -0.10090937222248
C           -0.96372075304160       -0.80066667243838       -0.84467590703610
C           -2.32287456699796       -1.04561973397900       -0.75777226493316
C           -3.11799923600570       -0.27277754515162        0.07244790004060
C           -2.55483868984101        0.75933229852915        0.80446060040239
C           -1.19845825641697        1.01650903736645        0.71058368344193
H            3.50027796962711        0.80825763792853       -0.55308995991750
H            3.83036266108392       -0.94263398358543       -0.49562472715556
H            3.83267661703823        0.01567139253023        1.00323933907629
H            1.81341675954184       -2.43465802969366        0.13020176288446
H            0.56514336299038       -1.61802712313318        1.09529474083919
H            2.22893919988476       -1.72222037054669        1.69941109711791
H           -0.34487235050621       -1.39853364735310       -1.49658566174220
H           -2.76130920712306       -1.84197968869026       -1.33900774911594
H           -4.17625800433822       -0.47005192732648        0.14422439661613
H           -3.17187450556648        1.36969744556254        1.44563301902263
H           -0.75283778683532        1.82919147070377        1.26524672428426
22
 energy: -31.876989629550 gnorm: 0.002302464303 xtb: 6.7.1 (edcfbbe)
C            3.36433600224201       -0.10503244641477        0.02259658494493
N            1.94674204941058       -0.34822073432988        0.17375941045580
C            1.60623134263788       -1.59003053093224        0.82744537498246
C            1.05939343067944        0.56117129308760       -0.24931993901021
O            1.39880402100319        1.64241484113524       -0.74595887952860
C           -0.39087281798172        0.22311223166111       -0.10975793323763
C           -0.96569311538267       -0.79674773201283       -0.86065955483737
C           -2.32477462090052       -1.04082113022337       -0.76885517225846
C           -3.11493178465878       -0.27480524355789        0.07245373707396
C           -2.54710338374804        0.74836756518471        0.81393161506887
C           -1.19089170987713        1.00398955347268        0.71620114839308
H            3.49498147501735        0.82904615354776       -0.52138929895744
H            3.82352525629954       -0.92265111274845       -0.53475536443322
H            3.84032168531309       -0.02394432508557        1.00148057905193
H            1.80215758890707       -2.43453301568854        0.16285285055629
H            0.55890078495538       -1.59685253983822        1.11562586251546
H            2.22218827437427       -1.69987247604273        1.72060410434384
H           -0.35039139271687       -1.38804546856601       -1.52198691582442
H           -2.76721975889392       -1.83132596324585       -1.35505533303910
H           -4.17341987436129       -0.47037284320431        0.14594244947447
H           -3.15925066849634        1.35245222315346        1.46568711251296
H           -0.73749324278032        1.80690719428663        1.27892153294916
22
 energy: -31.876996031432 gnorm: 0.000950437542 xtb: 6.7.1 (edcfbbe)
C            3.36520614415209       -0.10538412393615        0.02120741844591
N            1.94724651073644       -0.34875708803118        0.17290970547779
C            1.60751889439870       -1.59154878366238        0.82589314597973
C            1.05919984163558        0.56121701273271       -0.24693710643277
O            1.39848075400780        1.64371582710520       -0.73814356025191
C           -0.39137266468382        0.22372628928226       -0.10756028121213
C           -0.96548161970617       -0.79671958401245       -0.85837718492406
C           -2.32460123712936       -1.04102518495755       -0.76805707963278
C           -3.11575051087192       -0.27432484606886        0.07170832447417
C           -2.54882292563916        0.74955933510027        0.81271834578442
C           -1.19237638006876        1.00530810022965        0.71663912507529
H            3.49645149039847        0.82607151048123       -0.52624468576994
H            3.82385290746984       -0.92526460999981       -0.53220497053695
H            3.84084942576974       -0.01999139761327        0.99961276781386
H            1.80420452746076       -2.43505785713838        0.16066136749225
H            0.56018504300543       -1.59888106500696        1.11377913535165
H            2.22351073950952       -1.70139541548184        1.71906479443739
H           -0.34917746238746       -1.38885607508099       -1.51792356167457
H           -2.76628165424428       -1.83218459923672       -1.35413108961715
H           -4.17444416178376       -0.46995779974872        0.14408127765680
H           -3.16228633596390        1.35432591588578        1.46261413255700
H           -0.74057178502362        1.80962993279671        1.27845395070278
22
 energy: -31.876999777415 gnorm: 0.000639371822 xtb: 6.7.1 (edcfbbe)
C            3.36653281726336       -0.10661313418404        0.01892548230395
N            1.94810282809404       -0.34876970554442        0.17343917118594
C            1.60973467190965       -1.59346804278245        0.82468869370401
C            1.05894347604624        0.56174499874068       -0.24249300488159
O            1.39770482244984        1.64540595340699       -0.73169299845169
C           -0.39211747625348        0.22473166479138       -0.10340964697009
C           -0.96500446078990       -0.79639115287928       -0.85452969927211
C           -2.32417057810839       -1.04089728557712       -0.76733458583570
C           -3.11699184386551       -0.27366115069934        0.07035299882425
C           -2.55159480377745        0.75095612448421        0.81111508882567
C           -1.19489187030133        1.00738912979861        0.71761493743089
H            3.49840393460264        0.82175318750950       -0.53236853326097
H            3.82320747741463       -0.92952089217123       -0.53060118921299
H            3.84245493696751       -0.01678171237614        0.99616049999938
H            1.80850400508813       -2.43484050109734        0.15804531698961
H            0.56222629259875       -1.60202543168520        1.11111213203042
H            2.22531992902200       -1.70331958215612        1.71800253364964
H           -0.34703588604867       -1.38907042299337       -1.51205863125155
H           -2.76451754076081       -1.83231372211591       -1.35418052535601
H           -4.17583844541779       -0.46964665069272        0.14101369994387
H           -3.16720500893415        1.35598603144186        1.45884045966511
H           -0.74622773615708        1.81355779041998        1.27912177113671
22
 energy: -31.877002847568 gnorm: 0.000774877823 xtb: 6.7.1 (edcfbbe)
C            3.36676876965547       -0.10787037760382        0.01639925541112
N            1.94839203445041       -0.34843056267418        0.17434921083190
C            1.61044118604558       -1.59274513527793        0.82682032060610
C            1.05885183848618        0.56184202320586       -0.24138493523357
O            1.39717571210632        1.64480908072829       -0.73202886061162
C           -0.39224787058472        0.22513140995547       -0.10133232988909
C           -0.96446054036711       -0.79554019416648       -0.85376275347489
C           -2.32366852279702       -1.04025394610794       -0.76829413872837
C           -3.11738950489568       -0.27349356134086        0.06905263180900
C           -2.55270772130093        0.75052572614669        0.81109246356931
C           -1.19580393993948        1.00717542789611        0.71940814969953
H            3.49830371839172        0.82267181429776       -0.53189713791804
H            3.82050041272995       -0.92977152947501       -0.53779142669689
H            3.84562449119472       -0.02257881812921        0.99307178269513
H            1.81114703807701       -2.43471718986444        0.16147933563159
H            0.56258600318927       -1.60178518148952        1.11174753112930
H            2.22489083143232       -1.70077848566447        1.72115844508093
H           -0.34551432324557       -1.38769647463533       -1.51087494192064
H           -2.76332644647152       -1.83122092971360       -1.35620331763669
H           -4.17634174409002       -0.46942782357092        0.13827930245008
H           -3.16927725867210        1.35513075973627        1.45832169362343
H           -0.74840462235260        1.81322946138578        1.28215369076913
22
 energy: -31.877006962484 gnorm: 0.000416668047 xtb: 6.7.1 (edcfbbe)
C            3.36626166088918       -0.11025102191133        0.01113818957927
N            1.94852417083578       -0.34821273575075        0.17641570169627
C            1.61179912112696       -1.59163150009581        0.83078338896840
C            1.05854818864551        0.56256226044792       -0.23794225057070
O            1.39616641830277        1.64446579175038       -0.73214325702521
C           -0.39227560577050        0.22580645853794       -0.09652172006479
C           -0.96263008051230       -0.79427916733052       -0.85136344289465
C           -2.32204262821844       -1.03901365860270       -0.76995426051198
C           -3.11806755137193       -0.27270080263134        0.06579342274023
C           -2.55512142464506        0.75014652050176        0.81081969126424
C           -1.19779526874309        1.00671270392743        0.72332848843355
H            3.49662179654161        0.82305259892025       -0.53291124447487
H            3.81475471547852       -0.92996522631517       -0.55052241677322
H            3.85156885104237       -0.03177263338608        0.98527320272295
H            1.81717353448748       -2.43472621194289        0.16799233100750
H            0.56301091561031       -1.60303131596803        1.11224656468921