      -----------------------------------------------------------      
     |                   =====================                   |     
     |                           x T B                           |     
     |                   =====================                   |     
     |                         S. Grimme                         |     
     |          Mulliken Center for Theoretical Chemistry        |     
     |                    University of Bonn                     |     
      -----------------------------------------------------------      

   * xtb version 6.7.1 (edcfbbe) compiled by 'albert@albert-system' on 2024-07-22

   xtb is free software: you can redistribute it and/or modify it under
   the terms of the GNU Lesser General Public License as published by
   the Free Software Foundation, either version 3 of the License, or
   (at your option) any later version.
   
   xtb is distributed in the hope that it will be useful,
   but WITHOUT ANY WARRANTY; without even the implied warranty of
   MERCHANTABILITY or FITNESS FOR A PARTICULAR PURPOSE.  See the
   GNU Lesser General Public License for more details.
   
   Cite this work as:
   * C. Bannwarth, E. Caldeweyher, S. Ehlert, A. Hansen, P. Pracht,
     J. Seibert, S. Spicher, S. Grimme, WIREs Comput. Mol. Sci., 2020, 11,
     e01493. DOI: 10.1002/wcms.1493
   
   for GFN2-xTB:
   * C. Bannwarth, S. Ehlert and S. Grimme., J. Chem. Theory Comput., 2019,
     15, 1652-1671. DOI: 10.1021/acs.jctc.8b01176
   for GFN1-xTB:
   * S. Grimme, C. Bannwarth, P. Shushkov, J. Chem. Theory Comput., 2017,
     13, 1989-2009. DOI: 10.1021/acs.jctc.7b00118
   for GFN0-xTB:
   * P. Pracht, E. Caldeweyher, S. Ehlert, S. Grimme, ChemRxiv, 2019, preprint.
     DOI: 10.26434/chemrxiv.8326202.v1
   for GFN-FF:
   * S. Spicher and S. Grimme, Angew. Chem. Int. Ed., 2020, 59, 15665-15673.
     DOI: 10.1002/anie.202004239
   
   for ALPB and GBSA implicit solvation:
   * S. Ehlert, M. Stahn, S. Spicher, S. Grimme, J. Chem. Theory Comput.,
     2021, 17, 4250-4261. DOI: 10.1021/acs.jctc.1c00471
   
   for ddCOSMO and CPCM-X implicit solvation:
   * M. Stahn, S. Ehlert, S. Grimme, J. Phys. Chem. A,
     2023, XX, XXXX-XXXX. DOI: 10.1021/acs.jpca.3c04382
   
   for DFT-D4:
   * E. Caldeweyher, C. Bannwarth and S. Grimme, J. Chem. Phys., 2017,
     147, 034112. DOI: 10.1063/1.4993215
   * E. Caldeweyher, S. Ehlert, A. Hansen, H. Neugebauer, S. Spicher,
     C. Bannwarth and S. Grimme, J. Chem. Phys., 2019, 150, 154122.
     DOI: 10.1063/1.5090222
   * E. Caldeweyher, J.-M. Mewes, S. Ehlert and S. Grimme, Phys. Chem. Chem. Phys.
     2020, 22, 8499-8512. DOI: 10.1039/D0CP00502A
   
   for sTDA-xTB:
   * S. Grimme and C. Bannwarth, J. Chem. Phys., 2016, 145, 054103.
     DOI: 10.1063/1.4959605
   
   in the mass-spec context:
   * V. Asgeirsson, C. Bauer and S. Grimme, Chem. Sci., 2017, 8, 4879.
     DOI: 10.1039/c7sc00601b
   * J. Koopman and S. Grimme, ACS Omega 2019, 4, 12, 15120-15133.
     DOI: 10.1021/acsomega.9b02011
   
   for metadynamics refer to:
   * S. Grimme, J. Chem. Theory Comput., 2019, 155, 2847-2862
     DOI: 10.1021/acs.jctc.9b00143
   
   for SPH calculations refer to:
   * S. Spicher and S. Grimme, J. Chem. Theory Comput., 2021, 17, 1701-1714
     DOI: 10.1021/acs.jctc.0c01306
   
   for ONIOM refer to:
   * C. Plett, A. Katbashev, S. Ehlert, S. Grimme, M. Bursch,
     Phys. Chem. Chem. Phys., 2023, 25, 17860-17868. DOI: 10.1039/D3CP02178E
   
   for DIPRO refer to:
   * J. Kohn, N. Gildemeister, S. Grimme, D. Fazzi, A. Hansen,
     J. Chem. Phys., 2023, just accepted.
   
   for PTB refer to:
   * S. Grimme, M. Mueller, A. Hansen, J. Chem. Phys., 2023, 158, 124111.
     DOI: 10.1063/5.0137838
   
   with help from (in alphabetical order)
   P. Atkinson, C. Bannwarth, F. Bohle, G. Brandenburg, E. Caldeweyher
   M. Checinski, S. Dohm, S. Ehlert, S. Ehrlich, I. Gerasimov, C. Hölzer
   A. Katbashev, J. Kohn, J. Koopman, C. Lavigne, S. Lehtola, F. März, M. Müller,
   F. Musil, H. Neugebauer, J. Pisarek, C. Plett, P. Pracht, F. Pultar,
   J. Seibert, P. Shushkov, S. Spicher, M. Stahn, M. Steiner, T. Strunk,
   J. Stückrath, T. Rose, and J. Unsleber
   
 * started run on 2025/04/05 at 08:54:59.715     
   ID    Z sym.   atoms
    1    6 C      1-6, 12-17
    2   17 Cl     7-11, 18-22

           -------------------------------------------------
          |                Calculation Setup                |
           -------------------------------------------------

          program call               : /srv/scratch/z5358697/.xtb/bin/xtb solv.coord --gfn2 --sp --chrg 0 --norestart --parallel 1 --alpb water reference -I xtb_sp-xcontrol-inp
          hostname                   : k142
          coordinate file            : solv.coord
          omp threads                :                     1


           -------------------------------------------------
          |                 G F N 2 - x T B                 |
           -------------------------------------------------

        Reference                      10.1021/acs.jctc.8b01176
      * Hamiltonian:
        H0-scaling (s, p, d)           1.850000    2.230000    2.230000
        zeta-weighting                 0.500000
      * Dispersion:
        s8                             2.700000
        a1                             0.520000
        a2                             5.000000
        s9                             5.000000
      * Repulsion:
        kExp                           1.500000    1.000000
        rExp                           1.000000
      * Coulomb:
        alpha                          2.000000
        third order                    shell-resolved
        anisotropic                    true
        a3                             3.000000
        a5                             4.000000
        cn-shift                       1.200000
        cn-exp                         4.000000
        max-rad                        5.000000

      * Solvation model:               ALPB
        Solvent                        water
        Parameter file                 internal GFN2-xTB/ALPB
        Dielectric constant                8.0200E+01
        Reference state                gsolv=reference [X=1]
        Free energy shift                  2.8945E-03 Eh       1.8164E+00 kcal/mol
        Temperature                        2.9815E+02 K
        Density                            1.0000E+00 kg/L
        Solvent mass                       1.8000E+01 g/mol
        Interaction kernel             P16
        Born radius scaling (c1)           1.4744E+00
        Born radii integrator          GBOBC
        Born offset                        0.0000E+00 a0       0.0000E+00 AA
        H-bond correction              true
        Ion screening                  false
        Surface tension                    1.0000E-05 Eh       1.5569E+01 dyn/cm
        Grid points                               974 per atom

          ...................................................
          :                      SETUP                      :
          :.................................................:
          :  # basis functions                 148          :
          :  # atomic orbitals                 138          :
          :  # shells                           54          :
          :  # electrons                       118          :
          :  max. iterations                   250          :
          :  Hamiltonian                  GFN2-xTB          :
          :  restarted?                      false          :
          :  GBSA solvation                   true          :
          :  PC potential                    false          :
          :  electronic temp.          300.0000000     K    :
          :  accuracy                    1.0000000          :
          :  -> integral cutoff          0.2500000E+02      :
          :  -> integral neglect         0.1000000E-07      :
          :  -> SCF convergence          0.1000000E-05 Eh   :
          :  -> wf. convergence          0.1000000E-03 e    :
          :  Broyden damping             0.4000000          :
          :  net charge                          0          :
          :  unpaired electrons                  0          :
          ...................................................

 iter      E             dE          RMSdq      gap      omega  full diag
   1    -71.6544767 -0.716545E+02  0.513E+00    3.87       0.0  T
   2    -71.7103295 -0.558528E-01  0.275E+00    3.44       1.0  T
   3    -71.7050104  0.531910E-02  0.121E+00    3.41       1.0  T
   4    -71.7117230 -0.671261E-02  0.419E-01    3.49       1.0  T
   5    -71.7153008 -0.357782E-02  0.363E-02    3.43       1.0  T
   6    -71.7153079 -0.704150E-05  0.262E-02    3.43       1.0  T
   7    -71.7153109 -0.301424E-05  0.135E-02    3.43       1.6  T
   8    -71.7153119 -0.105606E-05  0.910E-03    3.43       2.3  T
   9    -71.7153122 -0.302817E-06  0.490E-03    3.43       4.3  T
  10    -71.7153126 -0.329477E-06  0.189E-03    3.43      11.3  T
  11    -71.7153126 -0.219548E-07  0.118E-03    3.43      18.0  T
  12    -71.7153126 -0.109123E-07  0.688E-04    3.43      31.0  T
  13    -71.7153126 -0.510957E-08  0.245E-04    3.43      86.9  T

   *** convergence criteria satisfied after 13 iterations ***

         #    Occupation            Energy/Eh            Energy/eV
      -------------------------------------------------------------
         1        2.0000           -1.0839234             -29.4951
       ...           ...                  ...                  ...
        53        2.0000           -0.4452763             -12.1166
        54        2.0000           -0.4413680             -12.0102
        55        2.0000           -0.4413671             -12.0102
        56        2.0000           -0.4245590             -11.5528
        57        2.0000           -0.4236414             -11.5279
        58        2.0000           -0.4175586             -11.3623
        59        2.0000           -0.4168892             -11.3441 (HOMO)
        60                         -0.2908444              -7.9143 (LUMO)
        61                         -0.2876827              -7.8282
        62                         -0.2870231              -7.8103
        63                         -0.2864828              -7.7956
        64                         -0.2029667              -5.5230
       ...                                ...                  ...
       138                          0.5656377              15.3918
      -------------------------------------------------------------
                  HL-Gap            0.1260448 Eh            3.4299 eV
             Fermi-level           -0.3538668 Eh           -9.6292 eV

 SCC (total)                   0 d,  0 h,  0 min,  0.062 sec
 SCC setup                      ...        0 min,  0.001 sec (  1.986%)
 Dispersion                     ...        0 min,  0.000 sec (  0.216%)
 classical contributions        ...        0 min,  0.000 sec (  0.037%)
 integral evaluation            ...        0 min,  0.009 sec ( 14.798%)
 iterations                     ...        0 min,  0.031 sec ( 49.491%)
 molecular gradient             ...        0 min,  0.021 sec ( 33.103%)
 printout                       ...        0 min,  0.000 sec (  0.344%)

         :::::::::::::::::::::::::::::::::::::::::::::::::::::
         ::                     SUMMARY                     ::
         :::::::::::::::::::::::::::::::::::::::::::::::::::::
         :: total energy             -71.237761150544 Eh    ::
         :: total w/o Gsasa/hb       -71.238924677945 Eh    ::
         :: gradient norm              0.000173231047 Eh/a0 ::
         :: HOMO-LUMO gap              3.429853042215 eV    ::
         ::.................................................::
         :: SCC energy               -71.714818573234 Eh    ::
         :: -> isotropic ES            0.031895312102 Eh    ::
         :: -> anisotropic ES          0.002899326240 Eh    ::
         :: -> anisotropic XC          0.008898833071 Eh    ::
         :: -> dispersion             -0.050612210031 Eh    ::
         :: -> Gsolv                  -0.002609197188 Eh    ::
         ::    -> Gelec               -0.003772724589 Eh    ::
         ::    -> Gsasa               -0.001705096274 Eh    ::
         ::    -> Ghb                 -0.000025925486 Eh    ::
         ::    -> Gshift               0.002894549160 Eh    ::
         :: repulsion energy           0.477057422690 Eh    ::
         :: add. restraining           0.000000000000 Eh    ::
         :: total charge              -0.000000000000 e     ::
         :::::::::::::::::::::::::::::::::::::::::::::::::::::

           -------------------------------------------------
          |                Property Printout                |
           -------------------------------------------------

    * Orbital Energies and Occupations

         #    Occupation            Energy/Eh            Energy/eV
      -------------------------------------------------------------
         1        2.0000           -1.0839234             -29.4951
       ...           ...                  ...                  ...
        47        2.0000           -0.4504790             -12.2582
        48        2.0000           -0.4492803             -12.2255
        49        2.0000           -0.4484280             -12.2023
        50        2.0000           -0.4476904             -12.1823
        51        2.0000           -0.4476411             -12.1809
        52        2.0000           -0.4455528             -12.1241
        53        2.0000           -0.4452763             -12.1166
        54        2.0000           -0.4413680             -12.0102
        55        2.0000           -0.4413671             -12.0102
        56        2.0000           -0.4245590             -11.5528
        57        2.0000           -0.4236414             -11.5279
        58        2.0000           -0.4175586             -11.3623
        59        2.0000           -0.4168892             -11.3441 (HOMO)
        60                         -0.2908444              -7.9143 (LUMO)
        61                         -0.2876827              -7.8282
        62                         -0.2870231              -7.8103
        63                         -0.2864828              -7.7956
        64                         -0.2029667              -5.5230
        65                         -0.1993225              -5.4238
        66                         -0.1796769              -4.8893
        67                         -0.1779227              -4.8415
        68                         -0.1769680              -4.8155
        69                         -0.1755065              -4.7758
        70                         -0.1682607              -4.5786
       ...                                ...                  ...
       138                          0.5656377              15.3918
      -------------------------------------------------------------
                  HL-Gap            0.1260448 Eh            3.4299 eV
             Fermi-level           -0.3538668 Eh           -9.6292 eV

     #   Z          covCN         q      C6AA      α(0)
     1   6 C        3.060     0.009    27.769     8.642
     2   6 C        2.923     0.093    25.935     8.352
     3   6 C        2.954     0.081    26.198     8.395
     4   6 C        2.956     0.084    26.120     8.383
     5   6 C        2.954     0.081    26.198     8.395
     6   6 C        2.924     0.093    25.937     8.352
     7  17 Cl       0.999    -0.093   102.049    15.455
     8  17 Cl       1.023    -0.086   101.855    15.440
     9  17 Cl       1.028    -0.082   101.738    15.431
    10  17 Cl       1.022    -0.086   101.855    15.440
    11  17 Cl       0.999    -0.092   102.044    15.455
    12   6 C        3.060     0.009    27.769     8.642
    13   6 C        2.923     0.093    25.937     8.352
    14   6 C        2.954     0.081    26.198     8.395
    15   6 C        2.956     0.084    26.120     8.383
    16   6 C        2.954     0.081    26.198     8.395
    17   6 C        2.923     0.093    25.936     8.352
    18  17 Cl       0.999    -0.093   102.046    15.455
    19  17 Cl       1.023    -0.086   101.853    15.440
    20  17 Cl       1.028    -0.083   101.739    15.431
    21  17 Cl       1.022    -0.086   101.856    15.440
    22  17 Cl       0.999    -0.093   102.047    15.455

 Mol. C6AA /au·bohr⁶  :      26411.521927
 Mol. C8AA /au·bohr⁸  :     966595.823732
 Mol. α(0) /au        :        255.478844


Wiberg/Mayer (AO) data.
largest (>0.10) Wiberg bond orders for each atom

 ---------------------------------------------------------------------------
     #   Z sym  total        # sym  WBO       # sym  WBO       # sym  WBO
 ---------------------------------------------------------------------------
     1   6 C    3.986 --     2 C    1.360     6 C    1.359    12 C    1.002
     2   6 C    3.936 --     1 C    1.360     3 C    1.346    11 Cl   1.021
     3   6 C    3.937 --     4 C    1.348     2 C    1.346    10 Cl   1.024
     4   6 C    3.938 --     3 C    1.348     5 C    1.348     9 Cl   1.027
     5   6 C    3.937 --     4 C    1.348     6 C    1.346     8 Cl   1.024
     6   6 C    3.936 --     1 C    1.359     5 C    1.346     7 Cl   1.021
     7  17 Cl   1.173 --     6 C    1.021
     8  17 Cl   1.182 --     5 C    1.024
     9  17 Cl   1.186 --     4 C    1.027
    10  17 Cl   1.182 --     3 C    1.024
    11  17 Cl   1.173 --     2 C    1.021
    12   6 C    3.986 --    17 C    1.360    13 C    1.359     1 C    1.002
    13   6 C    3.936 --    12 C    1.359    14 C    1.346    22 Cl   1.021
    14   6 C    3.937 --    15 C    1.348    13 C    1.346    21 Cl   1.024
    15   6 C    3.938 --    14 C    1.348    16 C    1.348    20 Cl   1.027
    16   6 C    3.937 --    15 C    1.348    17 C    1.346    19 Cl   1.024
    17   6 C    3.936 --    12 C    1.360    16 C    1.346    18 Cl   1.021
    18  17 Cl   1.173 --    17 C    1.021
    19  17 Cl   1.182 --    16 C    1.024
    20  17 Cl   1.186 --    15 C    1.027
    21  17 Cl   1.182 --    14 C    1.024
    22  17 Cl   1.173 --    13 C    1.021
 ---------------------------------------------------------------------------

Topologies differ in total number of bonds
Writing topology from bond orders to xtbtopo.mol

molecular dipole:
                 x           y           z       tot (Debye)
 q only:        0.000       0.000      -0.004
   full:        0.000       0.000      -0.002       0.005
molecular quadrupole (traceless):
                xx          xy          yy          xz          yz          zz
 q only:       -6.443      -0.048       3.813       0.013       0.001       2.630
  q+dip:       -1.691      -0.022       1.165       0.002       0.000       0.526
   full:       -3.311      -0.024       1.989       0.002      -0.000       1.321


           -------------------------------------------------
          | TOTAL ENERGY              -71.237761150544 Eh   |
          | GRADIENT NORM               0.000173231047 Eh/α |
          | HOMO-LUMO GAP               3.429853042215 eV   |
           -------------------------------------------------

------------------------------------------------------------------------
 * finished run on 2025/04/05 at 08:54:59.813     
------------------------------------------------------------------------
 total:
 * wall-time:     0 d,  0 h,  0 min,  0.098 sec
 *  cpu-time:     0 d,  0 h,  0 min,  0.076 sec
 * ratio c/w:     0.772 speedup
 SCF:
 * wall-time:     0 d,  0 h,  0 min,  0.063 sec
 *  cpu-time:     0 d,  0 h,  0 min,  0.062 sec
 * ratio c/w:     0.996 speedup

