      -----------------------------------------------------------      
     |                   =====================                   |     
     |                           x T B                           |     
     |                   =====================                   |     
     |                         S. Grimme                         |     
     |          Mulliken Center for Theoretical Chemistry        |     
     |                    University of Bonn                     |     
      -----------------------------------------------------------      

   * xtb version 6.7.1 (edcfbbe) compiled by 'albert@albert-system' on 2024-07-22

   xtb is free software: you can redistribute it and/or modify it under
   the terms of the GNU Lesser General Public License as published by
   the Free Software Foundation, either version 3 of the License, or
   (at your option) any later version.
   
   xtb is distributed in the hope that it will be useful,
   but WITHOUT ANY WARRANTY; without even the implied warranty of
   MERCHANTABILITY or FITNESS FOR A PARTICULAR PURPOSE.  See the
   GNU Lesser General Public License for more details.
   
   Cite this work as:
   * C. Bannwarth, E. Caldeweyher, S. Ehlert, A. Hansen, P. Pracht,
     J. Seibert, S. Spicher, S. Grimme, WIREs Comput. Mol. Sci., 2020, 11,
     e01493. DOI: 10.1002/wcms.1493
   
   for GFN2-xTB:
   * C. Bannwarth, S. Ehlert and S. Grimme., J. Chem. Theory Comput., 2019,
     15, 1652-1671. DOI: 10.1021/acs.jctc.8b01176
   for GFN1-xTB:
   * S. Grimme, C. Bannwarth, P. Shushkov, J. Chem. Theory Comput., 2017,
     13, 1989-2009. DOI: 10.1021/acs.jctc.7b00118
   for GFN0-xTB:
   * P. Pracht, E. Caldeweyher, S. Ehlert, S. Grimme, ChemRxiv, 2019, preprint.
     DOI: 10.26434/chemrxiv.8326202.v1
   for GFN-FF:
   * S. Spicher and S. Grimme, Angew. Chem. Int. Ed., 2020, 59, 15665-15673.
     DOI: 10.1002/anie.202004239
   
   for ALPB and GBSA implicit solvation:
   * S. Ehlert, M. Stahn, S. Spicher, S. Grimme, J. Chem. Theory Comput.,
     2021, 17, 4250-4261. DOI: 10.1021/acs.jctc.1c00471
   
   for ddCOSMO and CPCM-X implicit solvation:
   * M. Stahn, S. Ehlert, S. Grimme, J. Phys. Chem. A,
     2023, XX, XXXX-XXXX. DOI: 10.1021/acs.jpca.3c04382
   
   for DFT-D4:
   * E. Caldeweyher, C. Bannwarth and S. Grimme, J. Chem. Phys., 2017,
     147, 034112. DOI: 10.1063/1.4993215
   * E. Caldeweyher, S. Ehlert, A. Hansen, H. Neugebauer, S. Spicher,
     C. Bannwarth and S. Grimme, J. Chem. Phys., 2019, 150, 154122.
     DOI: 10.1063/1.5090222
   * E. Caldeweyher, J.-M. Mewes, S. Ehlert and S. Grimme, Phys. Chem. Chem. Phys.
     2020, 22, 8499-8512. DOI: 10.1039/D0CP00502A
   
   for sTDA-xTB:
   * S. Grimme and C. Bannwarth, J. Chem. Phys., 2016, 145, 054103.
     DOI: 10.1063/1.4959605
   
   in the mass-spec context:
   * V. Asgeirsson, C. Bauer and S. Grimme, Chem. Sci., 2017, 8, 4879.
     DOI: 10.1039/c7sc00601b
   * J. Koopman and S. Grimme, ACS Omega 2019, 4, 12, 15120-15133.
     DOI: 10.1021/acsomega.9b02011
   
   for metadynamics refer to:
   * S. Grimme, J. Chem. Theory Comput., 2019, 155, 2847-2862
     DOI: 10.1021/acs.jctc.9b00143
   
   for SPH calculations refer to:
   * S. Spicher and S. Grimme, J. Chem. Theory Comput., 2021, 17, 1701-1714
     DOI: 10.1021/acs.jctc.0c01306
   
   for ONIOM refer to:
   * C. Plett, A. Katbashev, S. Ehlert, S. Grimme, M. Bursch,
     Phys. Chem. Chem. Phys., 2023, 25, 17860-17868. DOI: 10.1039/D3CP02178E
   
   for DIPRO refer to:
   * J. Kohn, N. Gildemeister, S. Grimme, D. Fazzi, A. Hansen,
     J. Chem. Phys., 2023, just accepted.
   
   for PTB refer to:
   * S. Grimme, M. Mueller, A. Hansen, J. Chem. Phys., 2023, 158, 124111.
     DOI: 10.1063/5.0137838
   
   with help from (in alphabetical order)
   P. Atkinson, C. Bannwarth, F. Bohle, G. Brandenburg, E. Caldeweyher
   M. Checinski, S. Dohm, S. Ehlert, S. Ehrlich, I. Gerasimov, C. Hölzer
   A. Katbashev, J. Kohn, J. Koopman, C. Lavigne, S. Lehtola, F. März, M. Müller,
   F. Musil, H. Neugebauer, J. Pisarek, C. Plett, P. Pracht, F. Pultar,
   J. Seibert, P. Shushkov, S. Spicher, M. Stahn, M. Steiner, T. Strunk,
   J. Stückrath, T. Rose, and J. Unsleber
   
 * started run on 2025/04/06 at 18:00:40.075     
   ID    Z sym.   atoms
    1    6 C      1, 2, 4, 6, 8, 10
    2    1 H      3, 5, 7, 9, 11, 18-24
    3    8 O      12-17

           -------------------------------------------------
          |                Calculation Setup                |
           -------------------------------------------------

          program call               : /srv/scratch/z5358697/.xtb/bin/xtb solv.coord --gfn2 --sp --chrg 0 --norestart --parallel 1 --alpb water reference -I xtb_sp-xcontrol-inp
          hostname                   : k155
          coordinate file            : solv.coord
          omp threads                :                     1


           -------------------------------------------------
          |                 G F N 2 - x T B                 |
           -------------------------------------------------

        Reference                      10.1021/acs.jctc.8b01176
      * Hamiltonian:
        H0-scaling (s, p, d)           1.850000    2.230000    2.230000
        zeta-weighting                 0.500000
      * Dispersion:
        s8                             2.700000
        a1                             0.520000
        a2                             5.000000
        s9                             5.000000
      * Repulsion:
        kExp                           1.500000    1.000000
        rExp                           1.000000
      * Coulomb:
        alpha                          2.000000
        third order                    shell-resolved
        anisotropic                    true
        a3                             3.000000
        a5                             4.000000
        cn-shift                       1.200000
        cn-exp                         4.000000
        max-rad                        5.000000

      * Solvation model:               ALPB
        Solvent                        water
        Parameter file                 internal GFN2-xTB/ALPB
        Dielectric constant                8.0200E+01
        Reference state                gsolv=reference [X=1]
        Free energy shift                  2.8945E-03 Eh       1.8164E+00 kcal/mol
        Temperature                        2.9815E+02 K
        Density                            1.0000E+00 kg/L
        Solvent mass                       1.8000E+01 g/mol
        Interaction kernel             P16
        Born radius scaling (c1)           1.4744E+00
        Born radii integrator          GBOBC
        Born offset                        0.0000E+00 a0       0.0000E+00 AA
        H-bond correction              true
        Ion screening                  false
        Surface tension                    1.0000E-05 Eh       1.5569E+01 dyn/cm
        Grid points                               974 per atom

          ...................................................
          :                      SETUP                      :
          :.................................................:
          :  # basis functions                  60          :
          :  # atomic orbitals                  60          :
          :  # shells                           36          :
          :  # electrons                        72          :
          :  max. iterations                   250          :
          :  Hamiltonian                  GFN2-xTB          :
          :  restarted?                      false          :
          :  GBSA solvation                   true          :
          :  PC potential                    false          :
          :  electronic temp.          300.0000000     K    :
          :  accuracy                    1.0000000          :
          :  -> integral cutoff          0.2500000E+02      :
          :  -> integral neglect         0.1000000E-07      :
          :  -> SCF convergence          0.1000000E-05 Eh   :
          :  -> wf. convergence          0.1000000E-03 e    :
          :  Broyden damping             0.4000000          :
          :  net charge                          0          :
          :  unpaired electrons                  0          :
          ...................................................

 iter      E             dE          RMSdq      gap      omega  full diag
   1    -43.6453648 -0.436454E+02  0.497E+00   10.35       0.0  T
   2    -43.6874415 -0.420767E-01  0.266E+00   10.17       1.0  T
   3    -43.6897324 -0.229094E-02  0.673E-01   10.23       1.0  T
   4    -43.6903091 -0.576672E-03  0.197E-01   10.22       1.0  T
   5    -43.6903901 -0.809671E-04  0.899E-02   10.25       1.0  T
   6    -43.6904101 -0.200143E-04  0.256E-02   10.25       1.0  T
   7    -43.6904115 -0.138424E-05  0.907E-03   10.25       2.3  T
   8    -43.6904119 -0.426258E-06  0.306E-03   10.25       6.7  T
   9    -43.6904119 -0.282122E-07  0.127E-03   10.25      16.1  T
  10    -43.6904119 -0.645553E-08  0.480E-04   10.25      42.5  T
  11    -43.6904119 -0.936154E-09  0.128E-04   10.25     160.0  T

   *** convergence criteria satisfied after 11 iterations ***

         #    Occupation            Energy/Eh            Energy/eV
      -------------------------------------------------------------
         1        2.0000           -0.7361703             -20.0322
       ...           ...                  ...                  ...
        30        2.0000           -0.4651825             -12.6583
        31        2.0000           -0.4540309             -12.3548
        32        2.0000           -0.4408000             -11.9948
        33        2.0000           -0.4303983             -11.7117
        34        2.0000           -0.4245536             -11.5527
        35        2.0000           -0.4193725             -11.4117
        36        2.0000           -0.4043140             -11.0019 (HOMO)
        37                         -0.0276493              -0.7524 (LUMO)
        38                         -0.0021322              -0.0580
        39                          0.0118483               0.3224
        40                          0.0362092               0.9853
        41                          0.0522215               1.4210
       ...                                ...                  ...
        60                          0.2684256               7.3042
      -------------------------------------------------------------
                  HL-Gap            0.3766646 Eh           10.2496 eV
             Fermi-level           -0.2159817 Eh           -5.8772 eV

 SCC (total)                   0 d,  0 h,  0 min,  0.028 sec
 SCC setup                      ...        0 min,  0.002 sec (  5.581%)
 Dispersion                     ...        0 min,  0.000 sec (  0.545%)
 classical contributions        ...        0 min,  0.000 sec (  0.098%)
 integral evaluation            ...        0 min,  0.003 sec ( 10.294%)
 iterations                     ...        0 min,  0.015 sec ( 56.155%)
 molecular gradient             ...        0 min,  0.007 sec ( 26.755%)
 printout                       ...        0 min,  0.000 sec (  0.524%)

         :::::::::::::::::::::::::::::::::::::::::::::::::::::
         ::                     SUMMARY                     ::
         :::::::::::::::::::::::::::::::::::::::::::::::::::::
         :: total energy             -43.386459590634 Eh    ::
         :: total w/o Gsasa/hb       -43.368650429090 Eh    ::
         :: gradient norm              0.000040339184 Eh/a0 ::
         :: HOMO-LUMO gap             10.249566295346 eV    ::
         ::.................................................::
         :: SCC energy               -43.690246509487 Eh    ::
         :: -> isotropic ES            0.169033290448 Eh    ::
         :: -> anisotropic ES         -0.005984757754 Eh    ::
         :: -> anisotropic XC         -0.010029588300 Eh    ::
         :: -> dispersion             -0.018965656713 Eh    ::
         :: -> Gsolv                  -0.036626084698 Eh    ::
         ::    -> Gelec               -0.018816923154 Eh    ::
         ::    -> Gsasa                0.005146193810 Eh    ::
         ::    -> Ghb                 -0.025849904514 Eh    ::
         ::    -> Gshift               0.002894549160 Eh    ::
         :: repulsion energy           0.303786918853 Eh    ::
         :: add. restraining           0.000000000000 Eh    ::
         :: total charge              -0.000000000000 e     ::
         :::::::::::::::::::::::::::::::::::::::::::::::::::::

           -------------------------------------------------
          |                Property Printout                |
           -------------------------------------------------

    * Orbital Energies and Occupations

         #    Occupation            Energy/Eh            Energy/eV
      -------------------------------------------------------------
         1        2.0000           -0.7361703             -20.0322
       ...           ...                  ...                  ...
        24        2.0000           -0.5162565             -14.0481
        25        2.0000           -0.5094142             -13.8619
        26        2.0000           -0.5044169             -13.7259
        27        2.0000           -0.4938011             -13.4370
        28        2.0000           -0.4862814             -13.2324
        29        2.0000           -0.4698446             -12.7851
        30        2.0000           -0.4651825             -12.6583
        31        2.0000           -0.4540309             -12.3548
        32        2.0000           -0.4408000             -11.9948
        33        2.0000           -0.4303983             -11.7117
        34        2.0000           -0.4245536             -11.5527
        35        2.0000           -0.4193725             -11.4117
        36        2.0000           -0.4043140             -11.0019 (HOMO)
        37                         -0.0276493              -0.7524 (LUMO)
        38                         -0.0021322              -0.0580
        39                          0.0118483               0.3224
        40                          0.0362092               0.9853
        41                          0.0522215               1.4210
        42                          0.0678929               1.8475
        43                          0.0750921               2.0434
        44                          0.0802247               2.1830
        45                          0.1034392               2.8147
        46                          0.1120119               3.0480
        47                          0.1300547               3.5390
       ...                                ...                  ...
        60                          0.2684256               7.3042
      -------------------------------------------------------------
                  HL-Gap            0.3766646 Eh           10.2496 eV
             Fermi-level           -0.2159817 Eh           -5.8772 eV

     #   Z          covCN         q      C6AA      α(0)
     1   6 C        3.676     0.068    19.663     6.353
     2   6 C        3.751     0.086    19.208     6.250
     3   1 H        0.923     0.030     2.581     2.512
     4   6 C        3.728     0.093    19.136     6.245
     5   1 H        0.924     0.070     2.089     2.260
     6   6 C        3.728     0.103    18.985     6.220
     7   1 H        0.923     0.024     2.671     2.556
     8   6 C        3.725     0.080    19.345     6.280
     9   1 H        0.923     0.037     2.493     2.469
    10   6 C        3.631     0.236    17.282     5.985
    11   1 H        0.923     0.031     2.573     2.509
    12   8 O        1.701    -0.359    20.051     6.046
    13   8 O        1.657    -0.488    22.636     6.423
    14   8 O        1.656    -0.502    22.940     6.466
    15   8 O        1.656    -0.498    22.856     6.454
    16   8 O        1.656    -0.487    22.613     6.419
    17   8 O        1.655    -0.494    22.753     6.439
    18   1 H        0.924     0.076     2.025     2.225
    19   1 H        0.924     0.049     2.336     2.390
    20   1 H        0.804     0.388     0.506     1.118
    21   1 H        0.804     0.369     0.545     1.160
    22   1 H        0.804     0.370     0.543     1.158
    23   1 H        0.804     0.357     0.572     1.188
    24   1 H        0.805     0.361     0.563     1.179

 Mol. C6AA /au·bohr⁶  :       4729.637224
 Mol. C8AA /au·bohr⁸  :     100763.023965
 Mol. α(0) /au        :         98.305890


Wiberg/Mayer (AO) data.
largest (>0.10) Wiberg bond orders for each atom

 ---------------------------------------------------------------------------
     #   Z sym  total        # sym  WBO       # sym  WBO       # sym  WBO
 ---------------------------------------------------------------------------
     1   6 C    3.957 --    17 O    1.013     2 C    0.976    19 H    0.967
                            18 H    0.967
     2   6 C    3.940 --     1 C    0.976    12 O    0.959     4 C    0.958
                             3 H    0.957
     3   1 H    0.999 --     2 C    0.957
     4   6 C    3.958 --    16 O    1.007     6 C    0.970     2 C    0.958
                             5 H    0.957
     5   1 H    0.995 --     4 C    0.957
     6   6 C    3.963 --    15 O    1.001     4 C    0.970     8 C    0.969
                             7 H    0.954
     7   1 H    0.999 --     6 C    0.954
     8   6 C    3.959 --    14 O    0.999     6 C    0.969     9 H    0.956
                            10 C    0.946
     9   1 H    0.999 --     8 C    0.956
    10   6 C    3.930 --    13 O    1.020    12 O    0.959    11 H    0.948
                             8 C    0.946
    11   1 H    0.999 --    10 C    0.948
    12   8 O    2.063 --     2 C    0.959    10 C    0.959
    13   8 O    1.947 --    10 C    1.020    20 H    0.831
    14   8 O    1.918 --     8 C    0.999    21 H    0.845
    15   8 O    1.922 --     6 C    1.001    22 H    0.846
    16   8 O    1.940 --     4 C    1.007    23 H    0.854
    17   8 O    1.929 --     1 C    1.013    24 H    0.855
    18   1 H    0.994 --     1 C    0.967
    19   1 H    0.997 --     1 C    0.967
    20   1 H    0.849 --    13 O    0.831
    21   1 H    0.863 --    14 O    0.845
    22   1 H    0.863 --    15 O    0.846
    23   1 H    0.872 --    16 O    0.854
    24   1 H    0.870 --    17 O    0.855
 ---------------------------------------------------------------------------

Topologies differ in total number of bonds
Writing topology from bond orders to xtbtopo.mol

molecular dipole:
                 x           y           z       tot (Debye)
 q only:        0.896      -0.849       0.327
   full:        1.248      -1.113       0.539       4.465
molecular quadrupole (traceless):
                xx          xy          yy          xz          yz          zz
 q only:       -2.835       3.309      -2.570      -8.740       8.886       5.406
  q+dip:       -6.925       5.379      -3.991     -10.128       9.916      10.915
   full:       -6.004       4.842      -3.796     -10.335      10.564       9.800


           -------------------------------------------------
          | TOTAL ENERGY              -43.386459590634 Eh   |
          | GRADIENT NORM               0.000040339184 Eh/α |
          | HOMO-LUMO GAP              10.249566295346 eV   |
           -------------------------------------------------

------------------------------------------------------------------------
 * finished run on 2025/04/06 at 18:00:40.136     
------------------------------------------------------------------------
 total:
 * wall-time:     0 d,  0 h,  0 min,  0.061 sec
 *  cpu-time:     0 d,  0 h,  0 min,  0.030 sec
 * ratio c/w:     0.488 speedup
 SCF:
 * wall-time:     0 d,  0 h,  0 min,  0.028 sec
 *  cpu-time:     0 d,  0 h,  0 min,  0.021 sec
 * ratio c/w:     0.761 speedup

