
                                 *****************
                                 * O   R   C   A *
                                 *****************

                                            #,                                       
                                            ###                                      
                                            ####                                     
                                            #####                                    
                                            ######                                   
                                           ########,                                 
                                     ,,################,,,,,                         
                               ,,#################################,,                 
                          ,,##########################################,,             
                       ,#########################################, ''#####,          
                    ,#############################################,,   '####,        
                  ,##################################################,,,,####,       
                ,###########''''           ''''###############################       
              ,#####''   ,,,,##########,,,,          '''####'''          '####       
            ,##' ,,,,###########################,,,                        '##       
           ' ,,###''''                  '''############,,,                           
         ,,##''                                '''############,,,,        ,,,,,,###''
      ,#''                                            '''#######################'''  
     '                                                          ''''####''''         
             ,#######,   #######,   ,#######,      ##                                
            ,#'     '#,  ##    ##  ,#'     '#,    #''#        ,####,   ,####,        
            ##       ##  ##   ,#'  ##            #'  '#       #'       #'  '#        
            ##       ##  #######   ##           ,######,      #####,   #    #        
            '#,     ,#'  ##    ##  '#,     ,#' ,#      #,     #,   #   #,  ,#        
             '#######'   ##     ##  '#######'  #'      '#     '####' # '####'        



                #########################################################
                #                        -***-                          #
                #          Department of theory and spectroscopy        #
                #                                                       #
                #                      Frank Neese                      #
                #                                                       #
                #     Directorship, Architecture, Infrastructure        #
                #                    SHARK, DRIVERS                     #
                #        Core code/Algorithms in most modules           #
                #                                                       #
                #        Max Planck Institute fuer Kohlenforschung      #
                #                Kaiser Wilhelm Platz 1                 #
                #                 D-45470 Muelheim/Ruhr                 #
                #                      Germany                          #
                #                                                       #
                #                  All rights reserved                  #
                #                        -***-                          #
                #########################################################


                         Program Version 6.0.0  -   RELEASE  -


 With contributions from (in alphabetic order):
   Daniel Aravena         : Magnetic Suceptibility
   Michael Atanasov       : Ab Initio Ligand Field Theory (pilot matlab implementation)
   Alexander A. Auer      : GIAO ZORA, VPT2 properties, NMR spectrum
   Ute Becker             : All parallelization in ORCA, NUMFREQ, NUMCALC
   Giovanni Bistoni       : ED, misc. LED, open-shell LED, HFLD
   Martin Brehm           : Molecular dynamics
   Dmytro Bykov           : pre 5.0 version of the SCF Hessian
   Marcos Casanova-Páez   : Triplet and SCS-CIS(D). UHF-(DLPNO)-IP/EA/STEOM-CCSD. UHF-CVS-IP/STEOM-CCSD
   Vijay G. Chilkuri      : MRCI spin determinant printing, contributions to CSF-ICE
   Pauline Colinet        : FMM embedding
   Dipayan Datta          : RHF DLPNO-CCSD density
   Achintya Kumar Dutta   : EOM-CC, STEOM-CC
   Nicolas Foglia         : Exact transition moments, OPA infrastructure, MCD improvements
   Dmitry Ganyushin       : Spin-Orbit,Spin-Spin,Magnetic field MRCI
   Miquel Garcia          : C-PCM and meta-GGA Hessian, CCSD/C-PCM, Gaussian charge scheme
   Tiago L. C. Gouveia    : GS-ROHF, GS-ROCIS
   Yang Guo               : DLPNO-NEVPT2, F12-NEVPT2, CIM, IAO-localization
   Andreas Hansen         : Spin unrestricted coupled pair/coupled cluster methods
   Ingolf Harden          : AUTO-CI MPn and infrastructure 
   Benjamin Helmich-Paris : MC-RPA, TRAH-(SCF,CASSCF), AVAS, COSX integrals, SCF dyn. polar.
   Lee Huntington         : MR-EOM, pCC
   Robert Izsak           : Overlap fitted RIJCOSX, COSX-SCS-MP3, EOM
   Riya Kayal             : Wick's Theorem for AUTO-CI, AUTO-CI UHF-CCSDT
   Emily Kempfer          : AUTO-CI, RHF CISDT and CCSDT
   Christian Kollmar      : KDIIS, OOCD, Brueckner-CCSD(T), CCSD density, CASPT2, CASPT2-K, improved NEVPT2
   Axel Koslowski         : Symmetry handling
   Simone Kossmann        : Meta GGA functionals, TD-DFT gradient, OOMP2, (MP2 Hessian; deprecated post 5.0)
   Lucas Lang             : DCDCAS
   Marvin Lechner         : AUTO-CI (C++ implementation), FIC-MRCC
   Spencer Leger          : CASSCF response
   Dagmar Lenk            : GEPOL surface, SMD, ORCA-2-JSON
   Dimitrios Liakos       : Extrapolation schemes; Compound Job, initial MDCI parallelization
   Dimitrios Manganas     : Further ROCIS development; embedding schemes. LFT, Crystal Embedding
   Dimitrios Pantazis     : SARC Basis sets
   Anastasios Papadopoulos: AUTO-CI, single reference methods and gradients
   Taras Petrenko         : pre 6.0 DFT Hessian and TD-DFT gradient, (ASA, deprecated), ECA, 1-Electron XAS/XES, NRVS
   Peter Pinski           : DLPNO-MP2, DLPNO-MP2 Gradient
   Christoph Reimann      : Effective Core Potentials
   Marius Retegan         : Local ZFS, SOC
   Christoph Riplinger    : Optimizer, TS searches, QM/MM, DLPNO-CCSD(T), (RO)-DLPNO pert. Triples
   Michael Roemelt        : Original ROCIS implementation
   Masaaki Saitow         : Open-shell DLPNO-CCSD energy and density
   Barbara Sandhoefer     : DKH picture change effects
   Kantharuban Sivalingam : CASSCF convergence/infrastructure, NEVPT2 and variants, FIC-MRCI
   Bernardo de Souza      : ESD, SOC TD-DFT
   Georgi Stoychev        : AutoAux, RI-MP2 NMR, DLPNO-MP2 response, X2C
   Van Anh Tran           : RI-MP2 g-tensors
   Willem Van den Heuvel  : Paramagnetic NMR
   Zikuan Wang            : NOTCH, Electric field optimization 
   Frank Wennmohs         : Technical directorship and infrastructure
   Hang Xu                : AUTO-CI-Response properties 


 We gratefully acknowledge several colleagues who have allowed us to
 interface, adapt or use parts of their codes:
   Stefan Grimme, W. Hujo, H. Kruse, P. Pracht,  : VdW corrections, initial TS optimization,
                  C. Bannwarth, S. Ehlert,         DFT functionals, gCP, sTDA/sTD-DF
                  L. Wittmann, M. Mueller
   Ed Valeev, F. Pavosevic, A. Kumar             : LibInt (2-el integral package), F12 methods
   Garnet Chan, S. Sharma, J. Yang, R. Olivares  : DMRG
   Ulf Ekstrom                                   : XCFun DFT Library
   Mihaly Kallay                                 : mrcc  (arbitrary order and MRCC methods)
   Frank Weinhold                                : gennbo (NPA and NBO analysis)
   Simon Mueller                                 : openCOSMO-RS
   Christopher J. Cramer and Donald G. Truhlar   : smd solvation model
   Lars Goerigk                                  : TD-DFT with DH, B97 family of functionals
   V. Asgeirsson, H. Jonsson                     : NEB implementation
   FAccTs GmbH                                   : IRC, NEB, NEB-TS, DLPNO-Multilevel, CI-OPT
                                                   MM, QMMM, 2- and 3-layer-ONIOM, Crystal-QMMM,
                                                   LR-CPCM, SF, NACMEs, symmetry and pop. for TD-DFT,
                                                   nearIR, NL-DFT gradient (VV10), updates on ESD,
                                                   ML-optimized integration grids, MBIS, APM,
                                                   GOAT, DOCKER, SOLVATOR, interface openCOSMO-RS
   S Lehtola, MJT Oliveira, MAL Marques          : LibXC Library
   Liviu Ungur et al                             : ANISO software


 Your calculation uses the libint2 library for the computation of 2-el integrals
 For citations please refer to: http://libint.valeyev.net

 Your ORCA version has been built with support for libXC version: 6.2.2
 For citations please refer to: https://libxc.gitlab.io

 This ORCA versions uses:
   CBLAS   interface :  Fast vector & matrix operations
   LAPACKE interface :  Fast linear algebra routines
   SCALAPACK package :  Parallel linear algebra routines
   Shared memory     :  Shared parallel matrices
   BLAS/LAPACK       :  OpenBLAS 0.3.27  USE64BITINT DYNAMIC_ARCH NO_AFFINITY SkylakeX SINGLE_THREADED
        Core in use  :  SkylakeX
   Copyright (c) 2011-2014, The OpenBLAS Project


Your calculation utilizes the geometrical counterpoise correction gCP
Please cite in your paper:
H.Kruse, S. Grimme J.Chem.Phys., 136, (2012), 154101 
   

Your calculation utilizes the atom-pairwise dispersion correction
based on EEQ partial charges (D4)


================================================================================

----- Orbital basis set information -----
Your calculation utilizes the basis: def2-mTZVPP
   Stefan Grimme, Andreas Hansen, Sebastian Ehlert, and Jan-Michael Mewes 
   J. Chem. Phys. 154, 064103 (2021). DOI: 10.1063/5.0040021

----- AuxJ basis set information -----
Your calculation utilizes the auxiliary basis: def2/J
   F. Weigend, Phys. Chem. Chem. Phys. 8, 1057 (2006).

================================================================================
                                        WARNINGS
                       Please study these warnings very carefully!
================================================================================

Using LibXC functional ID 497 : Re-regularized SCAN exchange by Furness et al
[ 1]  J. W. Furness, A. D. Kaplan, J. Ning, J. P. Perdew, and J. Sun.,  J. Phys. Chem. Lett. 11, 8208-8215 (2020)
[ 2]  J. W. Furness, A. D. Kaplan, J. Ning, J. P. Perdew, and J. Sun.,  J. Phys. Chem. Lett. 11, 9248-9248 (2020)
Using LibXC functional ID 498 : Re-regularized SCAN correlation by Furness et al
[ 1]  J. W. Furness, A. D. Kaplan, J. Ning, J. P. Perdew, and J. Sun.,  J. Phys. Chem. Lett. 11, 8208-8215 (2020)
[ 2]  J. W. Furness, A. D. Kaplan, J. Ning, J. P. Perdew, and J. Sun.,  J. Phys. Chem. Lett. 11, 9248-9248 (2020)
Using LibXC functional ID 497 : Re-regularized SCAN exchange by Furness et al
[ 1]  J. W. Furness, A. D. Kaplan, J. Ning, J. P. Perdew, and J. Sun.,  J. Phys. Chem. Lett. 11, 8208-8215 (2020)
[ 2]  J. W. Furness, A. D. Kaplan, J. Ning, J. P. Perdew, and J. Sun.,  J. Phys. Chem. Lett. 11, 9248-9248 (2020)
Using LibXC functional ID 498 : Re-regularized SCAN correlation by Furness et al
[ 1]  J. W. Furness, A. D. Kaplan, J. Ning, J. P. Perdew, and J. Sun.,  J. Phys. Chem. Lett. 11, 8208-8215 (2020)
[ 2]  J. W. Furness, A. D. Kaplan, J. Ning, J. P. Perdew, and J. Sun.,  J. Phys. Chem. Lett. 11, 9248-9248 (2020)

================================================================================
                                       INPUT FILE
================================================================================
NAME = sp_gas.inp
|  1> ! r2scan-3c def2/J RI DEFGRID2 scfconv6 printgap
|  2> %output
|  3>     printlevel normal
|  4> end
|  5> * xyz 0 1
|  6> C -2.5646722958 0.6173678126 -0.1388312992
|  7> C -1.3866238963 -0.325593893 0.0115678786
|  8> O -0.1808670466 0.4252919057 -0.2065775533
|  9> C 0.9771316936 -0.1618052845 0.0626897647
| 10> O 1.0612470924 -1.2995518539 0.4810544942
| 11> C 2.1397513022 0.7434293645 -0.211625447
| 12> H -2.5652866996 1.0538315395 -1.1331411114
| 13> H -3.4871856605 0.0668215698 0.0126017369
| 14> H -2.4986583195 1.415924343 0.5942469079
| 15> H -1.422607176 -1.1383953263 -0.7211747172
| 16> H -1.3423146339 -0.7700355047 1.0113981445
| 17> H 2.7569729353 0.810131359 0.6802548336
| 18> H 1.7827449409 1.723847798 -0.5068102537
| 19> H 2.7447084437 0.3078065636 -1.0030267089
| 20> *
| 21> 
| 22>                          ****END OF INPUT****
================================================================================

                       ****************************
                       * Single Point Calculation *
                       ****************************

---------------------------------
CARTESIAN COORDINATES (ANGSTROEM)
---------------------------------
  C     -2.564672    0.617368   -0.138831
  C     -1.386624   -0.325594    0.011568
  O     -0.180867    0.425292   -0.206578
  C      0.977132   -0.161805    0.062690
  O      1.061247   -1.299552    0.481054
  C      2.139751    0.743429   -0.211625
  H     -2.565287    1.053832   -1.133141
  H     -3.487186    0.066822    0.012602
  H     -2.498658    1.415924    0.594247
  H     -1.422607   -1.138395   -0.721175
  H     -1.342315   -0.770036    1.011398
  H      2.756973    0.810131    0.680255
  H      1.782745    1.723848   -0.506810
  H      2.744708    0.307807   -1.003027

----------------------------
CARTESIAN COORDINATES (A.U.)
----------------------------
  NO LB      ZA    FRAG     MASS         X           Y           Z
   0 C     6.0000    0    12.011   -4.846528    1.166656   -0.262353
   1 C     6.0000    0    12.011   -2.620339   -0.615283    0.021860
   2 O     8.0000    0    15.999   -0.341789    0.803685   -0.390375
   3 C     6.0000    0    12.011    1.846511   -0.305768    0.118466
   4 O     8.0000    0    15.999    2.005466   -2.455797    0.909061
   5 C     6.0000    0    12.011    4.043544    1.404878   -0.399914
   6 H     1.0000    0     1.008   -4.847689    1.991453   -2.141326
   7 H     1.0000    0     1.008   -6.589826    0.126274    0.023814
   8 H     1.0000    0     1.008   -4.721780    2.675709    1.122964
   9 H     1.0000    0     1.008   -2.688338   -2.151255   -1.362823
  10 H     1.0000    0     1.008   -2.536607   -1.455156    1.911266
  11 H     1.0000    0     1.008    5.209924    1.530926    1.285495
  12 H     1.0000    0     1.008    3.368900    3.257600   -0.957733
  13 H     1.0000    0     1.008    5.186747    0.581670   -1.895446

--------------------------------
INTERNAL COORDINATES (ANGSTROEM)
--------------------------------
 C      0   0   0     0.000000000000     0.00000000     0.00000000
 C      1   0   0     1.516441466881     0.00000000     0.00000000
 O      2   1   0     1.437103508014   108.16978610     0.00000000
 C      3   2   1     1.325952141515   118.07120264   170.62976795
 O      4   3   2     1.215142667914   123.02083940     0.10363958
 C      4   3   2     1.498793834862   111.89185305   180.09058185
 H      1   2   3     1.085888099681   109.94950469    59.37822916
 H      1   2   3     1.084925821397   109.33966867   179.43852865
 H      1   2   3     1.086026719301   110.06349305   299.51717972
 H      2   1   3     1.094921311370   111.69721707   240.91492438
 H      2   1   3     1.095058088667   111.98492967   119.47009465
 H      6   4   3     1.086674806628   109.11408476   125.84803828
 H      6   4   3     1.084346769655   109.90865393     4.17797450
 H      6   4   3     1.087224137449   108.83520125   243.25885188

---------------------------
INTERNAL COORDINATES (A.U.)
---------------------------
 C      0   0   0     0.000000000000     0.00000000     0.00000000
 C      1   0   0     2.865659070526     0.00000000     0.00000000
 O      2   1   0     2.715732056244   108.16978610     0.00000000
 C      3   2   1     2.505686414150   118.07120264   170.62976795
 O      4   3   2     2.296286856001   123.02083940     0.10363958
 C      4   3   2     2.832309879099   111.89185305   180.09058185
 H      1   2   3     2.052031120481   109.94950469    59.37822916
 H      1   2   3     2.050212678060   109.33966867   179.43852865
 H      1   2   3     2.052293073600   110.06349305   299.51717972
 H      2   1   3     2.069101416683   111.69721707   240.91492438
 H      2   1   3     2.069359888316   111.98492967   119.47009465
 H      6   4   3     2.053517781159   109.11408476   125.84803828
 H      6   4   3     2.049118428851   109.90865393     4.17797450
 H      6   4   3     2.054555865968   108.83520125   243.25885188

---------------------
BASIS SET INFORMATION
---------------------
There are 3 groups of distinct atoms

 Group   1 Type C   : 11s6p1d contracted to 5s3p1d pattern {62111/411/1}
 Group   2 Type O   : 11s6p2d contracted to 5s3p2d pattern {62111/411/11}
 Group   3 Type H   : 4s1p contracted to 2s1p pattern {31/1}

Atom   0C    basis set group =>   1
Atom   1C    basis set group =>   1
Atom   2O    basis set group =>   2
Atom   3C    basis set group =>   1
Atom   4O    basis set group =>   2
Atom   5C    basis set group =>   1
Atom   6H    basis set group =>   3
Atom   7H    basis set group =>   3
Atom   8H    basis set group =>   3
Atom   9H    basis set group =>   3
Atom  10H    basis set group =>   3
Atom  11H    basis set group =>   3
Atom  12H    basis set group =>   3
Atom  13H    basis set group =>   3
---------------------------------
AUXILIARY/J BASIS SET INFORMATION
---------------------------------
There are 3 groups of distinct atoms

 Group   1 Type C   : 12s5p4d2f1g contracted to 6s4p3d1f1g pattern {711111/2111/211/2/1}
 Group   2 Type O   : 12s5p4d2f1g contracted to 6s4p3d1f1g pattern {711111/2111/211/2/1}
 Group   3 Type H   : 5s2p1d contracted to 3s1p1d pattern {311/2/1}

Atom   0C    basis set group =>   1
Atom   1C    basis set group =>   1
Atom   2O    basis set group =>   2
Atom   3C    basis set group =>   1
Atom   4O    basis set group =>   2
Atom   5C    basis set group =>   1
Atom   6H    basis set group =>   3
Atom   7H    basis set group =>   3
Atom   8H    basis set group =>   3
Atom   9H    basis set group =>   3
Atom  10H    basis set group =>   3
Atom  11H    basis set group =>   3
Atom  12H    basis set group =>   3
Atom  13H    basis set group =>   3

Checking for AutoStart:
The File: sp_gas.gbw exists
Trying to determine its content:
     ... Fine, the file contains calculation information
     ... Fine, the calculation information was read
     ... Fine, the file contains a basis set
     ... Fine, the basis set was read
     ... Fine, the file contains a geometry
     ... Fine, the geometry was read
     ... Fine, the file contains a set of orbitals
     ... Fine, the orbitals can be read
     => possible old guess file was deleted
     => GBW file was renamed to GES file
     => GES file is set as startup file
     => Guess is set to MORead
     ... now leaving AutoStart

------------------------------------------------------------------------------
                             ORCA STARTUP CALCULATIONS
                           -- RI-GTO INTEGRALS CHOSEN --
------------------------------------------------------------------------------
------------------------------------------------------------------------------
                   ___                                                        
                  /   \      - P O W E R E D   B Y -                         
                 /     \                                                     
                 |  |  |   _    _      __       _____    __    __             
                 |  |  |  | |  | |    /  \     |  _  \  |  |  /  |          
                  \  \/   | |  | |   /    \    | | | |  |  | /  /          
                 / \  \   | |__| |  /  /\  \   | |_| |  |  |/  /          
                |  |  |   |  __  | /  /__\  \  |    /   |      \           
                |  |  |   | |  | | |   __   |  |    \   |  |\   \          
                \     /   | |  | | |  |  |  |  | |\  \  |  | \   \       
                 \___/    |_|  |_| |__|  |__|  |_| \__\ |__|  \__/        
                                                                              
                      - O R C A' S   B I G   F R I E N D -                    
                                      &                                       
                       - I N T E G R A L  F E E D E R -                       
                                                                              
 v1 FN, 2020, v2 2021, v3 2022-2024                                           
------------------------------------------------------------------------------


----------------------
SHARK INTEGRAL PACKAGE
----------------------

Number of atoms                             ...     14
Number of basis functions                   ...    164
Number of shells                            ...     80
Maximum angular momentum                    ...      2
Integral batch strategy                     ... SHARK/LIBINT Hybrid
RI-J (if used) integral strategy            ... SPLIT-RIJ (Revised 2003 algorithm where possible)
Printlevel                                  ...      1
Contraction scheme used                     ... SEGMENTED contraction
Prescreening option                         ... SCHWARTZ
   Thresh                                   ... 1.000e-10
   Tcut                                     ... 1.000e-11
   Tpresel                                  ... 1.000e-11 
Coulomb Range Separation                    ... NOT USED
Exchange Range Separation                   ... NOT USED
Multipole approximations                    ... NOT USED
Finite Nucleus Model                        ... NOT USED
CABS basis                                  ... NOT available
Auxiliary Coulomb fitting basis             ... AVAILABLE
   # of basis functions in Aux-J            ...    382
   # of shells in Aux-J                     ...    130
   Maximum angular momentum in Aux-J        ...      4
Auxiliary J/K fitting basis                 ... NOT available
Auxiliary Correlation fitting basis         ... NOT available
Auxiliary 'external' fitting basis          ... NOT available

Checking pre-screening integrals            ... done (  0.0 sec) Dimension = 80
Check shell pair data                       ... done (  0.0 sec)
Shell pair information
Shell pair cut-off parameter TPreSel        ...   1.0e-11
Total number of shell pairs                 ...      3240
Shell pairs after pre-screening             ...      2952
Total number of primitive shell pairs       ...     11481
Primitive shell pairs kept                  ...      7704
          la=0 lb=0:    969 shell pairs
          la=1 lb=0:   1088 shell pairs
          la=1 lb=1:    322 shell pairs
          la=2 lb=0:    342 shell pairs
          la=2 lb=1:    195 shell pairs
          la=2 lb=2:     36 shell pairs

Calculating one electron integrals          ... done (  0.0 sec)
Calculating RI/J V-Matrix + Cholesky decomp.... done (  0.1 sec)
Calculating Nuclear repulsion               ... done (  0.0 sec) ENN=    244.222244821811 Eh

Diagonalization of the overlap matrix:
Smallest eigenvalue                        ... 3.905e-04
Time for diagonalization                   ...    0.002 sec
Threshold for overlap eigenvalues          ... 1.000e-07
Number of eigenvalues below threshold      ... 0
Time for construction of square roots      ...    0.013 sec
Total time needed                          ...    0.024 sec

-------------------
DFT GRID GENERATION
-------------------

General Integration Accuracy     IntAcc      ... 4.388
Radial Grid Type                 RadialGrid  ... OptM3 with GC (2021)
Angular Grid (max. ang.)         AngularGrid ... 4 (Lebedev-302)
Angular grid pruning method      GridPruning ... 4 (adaptive)
Weight generation scheme         WeightScheme... mBecke (2022)
Basis function cutoff            BFCut       ... 1.0000e-10
Integration weight cutoff        WCut        ... 1.0000e-14
Partially contracted basis set               ... off
Rotationally invariant grid construction     ... off
Angular grids for H and He will be reduced by one unit
Diffuse basis detected: some atoms will have their outermost
                        angular grid increased by 1.

Total number of grid points                  ...    62844
Total number of batches                      ...      989
Average number of points per batch           ...       63
Average number of grid points per atom       ...     4489
Initializing property integral containers    ... done (  0.0 sec)

SHARK setup successfully completed in   0.7 seconds

Maximum memory used throughout the entire STARTUP-calculation: 28.0 MB
-------------------------------------------------------------------------------
                                 ORCA GUESS
                   Start orbitals & Density for SCF / CASSCF
-------------------------------------------------------------------------------

------------
SCF SETTINGS
------------
Hamiltonian:
 Density Functional     Method          .... DFT(GTOs)
  Functional kind                       .... Exchange
  Functional name                       .... Re-regularized SCAN exchange by Furness et al
  Functional family                     .... MGGA
  Functional refs                              
    [ 0] J. W. Furness, A. D. Kaplan, J. Ning, J. P. Perdew, and J. Sun.,  J. Phys. Chem. Lett. 11, 8208-8215 (2020), doi: 10.1021/acs.jpclett.0c02405
    [ 1] J. W. Furness, A. D. Kaplan, J. Ning, J. P. Perdew, and J. Sun.,  J. Phys. Chem. Lett. 11, 9248-9248 (2020), doi: 10.1021/acs.jpclett.0c03077
  Functional external parameters        .... 6
    Parameter  0 _c1        =  6.670000e-01 : c1 parameter        
    Parameter  1 _c2        =  8.000000e-01 : c2 parameter        
    Parameter  2 _d         =  1.240000e+00 : d parameter         
    Parameter  3 _k1        =  6.500000e-02 : k1 parameter        
    Parameter  4 _eta       =  1.000000e-03 : eta parameter       
    Parameter  5 _dp2       =  3.610000e-01 : dp2 parameter       
  Functional kind                       .... Correlation
  Functional name                       .... Re-regularized SCAN correlation by Furness et al
  Functional family                     .... MGGA
  Functional refs                              
    [ 0] J. W. Furness, A. D. Kaplan, J. Ning, J. P. Perdew, and J. Sun.,  J. Phys. Chem. Lett. 11, 8208-8215 (2020), doi: 10.1021/acs.jpclett.0c02405
    [ 1] J. W. Furness, A. D. Kaplan, J. Ning, J. P. Perdew, and J. Sun.,  J. Phys. Chem. Lett. 11, 9248-9248 (2020), doi: 10.1021/acs.jpclett.0c03077
  Functional external parameters        .... 1
    Parameter  0 _eta       =  1.000000e-03 : Regularization parameter
 Gradients option       PostSCFGGA      .... off
 RI-approximation to the Coulomb term is turned on
   Number of AuxJ basis functions       .... 382


General Settings:
 Integral files         IntName         .... sp_gas
 Hartree-Fock type      HFTyp           .... RHF
 Total Charge           Charge          ....    0
 Multiplicity           Mult            ....    1
 Number of Electrons    NEL             ....   48
 Basis Dimension        Dim             ....  164
 Nuclear Repulsion      ENuc            ....    244.2222448218 Eh

Convergence Acceleration:
 AO-DIIS                CNVDIIS         .... on
   Start iteration      DIISMaxIt       ....    12
   Startup error        DIISStart       ....  0.200000
   # of expansion vecs  DIISMaxEq       ....     5
   Bias factor          DIISBfac        ....   1.050
   Max. coefficient     DIISMaxC        ....  10.000
 MO-DIIS                CNVKDIIS        .... off
 Trust-Rad. Augm. Hess. CNVTRAH         .... auto
   Auto Start mean grad. ratio tolernc. ....  1.125000
   Auto Start start iteration           ....     1
   Auto Start num. interpolation iter.  ....    10
   Max. Number of Micro iterations      ....    24
   Max. Number of Macro iterations      .... Maxiter - #DIIS iter
   Number of Davidson start vectors     ....     2
   Converg. threshold    (grad. norm)   ....   3.330e-04
   Grad. Scal. Fac. for Micro threshold ....   0.100
   Minimum threshold for Micro iter.    ....   1.000e-02
   NR start threshold (gradient norm)   ....   1.000e-04
   Initial trust radius                 ....   0.400
   Minimum AH scaling param. (alpha)    ....   1.000
   Maximum AH scaling param. (alpha)    .... 1000.000
   Quad. conv. algorithm                .... NR
   White noise on init. David. guess    .... on
   Maximum white noise                  ....   0.010
   Pseudo random numbers                .... off
   Inactive MOs                         .... canonical
   Orbital update algorithm             .... Taylor
   Preconditioner                       .... Diag
   Full preconditioner red. dimension   ....   250
   COSX micro iterations for RIJONX calc.... off
 SOSCF                  CNVSOSCF        .... on
   Start iteration      SOSCFMaxIt      ....   150
   Startup grad/error   SOSCFStart      ....  0.003300
   Hessian update       SOSCFHessUp     .... L-BFGS
 Level Shifting         CNVShift        .... on
   Level shift para.    LevelShift      ....    0.2500
   Turn off err/grad.   ShiftErr        ....    0.0010
 Zerner damping         CNVZerner       .... off
 Static damping         CNVDamp         .... on
   Fraction old density DampFac         ....    0.7000
   Max. Damping (<1)    DampMax         ....    0.9800
   Min. Damping (>=0)   DampMin         ....    0.0000
   Turn off err/grad.   DampErr         ....    0.1000

SCF Procedure:
 Maximum # iterations   MaxIter         ....   125
 SCF integral mode      SCFMode         .... Direct
   Integral package                     .... SHARK and LIBINT hybrid scheme
 Reset frequency        DirectResetFreq ....    20
 Integral Threshold     Thresh          ....  1.000e-10 Eh
 Primitive CutOff       TCut            ....  1.000e-11 Eh

Convergence Tolerance:
 Convergence Check Mode ConvCheckMode   .... Total+1el-Energy
 Convergence forced     ConvForced      .... 0
 Energy Change          TolE            ....  1.000e-06 Eh
 1-El. energy change                    ....  1.000e-03 Eh
 Orbital Gradient       TolG            ....  3.330e-04
 Orbital Rotation angle TolX            ....  3.330e-04
 DIIS Error             TolErr          ....  1.000e-06

---------------------
INITIAL GUESS: MOREAD
---------------------
Guess MOs are being read from file: sp_gas.ges
Input Geometry matches current geometry (good)
Atom 0: N(Shells)= 9 and 6 - projection required
Input basis set needs projection
NBasis(read)= 100
NBasis(calc)= 164
Basis set overlap was calculated
Using GuessMode=FMatrix for the initial guess
C*T matrix was formed
Effective Fockian was calculated
Effective Fockian was diagonalized
Initial density was built
                      ------------------
                      INITIAL GUESS DONE (   0.0 sec)
                      ------------------
             **** ENERGY FILE WAS UPDATED (sp_gas.en.tmp) ****
Finished Guess after   0.2 sec
Maximum memory used throughout the entire GUESS-calculation: 11.0 MB

-------------------------------------------------------------------------------------------
                                      ORCA LEAN-SCF
                              memory conserving SCF solver
-------------------------------------------------------------------------------------------

----------------------------------------D-I-I-S--------------------------------------------
Iteration    Energy (Eh)           Delta-E    RMSDP     MaxDP     DIISErr   Damp  Time(sec)
-------------------------------------------------------------------------------------------
               ***  Starting incremental Fock matrix formation  ***
    1    -307.4885723362488079     0.00e+00  3.58e-03  1.32e-01  6.26e-01  0.700   1.4
    2    -307.5346619774901455    -4.61e-02  3.00e-03  9.87e-02  4.40e-01  0.700   1.3
    3    -307.5672511182201561    -3.26e-02  2.22e-03  7.01e-02  3.08e-01  0.700   1.3
    4    -307.5901343990402665    -2.29e-02  1.60e-03  4.95e-02  2.16e-01  0.700   1.3
                               ***Turning on AO-DIIS***
    5    -307.6061860463380526    -1.61e-02  1.16e-03  3.56e-02  1.51e-01  0.700   1.2
    6    -307.6174375072849898    -1.13e-02  8.26e-04  2.51e-02  1.06e-01  0.700   1.2
    7    -307.6253249404068129    -7.89e-03  5.83e-04  1.77e-02  7.40e-02  0.700   1.2
    8    -307.6308509423582791    -5.53e-03  1.37e-03  4.13e-02  5.19e-02  0.000   1.2
                              *** Initializing SOSCF ***
---------------------------------------S-O-S-C-F--------------------------------------
Iteration    Energy (Eh)           Delta-E    RMSDP     MaxDP     MaxGrad    Time(sec)
--------------------------------------------------------------------------------------
    9    -307.6437614126572271    -1.29e-02  8.45e-06  2.40e-04  8.76e-05     1.3
               *** Restarting incremental Fock matrix formation ***
   10    -307.6437614499099027    -3.73e-08  5.55e-06  8.35e-05  3.55e-05     1.4
                  *** Gradient check signals convergence ***

               *****************************************************
               *                     SUCCESS                       *
               *           SCF CONVERGED AFTER  10 CYCLES          *
               *****************************************************

             **** ENERGY FILE WAS UPDATED (sp_gas.en.tmp) ****

----------------
TOTAL SCF ENERGY
----------------

Total Energy       :       -307.64376144990990 Eh           -8371.41234 eV

Components:
Nuclear Repulsion  :        244.22224482181119 Eh            6645.62514 eV
Electronic Energy  :       -551.86600627172106 Eh          -15017.03748 eV
One Electron Energy:       -901.89933972995084 Eh          -24541.92872 eV
Two Electron Energy:        350.03333345822978 Eh            9524.89124 eV

Virial components:
Potential Energy   :       -614.06347758544121 Eh          -16709.51672 eV
Kinetic Energy     :        306.41971613553130 Eh            8338.10438 eV
Virial Ratio       :          2.00399466891301

DFT components:
N(Alpha)           :       24.000015176498 electrons
N(Beta)            :       24.000015176498 electrons
N(Total)           :       48.000030352996 electrons
E(X)               :      -40.233728864042 Eh       
E(C)               :       -1.538109621000 Eh       
E(XC)              :      -41.771838485042 Eh       

---------------
SCF CONVERGENCE
---------------

  Last Energy change         ...    3.7253e-08  Tolerance :   1.0000e-06
  Last MAX-Density change    ...    8.3511e-05  Tolerance :   1.0000e-05
  Last RMS-Density change    ...    5.5522e-06  Tolerance :   1.0000e-06
  Last DIIS Error            ...    8.7606e-05  Tolerance :   1.0000e-06
  Last Orbital Gradient      ...    3.5498e-05  Tolerance :   3.3300e-04
  Last Orbital Rotation      ...    1.3757e-04  Tolerance :   3.3300e-04


----------------
ORBITAL ENERGIES
----------------

  NO   OCC          E(Eh)            E(eV) 
   0   2.0000     -18.997926      -516.9598 
   1   2.0000     -18.926249      -515.0094 
   2   2.0000     -10.154465      -276.3170 
   3   2.0000     -10.092110      -274.6203 
   4   2.0000     -10.038991      -273.1748 
   5   2.0000     -10.032879      -273.0085 
   6   2.0000      -1.072702       -29.1897 
   7   2.0000      -0.973708       -26.4959 
   8   2.0000      -0.757495       -20.6125 
   9   2.0000      -0.708359       -19.2754 
  10   2.0000      -0.613580       -16.6963 
  11   2.0000      -0.536936       -14.6108 
  12   2.0000      -0.466791       -12.7020 
  13   2.0000      -0.456153       -12.4126 
  14   2.0000      -0.436452       -11.8765 
  15   2.0000      -0.416911       -11.3447 
  16   2.0000      -0.385121       -10.4797 
  17   2.0000      -0.370446       -10.0804 
  18   2.0000      -0.365337        -9.9413 
  19   2.0000      -0.358567        -9.7571 
  20   2.0000      -0.324293        -8.8245 
  21   2.0000      -0.316029        -8.5996 
  22   2.0000      -0.272081        -7.4037 
  23   2.0000      -0.234930        -6.3928 
  24   0.0000      -0.013981        -0.3805 
  25   0.0000       0.075571         2.0564 
  26   0.0000       0.097439         2.6514 
  27   0.0000       0.120394         3.2761 
  28   0.0000       0.132003         3.5920 
  29   0.0000       0.145986         3.9725 
  30   0.0000       0.154722         4.2102 
  31   0.0000       0.165899         4.5143 
  32   0.0000       0.171083         4.6554 
  33   0.0000       0.176402         4.8002 
  34   0.0000       0.187196         5.0938 
*Only the first 10 virtual orbitals were printed.

                    ********************************
                    * MULLIKEN POPULATION ANALYSIS *
                    ********************************

-----------------------
MULLIKEN ATOMIC CHARGES
-----------------------
   0 C :   -0.439954
   1 C :   -0.149996
   2 O :   -0.167926
   3 C :    0.410247
   4 O :   -0.420950
   5 C :   -0.514188
   6 H :    0.151952
   7 H :    0.147165
   8 H :    0.152373
   9 H :    0.151378
  10 H :    0.162751
  11 H :    0.172914
  12 H :    0.171074
  13 H :    0.173162
Sum of atomic charges:   -0.0000000

--------------------------------
MULLIKEN REDUCED ORBITAL CHARGES
--------------------------------
  0 C s       :     3.308978  s :     3.308978
      pz      :     1.096835  p :     3.105175
      px      :     0.988233
      py      :     1.020107
      dz2     :     0.005638  d :     0.025801
      dxz     :     0.001807
      dyz     :     0.007205
      dx2y2   :     0.003561
      dxy     :     0.007590

  1 C s       :     3.283613  s :     3.283613
      pz      :     1.108927  p :     2.812528
      px      :     0.759689
      py      :     0.943911
      dz2     :     0.008641  d :     0.053856
      dxz     :     0.007489
      dyz     :     0.011036
      dx2y2   :     0.011444
      dxy     :     0.015246

  2 O s       :     3.704436  s :     3.704436
      pz      :     1.724083  p :     4.432194
      px      :     1.069433
      py      :     1.638678
      dz2     :     0.001776  d :     0.031296
      dxz     :     0.000802
      dyz     :     0.008214
      dx2y2   :     0.001316
      dxy     :     0.019188

  3 C s       :     3.118337  s :     3.118337
      pz      :     0.770551  p :     2.346096
      px      :     0.812698
      py      :     0.762846
      dz2     :     0.011435  d :     0.125321
      dxz     :     0.017257
      dyz     :     0.019373
      dx2y2   :     0.028985
      dxy     :     0.048271

  4 O s       :     3.840406  s :     3.840406
      pz      :     1.431387  p :     4.560780
      px      :     1.812628
      py      :     1.316765
      dz2     :     0.004088  d :     0.019764
      dxz     :     0.001032
      dyz     :     0.008427
      dx2y2   :     0.007003
      dxy     :    -0.000785

  5 C s       :     3.332791  s :     3.332791
      pz      :     1.098924  p :     3.156874
      px      :     1.029626
      py      :     1.028324
      dz2     :     0.004063  d :     0.024524
      dxz     :     0.006014
      dyz     :     0.003147
      dx2y2   :     0.003834
      dxy     :     0.007465

  6 H s       :     0.829787  s :     0.829787
      pz      :     0.009828  p :     0.018261
      px      :     0.003535
      py      :     0.004898

  7 H s       :     0.834398  s :     0.834398
      pz      :     0.003893  p :     0.018436
      px      :     0.009224
      py      :     0.005319

  8 H s       :     0.829382  s :     0.829382
      pz      :     0.006936  p :     0.018245
      px      :     0.003531
      py      :     0.007777

  9 H s       :     0.831224  s :     0.831224
      pz      :     0.006861  p :     0.017398
      px      :     0.002503
      py      :     0.008034

 10 H s       :     0.819662  s :     0.819662
      pz      :     0.010291  p :     0.017587
      px      :     0.002566
      py      :     0.004731

 11 H s       :     0.808639  s :     0.808639
      pz      :     0.008717  p :     0.018446
      px      :     0.006199
      py      :     0.003530

 12 H s       :     0.810791  s :     0.810791
      pz      :     0.004108  p :     0.018135
      px      :     0.004152
      py      :     0.009874

 13 H s       :     0.808308  s :     0.808308
      pz      :     0.007711  p :     0.018531
      px      :     0.006142
      py      :     0.004677


------------------------
MULLIKEN OVERLAP CHARGES
------------------------
B(  0-C ,  1-C ) :   0.4440 B(  0-C ,  2-O ) :  -0.0941 B(  0-C ,  6-H ) :   0.8150 
B(  0-C ,  7-H ) :   0.8185 B(  0-C ,  8-H ) :   0.8325 B(  0-C , 10-H ) :  -0.0644 
B(  1-C ,  2-O ) :   0.2831 B(  1-C ,  3-C ) :  -0.2062 B(  1-C ,  6-H ) :  -0.0511 
B(  1-C ,  7-H ) :  -0.0746 B(  1-C ,  8-H ) :  -0.0716 B(  1-C ,  9-H ) :   0.7877 
B(  1-C , 10-H ) :   0.8378 B(  2-O ,  3-C ) :   0.4356 B(  2-O ,  4-O ) :  -0.2386 
B(  2-O ,  5-C ) :  -0.0667 B(  2-O ,  9-H ) :  -0.0729 B(  2-O , 10-H ) :  -0.0716 
B(  3-C ,  4-O ) :   0.9624 B(  3-C ,  5-C ) :   0.5050 B(  3-C , 12-H ) :  -0.1399 
B(  4-O ,  5-C ) :  -0.0910 B(  5-C , 11-H ) :   0.7979 B(  5-C , 12-H ) :   0.8706 
B(  5-C , 13-H ) :   0.7859 B(  9-H , 10-H ) :  -0.0630 


                     *******************************
                     * LOEWDIN POPULATION ANALYSIS *
                     *******************************

----------------------
LOEWDIN ATOMIC CHARGES
----------------------
   0 C :   -0.386671
   1 C :    0.033775
   2 O :   -0.602859
   3 C :    0.351136
   4 O :   -0.429958
   5 C :   -0.336953
   6 H :    0.159321
   7 H :    0.159680
   8 H :    0.159307
   9 H :    0.177098
  10 H :    0.182713
  11 H :    0.179425
  12 H :    0.173719
  13 H :    0.180265

-------------------------------
LOEWDIN REDUCED ORBITAL CHARGES
-------------------------------
  0 C s       :     2.971151  s :     2.971151
      pz      :     1.157843  p :     3.354754
      px      :     1.077009
      py      :     1.119902
      dz2     :     0.013728  d :     0.060766
      dxz     :     0.003151
      dyz     :     0.017817
      dx2y2   :     0.007944
      dxy     :     0.018126

  1 C s       :     2.868277  s :     2.868277
      pz      :     1.100133  p :     2.977439
      px      :     0.872867
      py      :     1.004438
      dz2     :     0.020322  d :     0.120509
      dxz     :     0.013898
      dyz     :     0.026401
      dx2y2   :     0.023928
      dxy     :     0.035959

  2 O s       :     3.465079  s :     3.465079
      pz      :     1.702231  p :     4.661536
      px      :     1.312608
      py      :     1.646697
      dz2     :     0.061015  d :     0.476244
      dxz     :     0.085994
      dyz     :     0.052439
      dx2y2   :     0.141352
      dxy     :     0.135444

  3 C s       :     2.737309  s :     2.737309
      pz      :     0.747788  p :     2.639102
      px      :     0.924430
      py      :     0.966884
      dz2     :     0.024622  d :     0.272453
      dxz     :     0.034233
      dyz     :     0.040432
      dx2y2   :     0.065552
      dxy     :     0.107613

  4 O s       :     3.551824  s :     3.551824
      pz      :     1.440824  p :     4.667113
      px      :     1.749530
      py      :     1.476758
      dz2     :     0.027163  d :     0.211021
      dxz     :     0.015699
      dyz     :     0.050828
      dx2y2   :     0.056841
      dxy     :     0.060490

  5 C s       :     2.957316  s :     2.957316
      pz      :     1.148704  p :     3.322823
      px      :     1.074714
      py      :     1.099405
      dz2     :     0.009068  d :     0.056814
      dxz     :     0.015102
      dyz     :     0.007225
      dx2y2   :     0.009498
      dxy     :     0.015921

  6 H s       :     0.797282  s :     0.797282
      pz      :     0.024561  p :     0.043397
      px      :     0.007584
      py      :     0.011253

  7 H s       :     0.796485  s :     0.796485
      pz      :     0.008638  p :     0.043835
      px      :     0.022303
      py      :     0.012894

  8 H s       :     0.797319  s :     0.797319
      pz      :     0.016867  p :     0.043373
      px      :     0.007658
      py      :     0.018848

  9 H s       :     0.782258  s :     0.782258
      pz      :     0.016584  p :     0.040643
      px      :     0.005817
      py      :     0.018243

 10 H s       :     0.775773  s :     0.775773
      pz      :     0.024843  p :     0.041513
      px      :     0.006159
      py      :     0.010511

 11 H s       :     0.776347  s :     0.776347
      pz      :     0.021849  p :     0.044228
      px      :     0.014752
      py      :     0.007627

 12 H s       :     0.781971  s :     0.781971
      pz      :     0.009549  p :     0.044309
      px      :     0.009880
      py      :     0.024880

 13 H s       :     0.775363  s :     0.775363
      pz      :     0.018660  p :     0.044372
      px      :     0.014555
      py      :     0.011157


---------------------------------
LOEWDIN BOND ORDERS (THRESH 0.050000)
---------------------------------
B(  0-C ,  1-C ) :   1.0920 B(  0-C ,  2-O ) :   0.1689 B(  0-C ,  6-H ) :   0.9219 
B(  0-C ,  7-H ) :   0.9193 B(  0-C ,  8-H ) :   0.9228 B(  1-C ,  2-O ) :   1.2944 
B(  1-C ,  3-C ) :   0.0884 B(  1-C ,  4-O ) :   0.0714 B(  1-C ,  9-H ) :   0.8276 
B(  1-C , 10-H ) :   0.8213 B(  2-O ,  3-C ) :   1.4565 B(  2-O ,  4-O ) :   0.4666 
B(  2-O ,  5-C ) :   0.1848 B(  2-O ,  9-H ) :   0.0948 B(  2-O , 10-H ) :   0.0931 
B(  3-C ,  4-O ) :   2.1750 B(  3-C ,  5-C ) :   0.9742 B(  4-O ,  5-C ) :   0.1859 
B(  5-C , 11-H ) :   0.9017 B(  5-C , 12-H ) :   0.9030 B(  5-C , 13-H ) :   0.9000 


------------------------------------------
LOEWDIN REDUCED ORBITAL POPULATIONS PER MO
-------------------------------------------
THRESHOLD FOR PRINTING IS 0.1%%
                      0         1         2         3         4         5   
                 -18.99793 -18.92625 -10.15447 -10.09211 -10.03899 -10.03288
                   2.00000   2.00000   2.00000   2.00000   2.00000   2.00000
                  --------  --------  --------  --------  --------  --------
 0 C  s               0.0       0.0       0.0       0.0       0.0      99.7
 1 C  s               0.0       0.0       0.0      99.4       0.0       0.0
 2 O  s              99.9       0.0       0.0       0.0       0.0       0.0
 2 O  px              0.0       0.0       0.1       0.1       0.0       0.0
 2 O  dxy             0.0       0.0       0.1       0.2       0.0       0.0
 3 C  s               0.0       0.0      98.9       0.0       0.0       0.0
 4 O  s               0.0      99.9       0.0       0.0       0.0       0.0
 4 O  py              0.0       0.0       0.2       0.0       0.0       0.0
 4 O  dyz             0.0       0.0       0.1       0.0       0.0       0.0
 4 O  dx2y2           0.0       0.0       0.2       0.0       0.0       0.0
 5 C  s               0.0       0.0       0.0       0.0      99.7       0.0

                      6         7         8         9        10        11   
                  -1.07270  -0.97371  -0.75750  -0.70836  -0.61358  -0.53694
                   2.00000   2.00000   2.00000   2.00000   2.00000   2.00000
                  --------  --------  --------  --------  --------  --------
 0 C  s               0.3       0.2      16.5      12.9      16.7       0.6
 0 C  pz              0.0       0.0       0.0       0.0       0.0       0.3
 0 C  px              0.6       0.3       1.4       0.0       3.9       0.0
 0 C  py              0.1       0.0       0.8       0.2       1.4       5.6
 1 C  s               4.6       1.8      18.2       3.4       7.0       6.9
 1 C  pz              0.1       0.1       0.0       0.0       0.0       1.4
 1 C  px              4.6       0.8       1.8       3.8       5.3       2.9
 1 C  py              1.0       0.8       0.8       0.2       1.7      17.9
 1 C  dz2             0.1       0.1       0.0       0.0       0.0       0.2
 1 C  dxy             0.2       0.1       0.0       0.2       0.3       0.2
 2 O  s              42.8      15.1       0.3       1.7       0.0       5.4
 2 O  pz              0.3       0.0       0.0       0.0       0.0       0.8
 2 O  px              0.6       0.9      15.7       0.0      18.4      15.1
 2 O  py              2.0       0.3       0.5       0.2       0.8       5.8
 2 O  dz2             0.4       0.1       0.1       0.6       0.0       0.2
 2 O  dxz             0.0       0.2       0.1       0.0       0.1       0.0
 2 O  dyz             0.1       0.1       0.0       0.0       0.0       0.1
 2 O  dx2y2           0.1       0.1       0.0       1.9       0.1       0.0
 2 O  dxy             0.2       1.1       0.6       0.2       1.5       0.7
 3 C  s              16.1       4.5       3.7       2.7       1.5       3.2
 3 C  pz              0.0       2.5       0.8       0.3       0.1       0.2
 3 C  px              5.0       4.0       1.3       7.9       2.9       1.6
 3 C  py              0.1      16.5       6.3       3.7       0.8       1.1
 3 C  dz2             0.4       0.0       0.0       0.0       0.0       0.0
 3 C  dyz             0.2       0.4       0.0       0.0       0.0       0.0
 3 C  dx2y2           0.0       1.5       0.1       0.0       0.0       0.0
 3 C  dxy             0.4       0.1       0.0       0.3       0.2       0.0
 4 O  s              11.1      43.3       1.7       0.8       0.1       2.1
 4 O  pz              0.4       0.4       0.1       0.0       0.0       0.2
 4 O  px              0.1       0.0       0.0       0.3       0.1       1.1
 4 O  py              2.5       3.4       0.5       0.4       0.1       1.5
 4 O  dz2             0.2       0.0       0.0       0.1       0.0       0.1
 4 O  dyz             0.4       0.0       0.2       0.1       0.0       0.1
 4 O  dx2y2           0.3       0.1       0.5       0.1       0.2       0.0
 4 O  dxy             0.4       0.2       0.0       0.4       0.1       0.2
 5 C  s               1.0       0.3       8.4      29.0       5.4       0.9
 5 C  px              1.4       0.0       0.7       0.1       2.0       2.2
 5 C  py              0.5       0.5       0.1       0.1       0.1       0.3
 6 H  s               0.0       0.0       2.5       2.4       5.2       1.2
 6 H  pz              0.0       0.0       0.2       0.2       0.4       0.1
 7 H  s               0.0       0.0       2.5       2.7       6.1       0.0
 7 H  px              0.0       0.0       0.2       0.2       0.3       0.0
 7 H  py              0.0       0.0       0.0       0.0       0.2       0.0
 8 H  s               0.0       0.0       2.5       2.4       5.3       1.0
 8 H  pz              0.0       0.0       0.1       0.1       0.2       0.1
 8 H  py              0.0       0.0       0.1       0.1       0.2       0.0
 9 H  s               0.3       0.1       2.7       0.6       2.5       7.1
 9 H  pz              0.0       0.0       0.1       0.0       0.1       0.3
 9 H  py              0.0       0.0       0.2       0.0       0.1       0.1
10 H  s               0.3       0.1       2.7       0.6       2.2       7.9
10 H  pz              0.0       0.0       0.2       0.0       0.2       0.5
11 H  s               0.1       0.0       1.2       5.9       2.2       0.9
11 H  pz              0.0       0.0       0.1       0.3       0.1       0.1
11 H  px              0.0       0.0       0.0       0.2       0.0       0.0
12 H  s               0.1       0.0       1.7       5.5       1.1       0.4
12 H  py              0.0       0.0       0.1       0.4       0.1       0.0
13 H  s               0.1       0.0       1.3       5.9       2.1       0.8
13 H  pz              0.0       0.0       0.1       0.3       0.1       0.0
13 H  px              0.0       0.0       0.0       0.2       0.0       0.0

                     12        13        14        15        16        17   
                  -0.46679  -0.45615  -0.43645  -0.41691  -0.38512  -0.37045
                   2.00000   2.00000   2.00000   2.00000   2.00000   2.00000
                  --------  --------  --------  --------  --------  --------
 0 C  s               0.0       0.2       0.3       0.0       0.0       0.1
 0 C  pz              8.2       0.1       0.0      12.4       1.5       0.8
 0 C  px              0.0       3.4       2.1       0.2      12.6       2.4
 0 C  py              0.6       0.0       3.4       0.4       8.4      24.6
 0 C  dz2             0.0       0.0       0.0       0.0       0.1       0.3
 0 C  dx2y2           0.0       0.0       0.0       0.0       0.0       0.1
 0 C  dxy             0.0       0.0       0.1       0.0       0.1       0.0
 1 C  s               0.0       0.3       0.5       0.0       0.1       0.1
 1 C  pz             24.9       0.0       0.0       8.5       0.1       0.1
 1 C  px              0.1       0.1       5.8       0.0       0.2       2.9
 1 C  py              1.3       2.9       0.0       0.6       1.0       2.7
 1 C  dx2y2           0.0       0.0       0.1       0.0       0.1       0.1
 2 O  s               0.0       0.1       1.5       0.0       2.1       0.5
 2 O  pz             23.3       0.1       1.2       1.0       0.2       0.0
 2 O  px              0.0       2.8       1.2       0.0       0.0       1.0
 2 O  py              0.9       3.4      21.8       0.0       0.4       2.4
 2 O  dz2             0.3       0.0       0.0       0.0       0.4       0.0
 2 O  dxz             0.2       0.0       0.0       2.3       0.0       0.0
 2 O  dyz             0.7       0.0       0.0       0.0       0.0       0.0
 2 O  dx2y2           0.0       1.6       0.3       0.0       0.4       0.0
 2 O  dxy             0.0       0.2       0.7       0.2       0.0       0.0
 3 C  s               0.1       4.0       1.0       0.0       0.4       0.2
 3 C  pz             10.3       0.5       0.2      11.1       0.1       0.8
 3 C  px              0.7      14.2       0.9       0.3       0.6       0.2
 3 C  py              0.9       0.9       5.4       0.9       0.8       4.9
 3 C  dx2y2           0.0       0.0       0.3       0.0       0.2       0.2
 3 C  dxy             0.0       0.0       0.1       0.0       0.2       0.0
 4 O  s               0.0       4.2      10.1       0.1       0.7       2.2
 4 O  pz              4.0       0.4       4.3       5.0       0.6       1.6
 4 O  px              0.5       6.2       2.1       0.2       2.1       0.2
 4 O  py              0.1      11.5      18.1       1.8       3.4      13.6
 4 O  dz2             0.3       0.1       0.0       0.2       0.0       0.1
 4 O  dxz             0.0       0.1       0.0       0.1       0.0       0.0
 4 O  dyz             0.5       0.1       0.2       0.5       0.0       0.1
 4 O  dx2y2           0.0       0.6       0.1       0.1       0.0       0.1
 4 O  dxy             0.1       0.7       0.1       0.0       0.1       0.0
 5 C  s               0.1       1.9       0.1       0.0       0.0       0.0
 5 C  pz              3.1       3.4       0.0      23.1       3.4       2.5
 5 C  px              0.3       7.8       7.5       0.1       9.7       0.2
 5 C  py              1.7      14.4       2.0       3.6      14.8       7.4
 5 C  dz2             0.0       0.0       0.1       0.0       0.1       0.0
 5 C  dxz             0.0       0.0       0.0       0.1       0.0       0.0
 5 C  dx2y2           0.0       0.0       0.0       0.0       0.1       0.1
 5 C  dxy             0.0       0.5       0.0       0.0       0.0       0.1
 6 H  s               1.5       0.2       0.7       3.4       2.5       4.4
 6 H  pz              0.0       0.0       0.0       0.0       0.1       0.2
 7 H  s               0.0       1.3       0.2       0.0      11.0       8.1
 7 H  px              0.0       0.0       0.0       0.0       0.2       0.2
 8 H  s               1.8       0.0       1.0       3.0       1.1       5.5
 8 H  pz              0.0       0.0       0.0       0.0       0.1       0.2
 8 H  py              0.1       0.0       0.0       0.1       0.0       0.0
 9 H  s               5.6       0.3       0.3       2.4       0.0       1.0
 9 H  py              0.2       0.0       0.0       0.1       0.0       0.0
10 H  s               5.0       0.0       0.2       2.2       0.0       1.0
10 H  py              0.2       0.0       0.0       0.1       0.0       0.0
11 H  s               1.3       1.0       1.1       7.8       4.4       1.0
11 H  pz              0.0       0.1       0.1       0.1       0.1       0.0
11 H  px              0.0       0.0       0.0       0.2       0.0       0.0
11 H  py              0.0       0.1       0.0       0.0       0.1       0.1
12 H  s               0.2       6.5       1.6       0.1      12.4       5.0
12 H  pz              0.0       0.0       0.0       0.2       0.0       0.0
12 H  px              0.0       0.2       0.0       0.0       0.0       0.0
12 H  py              0.0       0.1       0.0       0.0       0.3       0.1
13 H  s               0.4       2.6       2.3       6.7       1.7       0.0
13 H  pz              0.0       0.0       0.1       0.0       0.2       0.0
13 H  px              0.0       0.0       0.0       0.2       0.0       0.0
13 H  py              0.0       0.2       0.0       0.0       0.0       0.1

                     18        19        20        21        22        23   
                  -0.36534  -0.35857  -0.32429  -0.31603  -0.27208  -0.23493
                   2.00000   2.00000   2.00000   2.00000   2.00000   2.00000
                  --------  --------  --------  --------  --------  --------
 0 C  s               0.0       0.2       0.1       0.6       0.0       0.0
 0 C  pz             18.1       4.5       8.9       2.6       0.4       0.0
 0 C  px              3.9      20.4       0.1       2.2       0.1       0.1
 0 C  py              1.9       0.5       2.7       5.2       0.1       0.0
 0 C  dz2             0.0       0.0       0.0       0.1       0.0       0.0
 0 C  dyz             0.2       0.1       0.4       0.1       0.1       0.0
 0 C  dxy             0.1       0.3       0.0       0.0       0.0       0.0
 1 C  s               0.0       0.1       0.1       0.6       0.0       0.2
 1 C  pz              0.2       0.7       9.5       4.7       4.6       0.1
 1 C  px              2.5      12.1       0.0       0.0       0.0       0.6
 1 C  py              1.1       2.9       3.8      10.8       0.6       0.1
 1 C  dz2             0.0       0.0       0.0       0.4       0.1       0.0
 1 C  dxz             0.3       0.0       0.0       0.0       0.2       0.0
 1 C  dyz             0.0       0.0       0.4       0.1       0.7       0.0
 1 C  dx2y2           0.0       0.0       0.2       0.4       0.1       0.1
 1 C  dxy             0.0       0.4       0.0       0.1       0.1       0.0
 2 O  s               0.0       0.0       0.2       3.1       0.0       0.3
 2 O  pz             10.9       3.9       0.0       3.7      39.0       0.5
 2 O  px              1.2       5.5       0.1       0.3       0.1       2.6
 2 O  py              2.2       0.7       3.1      27.7       4.5       5.5
 2 O  dz2             0.1       0.0       0.0       0.2       0.3       0.1
 2 O  dxz             0.1       0.0       0.9       0.1       0.1       0.1
 2 O  dyz             0.2       0.1       0.0       0.2       0.9       0.1
 2 O  dx2y2           0.1       0.1       0.2       1.8       0.1       0.1
 2 O  dxy             0.1       0.6       0.1       0.0       0.0       0.2
 3 C  s               0.0       0.1       0.0       0.3       0.0       0.2
 3 C  pz              1.4       0.4       7.9       0.3       0.4       0.1
 3 C  px              1.1       3.8       0.1       0.3       0.0       1.2
 3 C  py              0.1       1.4       0.5       3.8       0.1       0.4
 3 C  dz2             0.0       0.0       0.2       0.0       0.6       0.0
 3 C  dxz             0.2       0.2       0.0       0.0       0.4       0.5
 3 C  dyz             0.0       0.0       0.4       0.0       0.9       0.0
 3 C  dx2y2           0.0       0.0       0.0       0.5       0.1       0.2
 3 C  dxy             0.1       0.1       0.1       0.4       0.1       3.3
 4 O  s               0.0       0.2       0.1       0.9       0.0       0.0
 4 O  pz              2.1       2.0      16.4       4.5      29.9       0.1
 4 O  px              0.3       1.1       0.0       0.2       0.3      72.7
 4 O  py              0.1       0.4       6.0       5.5       4.0       0.7
 4 O  dxz             0.1       0.1       0.0       0.0       0.0       0.1
 4 O  dyz             0.0       0.0       0.3       0.1       0.0       0.0
 4 O  dx2y2           0.0       0.0       0.0       0.3       0.0       0.1
 4 O  dxy             0.1       0.0       0.0       0.1       0.0       0.5
 5 C  s               0.0       0.1       0.0       0.2       0.0       0.6
 5 C  pz             10.7       4.4       6.1       0.1       0.1       0.4
 5 C  px              4.4      11.8       0.5       2.5       0.0       2.4
 5 C  py              4.8       0.0       0.4       0.6       0.0       3.6
 5 C  dxz             0.2       0.1       0.2       0.0       0.0       0.0
 6 H  s               5.8       2.4       3.5       3.5       0.5       0.1
 6 H  px              0.0       0.2       0.0       0.0       0.0       0.0
 6 H  py              0.1       0.0       0.1       0.0       0.0       0.0
 7 H  s               1.4       6.0       0.0       0.1       0.0       0.3
 7 H  pz              0.1       0.1       0.1       0.0       0.0       0.0
 7 H  py              0.1       0.1       0.0       0.0       0.0       0.0
 8 H  s               7.3       0.9       7.3       0.0       0.6       0.0
 8 H  px              0.1       0.2       0.0       0.0       0.0       0.0
 8 H  py              0.1       0.1       0.0       0.1       0.0       0.0
 9 H  s               0.5       0.0       9.3       0.7       5.6       0.0
 9 H  pz              0.0       0.0       0.0       0.1       0.0       0.0
10 H  s               0.0       0.8       2.9       8.5       4.2       0.1
10 H  pz              0.0       0.0       0.0       0.1       0.0       0.0
10 H  px              0.0       0.1       0.0       0.0       0.0       0.0
10 H  py              0.0       0.0       0.1       0.0       0.0       0.0
11 H  s               1.6       7.5       2.0       0.7       0.0       0.0
11 H  pz              0.0       0.1       0.0       0.0       0.0       0.0
11 H  px              0.1       0.0       0.1       0.0       0.0       0.0
12 H  s               1.8       1.4       0.0       0.0       0.0       1.3
12 H  pz              0.1       0.0       0.1       0.0       0.0       0.0
13 H  s              11.0       0.0       3.9       0.0       0.0       0.0

                     24        25        26        27        28        29   
                  -0.01398   0.07557   0.09744   0.12039   0.13200   0.14599
                   0.00000   0.00000   0.00000   0.00000   0.00000   0.00000
                  --------  --------  --------  --------  --------  --------
 0 C  s               0.0       1.9      18.5      14.3       8.1       0.9
 0 C  pz              0.1       0.0       0.1       0.0       0.4       0.6
 0 C  px              0.0       0.4       1.4       9.3       9.8       1.1
 0 C  py              0.0       0.2       1.8       0.6      14.3       2.9
 0 C  dz2             0.0       0.0       0.4       0.0       0.2       0.2
 0 C  dx2y2           0.0       0.6       0.5       0.5       0.2       0.0
 0 C  dxy             0.0       0.3       0.2       0.1       1.3       0.0
 1 C  s               0.0       3.5      15.8       1.8       8.2       0.1
 1 C  pz              0.1       0.5       0.4       0.6       0.0       1.7
 1 C  px              0.0      11.8      12.7       1.5       7.5       0.9
 1 C  py              0.0       7.3       4.4       9.6       3.9       8.3
 1 C  dz2             0.0       0.9       0.0       1.2       0.0       0.1
 1 C  dxz             0.1       0.1       0.1       0.0       0.0       0.0
 1 C  dyz             0.2       0.1       0.0       0.1       0.0       0.2
 1 C  dx2y2           0.0       0.4       0.1       0.3       0.3       0.1
 1 C  dxy             0.0       0.7       1.3       0.0       0.8       0.3
 2 O  s               0.0       7.9       1.3       1.7       0.2       0.6
 2 O  pz              9.1       0.2       0.2       0.1       0.0       0.1
 2 O  px              0.0       0.5       2.8       1.9       0.6       1.8
 2 O  py              1.2       1.1       3.7       1.0       0.5       0.3
 2 O  dz2             0.3       3.3       2.4       0.1       0.0       0.4
 2 O  dxz             5.9       0.0       0.3       0.0       0.0       0.4
 2 O  dyz             0.2       0.8       0.4       0.0       0.0       0.1
 2 O  dx2y2           0.0       0.4       0.5       2.6       0.0       3.5
 2 O  dxy             0.7       0.1       4.2       0.2       0.7       2.2
 3 C  s               0.0      12.7       0.4       3.4       0.1       5.3
 3 C  pz             35.2       0.0       0.1       0.2       0.1       0.5
 3 C  px              0.1       0.9       0.0       2.6       2.0       2.0
 3 C  py              4.7       0.2       0.3       1.8       2.1       2.8
 3 C  dz2             0.2       1.3       0.0       0.0       0.0       0.3
 3 C  dxz             0.2       0.0       0.0       0.0       0.0       0.0
 3 C  dyz             0.6       0.4       0.1       0.2       0.0       0.1
 3 C  dx2y2           0.1       0.2       0.5       0.7       0.0       0.1
 4 O  s               0.0       1.4       0.2       1.4       0.2       0.2
 4 O  pz             20.8       0.0       0.0       0.1       0.0       0.0
 4 O  px              0.1       0.5       0.1       0.4       1.4       0.1
 4 O  py              2.8       0.1       0.2       0.6       0.2       0.2
 4 O  dz2             1.9       1.6       0.1       0.1       0.0       0.0
 4 O  dyz             3.6       0.8       0.0       0.3       0.0       0.2
 4 O  dx2y2           0.6       0.0       0.2       0.4       0.1       1.4
 4 O  dxy             0.0       0.2       0.2       0.4       0.2       0.1
 5 C  s               0.0      18.4       0.2      13.0      11.6       3.0
 5 C  pz              0.1       0.0       0.0       0.4       0.0       1.1
 5 C  px              0.0       0.2       0.7       2.3       2.1      27.1
 5 C  py              0.0       0.2       0.1       2.0       1.1      15.1
 5 C  dz2             0.0       0.1       0.0       0.1       0.1       0.4
 5 C  dxz             1.8       0.0       0.0       0.0       0.0       0.2
 5 C  dx2y2           0.0       0.1       0.1       0.6       0.0       0.3
 5 C  dxy             0.2       0.0       0.0       0.5       0.1       2.6
 6 H  s               0.0       0.2       4.0       1.0       0.6       0.9
 6 H  pz              0.0       0.1       1.5       0.7       0.4       0.5
 6 H  px              0.0       0.1       0.1       0.0       0.4       0.0
 6 H  py              0.0       0.0       0.1       0.0       0.5       0.0
 7 H  s               0.0       2.3       1.2       1.9       0.9       0.1
 7 H  px              0.0       0.3       0.1       1.8       0.1       0.1
 7 H  py              0.0       0.0       1.3       0.0       0.0       0.0
 8 H  s               0.0       0.2       3.9       1.0       1.2       0.5
 8 H  pz              0.0       0.1       0.9       0.5       0.2       0.3
 8 H  px              0.0       0.1       0.2       0.0       0.3       0.0
 8 H  py              0.0       0.0       0.5       0.2       1.1       0.0
 9 H  s               0.7       1.8       2.5       0.4       2.7       0.0
 9 H  pz              0.0       0.9       0.5       0.4       0.7       0.0
 9 H  px              0.0       0.5       0.6       0.0       0.5       0.1
 9 H  py              0.0       0.0       0.7       0.2       1.1       0.1
10 H  s               0.4       1.5       2.5       0.5       1.1       0.4
10 H  pz              0.0       0.7       1.1       0.1       0.8       0.1
10 H  px              0.0       0.5       0.5       0.0       0.4       0.1
10 H  py              0.0       0.1       0.2       0.4       0.2       0.4
11 H  s               3.2       2.5       0.1       1.0       2.0       0.6
11 H  pz              0.0       0.8       0.0       0.9       1.0       0.0
11 H  px              0.1       0.2       0.1       0.0       0.1       0.6
11 H  py              0.0       0.0       0.0       0.1       0.0       0.7
12 H  s               0.0       0.7       0.2       5.2       0.9       1.6
12 H  px              0.0       0.1       0.0       0.4       0.2       1.0
12 H  py              0.0       0.3       0.0       1.3       0.5       0.0
13 H  s               3.8       2.6       0.0       1.7       2.0       0.5
13 H  pz              0.1       0.7       0.0       0.4       0.7       0.2
13 H  px              0.2       0.2       0.0       0.0       0.1       0.6
13 H  py              0.0       0.1       0.0       0.8       0.3       0.5

                     30        31        32        33        34        35   
                   0.15472   0.16590   0.17108   0.17640   0.18720   0.19346
                   0.00000   0.00000   0.00000   0.00000   0.00000   0.00000
                  --------  --------  --------  --------  --------  --------
 0 C  s               0.1       1.9       1.0       0.3       0.0       0.0
 0 C  pz             14.5       0.1       0.5       0.0       0.3      31.0
 0 C  px              0.4       4.4      13.0      22.0       0.9       0.0
 0 C  py              0.6       2.3       6.4       1.4      17.2       0.1
 0 C  dz2             0.1       0.2       2.1       0.1       0.4       1.4
 0 C  dxz             0.2       0.0       0.1       0.0       0.0       0.4
 0 C  dyz             1.5       0.1       0.2       0.0       0.7       3.5
 0 C  dx2y2           0.1       0.0       0.7       0.3       0.0       0.1
 0 C  dxy             0.0       0.7       1.1       2.0       0.0       0.0
 1 C  s               0.0       0.1       0.5       1.3       0.9       0.1
 1 C  pz             29.1       0.2       0.7       0.2       1.3       6.9
 1 C  px              0.0       3.6       1.8       4.1       2.7       0.2
 1 C  py              2.3       3.3       8.2       7.2       0.5       1.0
 1 C  dz2             0.3       0.0       0.3       0.3       0.2       0.0
 1 C  dxz             0.2       0.0       0.0       0.0       0.1       0.6
 1 C  dyz             1.4       0.0       0.2       0.0       0.0       0.1
 1 C  dx2y2           0.1       0.0       0.7       0.1       0.0       0.0
 1 C  dxy             0.0       0.5       0.1       0.0       0.0       0.0
 2 O  s               0.0       0.0       0.8       0.6       0.3       0.0
 2 O  pz              0.4       0.0       0.1       0.0       0.2       0.7
 2 O  px              0.0       2.7       1.5       0.5       0.4       0.1
 2 O  py              0.0       0.5       1.9       1.0       0.0       0.1
 2 O  dz2             0.0       0.5       5.2       0.3       0.0       0.4
 2 O  dxz             0.3       0.0       0.0       0.0       0.8       1.7
 2 O  dyz             0.2       0.7       0.9       0.0       1.4       0.2
 2 O  dx2y2           0.0       1.9       0.0       0.3       1.6       0.0
 2 O  dxy             0.0       0.2       0.3       1.1       2.6       0.7
 3 C  s               0.0       2.3       0.6       0.2       3.9       0.4
 3 C  pz              9.8       0.1       0.0       0.5       0.7       0.4
 3 C  px              0.1       2.9       1.5       0.8       1.4       0.2
 3 C  py              0.6       0.2       0.0       9.1       0.6       0.0
 3 C  dz2             0.0       0.3       0.1       0.0       0.4       0.1
 3 C  dyz             0.0       0.0       0.0       0.1       0.8       0.0
 3 C  dx2y2           0.0       0.6       0.0       0.7       0.3       0.0
 3 C  dxy             0.0       0.1       0.0       0.1       0.0       0.0
 4 O  s               0.1       0.3       0.0       1.7       1.0       0.1
 4 O  pz              0.9       0.0       0.0       0.1       1.1       0.1
 4 O  px              0.1       0.6       0.1       1.5       0.3       0.1
 4 O  py              0.0       0.3       0.5       0.4       0.3       0.1
 4 O  dz2             0.1       2.2       0.5       0.0       1.4       0.0
 4 O  dxz             0.9       0.1       0.0       0.3       0.0       0.2
 4 O  dyz             0.1       0.5       0.0       0.1       0.2       0.1
 4 O  dx2y2           0.2       0.4       1.0       0.3       1.2       0.2
 4 O  dxy             0.1       1.1       0.2       0.5       0.0       0.0
 5 C  s               0.3       0.7       0.1       0.0       1.4       0.1
 5 C  pz              2.4       1.8       0.5       0.4       3.0       2.4
 5 C  px              0.5       8.9       0.7       1.5      16.4       2.5
 5 C  py              0.2      17.3       3.7       4.2       7.5       0.6
 5 C  dz2             0.0       1.6       0.0       0.6       0.1       0.0
 5 C  dxz             0.0       0.0       0.0       0.0       1.3       0.0
 5 C  dyz             0.0       1.1       0.0       0.7       0.1       0.0
 5 C  dx2y2           0.0       0.6       0.0       1.1       0.2       0.0
 5 C  dxy             0.0       0.0       0.6       0.2       0.2       0.1
 6 H  s               5.0       0.6       2.5       0.5       0.1      18.8
 6 H  pz              1.1       0.4       0.9       0.1       0.0       1.2
 6 H  px              0.0       0.2       0.5       0.6       0.0       0.1
 6 H  py              0.8       0.0       0.4       0.0       0.8       1.1
 7 H  s               0.0       1.0      22.6       3.1       0.7       0.1
 7 H  pz              0.3       0.0       0.1       0.0       0.1       2.9
 7 H  px              0.0       0.0       4.4       0.0       0.0       0.0
 7 H  py              0.0       0.3       1.5       1.1       0.1       0.1
 8 H  s               4.7       1.1       2.3       0.6       2.9      12.0
 8 H  pz              0.4       0.4       1.3       0.1       0.3       0.0
 8 H  px              0.0       0.3       0.4       0.8       0.0       0.1
 8 H  py              1.2       0.0       0.1       0.1       0.0       2.6
 9 H  s               5.2       0.4       0.6       2.2       0.1       0.8
 9 H  pz              0.5       0.0       0.5       0.8       0.3       0.1
 9 H  px              0.0       0.2       0.0       0.0       0.1       0.4
 9 H  py              2.0       0.1       0.1       0.0       0.0       0.1
10 H  s               6.8       0.2       0.2       2.4       0.7       0.7
10 H  pz              2.1       0.1       0.2       0.8       0.2       0.3
10 H  px              0.1       0.2       0.0       0.0       0.0       0.3
10 H  py              0.8       0.0       0.4       0.0       0.0       0.0
11 H  s               0.0       2.6       0.0       1.9      10.4       0.1
11 H  pz              0.0       0.7       0.0       0.4       2.0       0.1
11 H  px              0.0       0.1       0.0       0.0       1.7       0.1
11 H  py              0.0       0.4       0.2       0.7       0.3       0.0
12 H  s               0.0      13.8       1.4      10.6       0.3       0.2
12 H  pz              0.0       0.5       0.0       0.1       0.6       0.0
12 H  px              0.0       0.0       0.3       0.0       0.4       0.0
12 H  py              0.0       4.3       0.1       1.4       0.3       0.0
13 H  s               0.3       3.0       0.2       1.8       0.8       0.2
13 H  pz              0.1       1.1       0.0       0.7       0.1       0.0
13 H  py              0.0       0.0       0.3       0.1       0.1       0.1

                     36        37        38        39        40        41   
                   0.19540   0.19842   0.21012   0.23386   0.23590   0.24631
                   0.00000   0.00000   0.00000   0.00000   0.00000   0.00000
                  --------  --------  --------  --------  --------  --------
 0 C  s               0.1       0.0       0.7       0.1       0.5       0.0
 0 C  pz              1.6       8.5       2.0      35.1       8.1       4.3
 0 C  px              0.5       0.1       3.8       0.7      12.6       0.2
 0 C  py              4.7       0.4      14.8       8.9      10.2       0.2
 0 C  dz2             0.1       0.0       0.0       0.0       0.7       0.0
 0 C  dxz             0.2       0.4       0.0       0.0       0.0       0.5
 0 C  dyz             0.3       0.1       0.0       0.0       0.1       0.3
 0 C  dx2y2           0.0       0.0       0.1       0.0       0.1       0.0
 1 C  s               0.1       0.0       0.1       0.5       2.2       0.0
 1 C  pz              1.1       2.8       0.2       7.9       1.9      13.5
 1 C  px              0.6       0.0       1.2       0.0       1.8       0.1
 1 C  py              0.8       0.2       0.9       4.3       4.7       1.1
 1 C  dz2             0.0       0.1       0.2       0.0       0.8       0.3
 1 C  dyz             0.2       0.8       0.0       0.1       0.0       2.2
 1 C  dx2y2           0.0       0.1       0.1       0.0       0.0       0.1
 1 C  dxy             0.0       0.0       0.1       0.0       0.2       0.0
 2 O  s               0.1       0.0       0.4       0.0       0.5       0.0
 2 O  pz              2.8       3.0       0.1       0.2       0.5       3.2
 2 O  px              0.2       0.0       0.4       0.1       0.1       0.0
 2 O  py              0.0       0.2       0.5       0.5       3.3       0.4
 2 O  dz2             1.3       0.0       0.3       0.0       0.1       0.1
 2 O  dxz             0.1       0.6       0.1       0.2       0.1       6.5
 2 O  dyz             2.9       0.1       0.2       0.4       0.1       0.1
 2 O  dx2y2           0.1       0.0       0.1       0.2       0.1       0.0
 2 O  dxy             0.7       0.0       0.6       0.2       0.2       0.2
 3 C  s               0.5       0.0       2.5       0.8       3.9       0.0
 3 C  pz              2.7      17.9       0.2       3.6       0.6       9.7
 3 C  px              0.2       0.0       0.1       0.8       3.4       0.4
 3 C  py              0.3       1.4       7.7       0.5       7.1       1.6
 3 C  dz2             0.2       0.0       0.2       0.1       0.4       0.0
 3 C  dxz             0.2       0.0       0.0       0.0       0.0       0.2
 3 C  dyz             0.0       0.0       0.1       0.3       0.2       0.0
 3 C  dx2y2           0.2       0.0       0.0       0.0       0.2       0.0
 4 O  s               0.2       0.0       2.5       0.5       2.1       0.0
 4 O  pz              1.3       1.2       0.0       0.8       0.1       0.4
 4 O  px              0.2       0.0       0.1       0.1       0.2       0.2
 4 O  py              0.4       0.2       1.0       0.1       0.5       0.3
 4 O  dz2             0.2       0.0       0.0       0.5       0.6       0.0
 4 O  dxz             0.1       0.4       0.0       1.0       0.7       0.6
 4 O  dyz             0.7       0.1       0.3       0.1       0.8       0.1
 4 O  dx2y2           0.8       0.0       0.6       0.0       0.2       0.1
 4 O  dxy             0.0       0.0       0.1       0.4       0.0       0.0
 5 C  s               0.1       0.0       0.6       0.0       0.0       0.0
 5 C  pz             18.9      39.2       2.5       8.1       1.0      23.3
 5 C  px              4.8       0.0      15.7       0.9       3.0       0.4
 5 C  py              1.9       4.0      25.3       1.5       1.0       4.1
[...]
 4 O  dxy             0.0       0.0       0.4       0.0      22.3       0.5
 5 C  s               0.0       0.1       0.0       0.0       0.1       0.0
 5 C  pz             10.2       1.4       0.0       0.0       0.0       0.0
 5 C  px              0.1       6.3       0.2       0.0       1.0       0.0
 5 C  py              1.3       5.1       0.1       0.0       0.9       0.0
 5 C  dz2             0.2       9.0       0.2       0.0       0.4       0.0
 5 C  dxz            21.9       0.2       0.0       0.1       0.6       0.0
 5 C  dyz             2.7       5.9       0.1       0.0       0.0       0.0
 5 C  dx2y2           0.1       8.4       0.1       0.0       0.7       0.0
 5 C  dxy             2.1       0.9       0.0       0.0       3.9       0.1
 6 H  s               0.1       0.3       1.3       2.6       0.0       0.0
 6 H  pz              0.2       0.5       4.4       5.4       0.0       0.0
 6 H  px              0.0       0.0       0.1       0.1       0.0       0.0
 6 H  py              0.0       0.0       0.1       1.2       0.0       0.0
 7 H  s               0.5       1.1       0.6       0.0       0.0       0.1
 7 H  px              0.8       2.0       1.3       0.0       0.0       0.2
 7 H  py              0.3       0.7       0.0       0.0       0.1       0.0
 8 H  s               0.0       0.1       3.3       1.1       0.1       0.0
 8 H  pz              0.1       0.3       5.8       0.9       0.1       0.0
 8 H  px              0.0       0.1       0.2       0.1       0.0       0.0
 8 H  py              0.0       0.1       4.1       1.7       0.0       0.0
 9 H  s               0.0       0.1       2.5       4.7       0.0       0.5
 9 H  pz              0.1       0.1       3.7       3.8       0.0       0.7
 9 H  px              0.0       0.0       0.6       0.1       0.1       0.2
 9 H  py              0.0       0.2       3.0       7.8       0.1       0.3
10 H  s               0.0       0.0       0.5       7.1       0.0       0.3
10 H  pz              0.0       0.0       1.8      13.5       0.0       0.7
10 H  px              0.0       0.0       0.3       0.1       0.4       0.2
10 H  py              0.1       0.0       0.0       3.9       0.1       0.0
11 H  s               6.3       4.2       0.1       0.0       0.2       0.0
11 H  pz              8.7       7.7       0.1       0.0       0.5       0.0
11 H  px              6.1       1.9       0.0       0.0       0.1       0.0
11 H  py              0.0       0.4       0.0       0.0       0.0       0.0
12 H  s               0.1       8.9       0.1       0.0       0.5       0.0
12 H  pz              0.2       1.3       0.0       0.0       0.1       0.0
12 H  px              0.0       2.4       0.0       0.0       0.3       0.0
12 H  py              0.1      16.0       0.3       0.0       1.1       0.0
13 H  s               8.2       1.6       0.1       0.0       0.1       0.0
13 H  pz              9.3       3.6       0.1       0.0       0.2       0.0
13 H  px              7.0       0.4       0.1       0.0       0.0       0.0
13 H  py              3.2       0.2       0.0       0.0       0.0       0.0

                    156       157       158       159       160       161   
                   4.29914   4.42286  21.88110  21.94613  22.01112  22.23182
                   0.00000   0.00000   0.00000   0.00000   0.00000   0.00000
                  --------  --------  --------  --------  --------  --------
 0 C  s               0.0       0.0      46.0      45.2       7.7       0.7
 1 C  s               0.7       0.2      17.5       0.1      78.2       3.8
 1 C  pz              0.1       0.0       0.0       0.0       0.0       0.0
 1 C  px              1.5       0.3       0.0       0.0       0.0       0.0
 1 C  py              0.8       0.1       0.0       0.0       0.0       0.0
 1 C  dz2             0.7       0.1       0.0       0.0       0.0       0.0
 1 C  dxz             0.1       0.0       0.0       0.0       0.0       0.0
 1 C  dx2y2           0.5       0.1       0.0       0.0       0.0       0.0
 1 C  dxy             1.5       0.5       0.0       0.0       0.0       0.0
 2 O  s               4.7       0.9       0.0       0.0       0.1       0.1
 2 O  pz              0.3       0.0       0.0       0.0       0.0       0.0
 2 O  px             30.8       1.0       0.0       0.0       0.0       0.1
 2 O  py              0.7       0.2       0.0       0.0       0.0       0.0
 2 O  dz2             1.6       0.5       0.0       0.0       0.0       0.0
 2 O  dxz             3.6       0.1       0.0       0.0       0.0       0.0
 2 O  dyz             0.2       0.1       0.0       0.0       0.0       0.0
 2 O  dx2y2           3.4       0.3       0.0       0.0       0.0       0.0
 2 O  dxy            20.7       1.3       0.0       0.0       0.0       0.0
 3 C  s               3.5       4.8       0.0       0.2       4.2      94.6
 3 C  pz              0.2       1.0       0.0       0.0       0.0       0.0
 3 C  px              5.6       0.2       0.0       0.0       0.0       0.0
 3 C  py              0.9       7.2       0.0       0.0       0.0       0.0
 3 C  dz2             1.5       0.6       0.0       0.0       0.0       0.0
 3 C  dxz             1.3       0.0       0.0       0.0       0.0       0.0
 3 C  dyz             0.2       2.0       0.0       0.0       0.0       0.0
 3 C  dx2y2           2.3       4.1       0.0       0.0       0.0       0.0
 3 C  dxy             6.9       0.0       0.0       0.0       0.0       0.0
 4 O  s               0.9      17.7       0.0       0.0       0.0       0.2
 4 O  pz              0.1       2.6       0.0       0.0       0.0       0.0
 4 O  px              0.1       0.1       0.0       0.0       0.0       0.0
 4 O  py              0.7      19.2       0.0       0.0       0.0       0.1
 4 O  dz2             0.4       3.3       0.0       0.0       0.0       0.0
 4 O  dxz             0.1       0.1       0.0       0.0       0.0       0.0
 4 O  dyz             0.3      10.4       0.0       0.0       0.0       0.0
 4 O  dx2y2           0.1      19.7       0.0       0.0       0.0       0.0
 4 O  dxy             1.3       0.6       0.0       0.0       0.0       0.0
 5 C  s               0.0       0.0      36.1      54.0       9.5       0.1
 5 C  py              0.1       0.0       0.0       0.0       0.0       0.0
 5 C  dz2             0.0       0.1       0.0       0.0       0.0       0.0
 5 C  dxy             0.3       0.0       0.0       0.0       0.0       0.0
10 H  pz              0.2       0.0       0.0       0.0       0.0       0.0

                    162       163   
                  43.64156  43.70921
                   0.00000   0.00000
                  --------  --------
 2 O  s               6.4      93.5
 4 O  s              93.5       6.4


                      *****************************
                      * MAYER POPULATION ANALYSIS *
                      *****************************

  NA   - Mulliken gross atomic population
  ZA   - Total nuclear charge
  QA   - Mulliken gross atomic charge
  VA   - Mayer's total valence
  BVA  - Mayer's bonded valence
  FA   - Mayer's free valence

  ATOM       NA         ZA         QA         VA         BVA        FA
  0 C      6.4400     6.0000    -0.4400     3.8387     3.8387    -0.0000
  1 C      6.1500     6.0000    -0.1500     3.6733     3.6733    -0.0000
  2 O      8.1679     8.0000    -0.1679     1.9382     1.9382    -0.0000
  3 C      5.5898     6.0000     0.4102     3.7835     3.7835     0.0000
  4 O      8.4210     8.0000    -0.4210     1.9336     1.9336    -0.0000
  5 C      6.5142     6.0000    -0.5142     3.8729     3.8729    -0.0000
  6 H      0.8480     1.0000     0.1520     0.9613     0.9613    -0.0000
  7 H      0.8528     1.0000     0.1472     0.9638     0.9638     0.0000
  8 H      0.8476     1.0000     0.1524     0.9617     0.9617    -0.0000
  9 H      0.8486     1.0000     0.1514     0.9510     0.9510    -0.0000
 10 H      0.8372     1.0000     0.1628     0.9522     0.9522     0.0000
 11 H      0.8271     1.0000     0.1729     0.9575     0.9575    -0.0000
 12 H      0.8289     1.0000     0.1711     0.9602     0.9602    -0.0000
 13 H      0.8268     1.0000     0.1732     0.9571     0.9571    -0.0000

  Mayer bond orders larger than 0.100000
B(  0-C ,  1-C ) :   0.9397 B(  0-C ,  6-H ) :   0.9702 B(  0-C ,  7-H ) :   0.9680 
B(  0-C ,  8-H ) :   0.9736 B(  1-C ,  2-O ) :   0.8081 B(  1-C ,  9-H ) :   0.9481 
B(  1-C , 10-H ) :   0.9562 B(  2-O ,  3-C ) :   1.0799 B(  3-C ,  4-O ) :   1.8174 
B(  3-C ,  5-C ) :   0.9439 B(  5-C , 11-H ) :   0.9543 B(  5-C , 12-H ) :   0.9878 
B(  5-C , 13-H ) :   0.9479 

-------
TIMINGS
-------

Total SCF time: 0 days 0 hours 0 min 13 sec 

Total time                  ....      13.191 sec
Sum of individual times     ....      12.742 sec  ( 96.6%)

SCF preparation             ....       0.169 sec  (  1.3%)
Fock matrix formation       ....      11.762 sec  ( 89.2%)
  Startup                   ....       0.050 sec  (  0.4% of F)
  Split-RI-J                ....       1.780 sec  ( 15.1% of F)
  XC integration            ....       9.455 sec  ( 80.4% of F)
    XC Preparation          ....       0.000 sec  (  0.0% of XC)
    Basis function eval.    ....       1.569 sec  ( 16.6% of XC)
    Density eval.           ....       2.841 sec  ( 30.0% of XC)
    XC-Functional eval.     ....       1.346 sec  ( 14.2% of XC)
    XC-Potential eval.      ....       2.842 sec  ( 30.1% of XC)
Diagonalization             ....       0.000 sec  (  0.0%)
Density matrix formation    ....       0.222 sec  (  1.7%)
Total Energy calculation    ....       0.031 sec  (  0.2%)
Population analysis         ....       0.072 sec  (  0.5%)
Orbital Transformation      ....       0.047 sec  (  0.4%)
Orbital Orthonormalization  ....       0.000 sec  (  0.0%)
DIIS solution               ....       0.393 sec  (  3.0%)
  MO trafo                  ....       0.000 sec  (  0.0 % of DIIS)
  Orb grad                  ....       0.000 sec  (  0.0 % of DIIS)
  Energy W gradient         ....       0.000 sec  (  0.0 % of DIIS)
  DIIS error                ....       0.006 sec  (  1.5 % of DIIS)
  DIIS work                 ....       0.345 sec  ( 87.8 % of DIIS)
  Form Q                    ....       0.000 sec  (  0.0 % of DIIS)
  Form QpQm                 ....       0.000 sec  (  0.0 % of DIIS)
  Exp/Cayley                ....       0.000 sec  (  0.0 % of DIIS)
  Orb update                ....       0.000 sec  (  0.0 % of DIIS)
  Wake-sleep                ....       0.020 sec  (  5.1 % of DIIS)
SOSCF solution              ....       0.046 sec  (  0.3%)
  MO trafo                  ....       0.037 sec  ( 81.0 % of SOSCF)
  Orb grad                  ....       0.001 sec  (  1.3 % of SOSCF)
  Rot update                ....       0.000 sec  (  0.1 % of SOSCF)
  Step                      ....       0.008 sec  ( 17.5 % of SOSCF)
Finished LeanSCF after  13.5 sec

Maximum memory used throughout the entire LEANSCF-calculation: 16.7 MB


-------------------------------------------------------------------------------
                          DFT DISPERSION CORRECTION                            
                                                                               
                                DFTD4 V3.4.0                                   
-------------------------------------------------------------------------------
The R2SCAN3C composite method is recognized
Using three-body term ABC
Active option DFTDOPT                   ...         5   

-------------------------   ----------------
Dispersion correction           -0.002870126
-------------------------   ----------------

------------------   -----------------
gCP correction             0.009101138
------------------   -----------------

-------------------------   --------------------
FINAL SINGLE POINT ENERGY      -307.637530438133
-------------------------   --------------------


------------------------------------------------------------------------------
                              ORCA PROPERTY CALCULATIONS
------------------------------------------------------------------------------

GBWName                                 ... sp_gas.gbw
Number of atoms                         ...     14
Number of basis functions               ...    164
Max core memory                         ...   1024 MB

Electric properties:
Dipole moment                           ... YES
Quadrupole moment                       ...  NO
Static polarizability (Dipole/Dipole)   ...  NO
Static polarizability (Dipole/Quad.)    ...  NO
Static polarizability (Quad./Quad.)     ...  NO
Static polarizability (Velocity)        ...  NO

Atomic electric properties:
Dipole moment                           ...  NO
Quadrupole moment                       ...  NO
Static polarizability                   ...  NO

Choice of electric origin               ... Center of mass
Position of electric origin             ...    -0.000017     0.000017    -0.000005

General magnetic properties:
Magnetizability                         ...  NO

EPR properties:
g-Tensor (aka g-matrix)                 ...  NO
Zero-Field splitting spin-orbit         ...  NO
Zero-field splitting spin-spin          ...  NO
Hyperfine couplings                     ...  NO (   0 nuclei)
Quadrupole couplings                    ...  NO (   0 nuclei)
Contact density                         ...  NO (   0 nuclei)

NMR properties:
Chemical shifts                         ...  NO (   0 nuclei)
Spin-rotation constants                 ...  NO (   0 nuclei)
Spin-spin couplings                     ...  NO (   0 nuclei,    0 pairs)

Choice of magnetic origin               ... GIAO
Position of magnetic origin             ...     0.000000     0.000000     0.000000

Properties with geometric perturbations:
SCF Hessian                             ...  NO
IR spectrum                             ...  NO
VCD spectrum                            ...  NO
X-ray spectroscopy properties:
SCF XES/XAS/RIXS spectra                ...  NO


-------------
DIPOLE MOMENT
-------------

Method             : SCF
Type of density    : Electron Density
Multiplicity       :   1
Irrep              :   0
Energy             :  -307.6437614499099027 Eh
Relativity type    : 
Basis              : AO
                                X                 Y                 Z
Electronic contribution:      3.345104689      -2.525662626       0.726506282
Nuclear contribution   :     -3.769286627       3.242411414      -0.995688330
                        -----------------------------------------
Total Dipole Moment    :     -0.424181937       0.716748788      -0.269182048
                        -----------------------------------------
Magnitude (a.u.)       :      0.875281735
Magnitude (Debye)      :      2.224789364



--------------------
Rotational spectrum 
--------------------
 
Rotational constants in cm-1:             0.282393             0.069781             0.057879 
Rotational constants in MHz :          8465.939544          2091.974174          1735.164644 

Dipole components along the rotational axes: 
x,y,z [a.u.] :    -0.501519     0.716786    -0.028536 
x,y,z [Debye]:    -1.274760     1.821926    -0.072532 

 

Dipole moment calculation done in   0.0 sec 

Maximum memory used throughout the entire PROP-calculation: 9.3 MB

--------------------------------
SUGGESTED CITATIONS FOR THIS RUN
--------------------------------

Below you find a list of papers that are relevant to this ORCA run
We neither can nor want to force you to cite these papers, but we appreciate if you do
You receive ORCA, which is the product of decades of hard work by many enthusiastic individuals, for free
The only thing we kindly ask in return is that you cite our papers,
We deeply appreciate it, if you show your appreciation for ORCA by not just citing the generic ORCA reference.

Please note that relegating all ORCA citations to the supporting information does *not* help us.
SI sections are not indexed - citations you put there will not count into any citation statistics
But we need these citations in order to attract the funding resources that allow us to do what we are doing

Therefore, if you are a happy ORCA user, please consider citing a few of the papers listed below in the main body of your paper

In addition to the list printed below, the program has created the file sp_gas.bibtex that contains the list in bibtex format
You can import this file easily into all common literature databanks and citation aid programs


List of essential papers. We consider these as the minimum necessary citations

  1. Neese,F.
     Software update: the ORCA program system, version 5.0
     WIRES Comput. Molec. Sci., 2022 12(1)e1606
     doi.org/10.1002/wcms.1606
  2. Grimme,S.; Hansen,A.; Ehlert,S.; Mewes,J.
     r2SCAN-3c: A 'Swiss army knife' composite electronic-structure method
     J. Chem. Phys., 2021 154 064103
     doi.org/10.1063/5.0040021

List of papers to cite with high priority. The work reported in these papers was absolutely
necessary for this run to complete.
Our perspective: the developers of density functionals and basis sets usually get cited in chemistry papers
Good! But without the algorithms to do something with them, the functionals or basis sets would not do anything.
Hence, in our opinion, the algorithm design and method developments papers are equally worthy of getting cited

  1. Neese,F.
     An improvement of the resolution of the identity approximation for the formation of the Coulomb matrix
     J. Comp. Chem., 2003 24(14)1740-1747
     doi.org/10.1002/jcc.10318
  2. Neese,F.
     The SHARK Integral Generation and Digestion System
     J. Comp. Chem., 2022  1-16
     doi.org/10.1002/jcc.26942
  3. Lehtola,S.; Steigemann,C.; Oliveira,M.; Marques,M.
     Recent developments in Libxc - A comprehensive library of functionals for density functional theory
     Software X, 2018 7 
     doi.org/10.1016/j.softx.2017.11.002
  4. Caldeweyher,E.; Bannwarth,C.; Grimme,S.
     Extension of the D3 dispersion coefficient model
     J. Chem. Phys., 2017 147 034112-XXXX
     doi.org/10.1063/1.4993215
  5. Caldeweyher,E.; Ehlert,S.; Hansen,A.; Neugebauer,H.; Spicher,S.; Bannwarth,C.; Grimme,S.
     A generally applicable atomic-charge dependent London dispersion correction
     J. Chem. Phys., 2019 150 154122-XXXX
     doi.org/10.1063/1.5090222
  6. Caldeweyher,E.; Mewes,J.; Ehlert,S.; Grimme,S.
     Extension and evaluation of the D4 London-dispersion model for periodic systems
     Phys. Chem. Chem. Phys., 2020 22(16)8499-8512
     doi.org/10.1039/D0CP00502A

List of suggested additional citations. These are papers that are important in the 'surrounding' of 
of this run, or papers that preceded the highly important papers. If you like your results we are grateful for a citation.

  1. Neese,F.
     The ORCA program system
     WIRES Comput. Molec. Sci., 2012 2(1)73-78
     doi.org/10.1002/wcms.81
  2. Neese,F.
     Software update: the ORCA program system, version 4.0
     WIRES Comput. Molec. Sci., 2018 8(1)1-6
     doi.org/10.1002/wcms.1327
  3. Neese,F.; Wennmohs,F.; Becker,U.; Riplinger,C.
     The ORCA quantum chemistry program package
     J. Chem. Phys., 2020 152 Art. No. L224108
     doi.org/10.1063/5.0004608

List of optional additional citations

  1. Neese,F.
     Approximate second-order SCF convergence for spin unrestricted wavefunctions
     Chem. Phys. Lett., 2000 325(1-3)93-98
     doi.org/10.1016/s0009-2614(00)00662-x

Timings for individual modules:

Sum of individual times          ...       14.536 sec (=   0.242 min)
Startup calculation              ...        0.739 sec (=   0.012 min)   5.1 %
SCF iterations                   ...       13.706 sec (=   0.228 min)  94.3 %
Property calculations            ...        0.091 sec (=   0.002 min)   0.6 %
                             ****ORCA TERMINATED NORMALLY****
TOTAL RUN TIME: 0 days 0 hours 0 minutes 15 seconds 159 msec
