      -----------------------------------------------------------      
     |                   =====================                   |     
     |                           x T B                           |     
     |                   =====================                   |     
     |                         S. Grimme                         |     
     |          Mulliken Center for Theoretical Chemistry        |     
     |                    University of Bonn                     |     
      -----------------------------------------------------------      

   * xtb version 6.7.1 (edcfbbe) compiled by 'albert@albert-system' on 2024-07-22

   xtb is free software: you can redistribute it and/or modify it under
   the terms of the GNU Lesser General Public License as published by
   the Free Software Foundation, either version 3 of the License, or
   (at your option) any later version.
   
   xtb is distributed in the hope that it will be useful,
   but WITHOUT ANY WARRANTY; without even the implied warranty of
   MERCHANTABILITY or FITNESS FOR A PARTICULAR PURPOSE.  See the
   GNU Lesser General Public License for more details.
   
   Cite this work as:
   * C. Bannwarth, E. Caldeweyher, S. Ehlert, A. Hansen, P. Pracht,
     J. Seibert, S. Spicher, S. Grimme, WIREs Comput. Mol. Sci., 2020, 11,
     e01493. DOI: 10.1002/wcms.1493
   
   for GFN2-xTB:
   * C. Bannwarth, S. Ehlert and S. Grimme., J. Chem. Theory Comput., 2019,
     15, 1652-1671. DOI: 10.1021/acs.jctc.8b01176
   for GFN1-xTB:
   * S. Grimme, C. Bannwarth, P. Shushkov, J. Chem. Theory Comput., 2017,
     13, 1989-2009. DOI: 10.1021/acs.jctc.7b00118
   for GFN0-xTB:
   * P. Pracht, E. Caldeweyher, S. Ehlert, S. Grimme, ChemRxiv, 2019, preprint.
     DOI: 10.26434/chemrxiv.8326202.v1
   for GFN-FF:
   * S. Spicher and S. Grimme, Angew. Chem. Int. Ed., 2020, 59, 15665-15673.
     DOI: 10.1002/anie.202004239
   
   for ALPB and GBSA implicit solvation:
   * S. Ehlert, M. Stahn, S. Spicher, S. Grimme, J. Chem. Theory Comput.,
     2021, 17, 4250-4261. DOI: 10.1021/acs.jctc.1c00471
   
   for ddCOSMO and CPCM-X implicit solvation:
   * M. Stahn, S. Ehlert, S. Grimme, J. Phys. Chem. A,
     2023, XX, XXXX-XXXX. DOI: 10.1021/acs.jpca.3c04382
   
   for DFT-D4:
   * E. Caldeweyher, C. Bannwarth and S. Grimme, J. Chem. Phys., 2017,
     147, 034112. DOI: 10.1063/1.4993215
   * E. Caldeweyher, S. Ehlert, A. Hansen, H. Neugebauer, S. Spicher,
     C. Bannwarth and S. Grimme, J. Chem. Phys., 2019, 150, 154122.
     DOI: 10.1063/1.5090222
   * E. Caldeweyher, J.-M. Mewes, S. Ehlert and S. Grimme, Phys. Chem. Chem. Phys.
     2020, 22, 8499-8512. DOI: 10.1039/D0CP00502A
   
   for sTDA-xTB:
   * S. Grimme and C. Bannwarth, J. Chem. Phys., 2016, 145, 054103.
     DOI: 10.1063/1.4959605
   
   in the mass-spec context:
   * V. Asgeirsson, C. Bauer and S. Grimme, Chem. Sci., 2017, 8, 4879.
     DOI: 10.1039/c7sc00601b
   * J. Koopman and S. Grimme, ACS Omega 2019, 4, 12, 15120-15133.
     DOI: 10.1021/acsomega.9b02011
   
   for metadynamics refer to:
   * S. Grimme, J. Chem. Theory Comput., 2019, 155, 2847-2862
     DOI: 10.1021/acs.jctc.9b00143
   
   for SPH calculations refer to:
   * S. Spicher and S. Grimme, J. Chem. Theory Comput., 2021, 17, 1701-1714
     DOI: 10.1021/acs.jctc.0c01306
   
   for ONIOM refer to:
   * C. Plett, A. Katbashev, S. Ehlert, S. Grimme, M. Bursch,
     Phys. Chem. Chem. Phys., 2023, 25, 17860-17868. DOI: 10.1039/D3CP02178E
   
   for DIPRO refer to:
   * J. Kohn, N. Gildemeister, S. Grimme, D. Fazzi, A. Hansen,
     J. Chem. Phys., 2023, just accepted.
   
   for PTB refer to:
   * S. Grimme, M. Mueller, A. Hansen, J. Chem. Phys., 2023, 158, 124111.
     DOI: 10.1063/5.0137838
   
   with help from (in alphabetical order)
   P. Atkinson, C. Bannwarth, F. Bohle, G. Brandenburg, E. Caldeweyher
   M. Checinski, S. Dohm, S. Ehlert, S. Ehrlich, I. Gerasimov, C. Hölzer
   A. Katbashev, J. Kohn, J. Koopman, C. Lavigne, S. Lehtola, F. März, M. Müller,
   F. Musil, H. Neugebauer, J. Pisarek, C. Plett, P. Pracht, F. Pultar,
   J. Seibert, P. Shushkov, S. Spicher, M. Stahn, M. Steiner, T. Strunk,
   J. Stückrath, T. Rose, and J. Unsleber
   
 * started run on 2025/04/06 at 18:00:44.516     
   ID    Z sym.   atoms
    1    6 C      1, 2, 4, 6, 8, 10
    2    1 H      3, 5, 7, 9, 11, 18-24
    3    8 O      12-17

           -------------------------------------------------
          |                Calculation Setup                |
           -------------------------------------------------

          program call               : /srv/scratch/z5358697/.xtb/bin/xtb gas.coord --gfn2 --sp --chrg 0 --norestart --parallel 1
          hostname                   : k155
          coordinate file            : gas.coord
          omp threads                :                     1


           -------------------------------------------------
          |                 G F N 2 - x T B                 |
           -------------------------------------------------

        Reference                      10.1021/acs.jctc.8b01176
      * Hamiltonian:
        H0-scaling (s, p, d)           1.850000    2.230000    2.230000
        zeta-weighting                 0.500000
      * Dispersion:
        s8                             2.700000
        a1                             0.520000
        a2                             5.000000
        s9                             5.000000
      * Repulsion:
        kExp                           1.500000    1.000000
        rExp                           1.000000
      * Coulomb:
        alpha                          2.000000
        third order                    shell-resolved
        anisotropic                    true
        a3                             3.000000
        a5                             4.000000
        cn-shift                       1.200000
        cn-exp                         4.000000
        max-rad                        5.000000


          ...................................................
          :                      SETUP                      :
          :.................................................:
          :  # basis functions                  60          :
          :  # atomic orbitals                  60          :
          :  # shells                           36          :
          :  # electrons                        72          :
          :  max. iterations                   250          :
          :  Hamiltonian                  GFN2-xTB          :
          :  restarted?                      false          :
          :  GBSA solvation                  false          :
          :  PC potential                    false          :
          :  electronic temp.          300.0000000     K    :
          :  accuracy                    1.0000000          :
          :  -> integral cutoff          0.2500000E+02      :
          :  -> integral neglect         0.1000000E-07      :
          :  -> SCF convergence          0.1000000E-05 Eh   :
          :  -> wf. convergence          0.1000000E-03 e    :
          :  Broyden damping             0.4000000          :
          :  net charge                          0          :
          :  unpaired electrons                  0          :
          ...................................................

 iter      E             dE          RMSdq      gap      omega  full diag
   1    -43.6207764 -0.436208E+02  0.471E+00   10.41       0.0  T
   2    -43.6532607 -0.324843E-01  0.258E+00   10.19       1.0  T
   3    -43.6544658 -0.120511E-02  0.691E-01   10.33       1.0  T
   4    -43.6553322 -0.866352E-03  0.143E-01   10.31       1.0  T
   5    -43.6553931 -0.608791E-04  0.538E-02   10.33       1.0  T
   6    -43.6554038 -0.107452E-04  0.192E-02   10.33       1.1  T
   7    -43.6554044 -0.613856E-06  0.599E-03   10.33       3.4  T
   8    -43.6554048 -0.318055E-06  0.170E-03   10.33      12.0  T
   9    -43.6554048 -0.285146E-08  0.670E-04   10.33      30.5  T
  10    -43.6554048 -0.245857E-08  0.234E-04   10.33      87.3  T

   *** convergence criteria satisfied after 10 iterations ***

         #    Occupation            Energy/Eh            Energy/eV
      -------------------------------------------------------------
         1        2.0000           -0.7226081             -19.6632
       ...           ...                  ...                  ...
        30        2.0000           -0.4584259             -12.4744
        31        2.0000           -0.4436373             -12.0720
        32        2.0000           -0.4392269             -11.9520
        33        2.0000           -0.4324073             -11.7664
        34        2.0000           -0.4218354             -11.4787
        35        2.0000           -0.4136746             -11.2567
        36        2.0000           -0.3996680             -10.8755 (HOMO)
        37                         -0.0201739              -0.5490 (LUMO)
        38                         -0.0027640              -0.0752
        39                          0.0049954               0.1359
        40                          0.0366803               0.9981
        41                          0.0477207               1.2985
       ...                                ...                  ...
        60                          0.3077765               8.3750
      -------------------------------------------------------------
                  HL-Gap            0.3794941 Eh           10.3266 eV
             Fermi-level           -0.2099210 Eh           -5.7122 eV

 SCC (total)                   0 d,  0 h,  0 min,  0.028 sec
 SCC setup                      ...        0 min,  0.000 sec (  0.668%)
 Dispersion                     ...        0 min,  0.000 sec (  0.505%)
 classical contributions        ...        0 min,  0.000 sec (  0.099%)
 integral evaluation            ...        0 min,  0.003 sec (  9.675%)
 iterations                     ...        0 min,  0.017 sec ( 60.277%)
 molecular gradient             ...        0 min,  0.008 sec ( 28.233%)
 printout                       ...        0 min,  0.000 sec (  0.494%)

         :::::::::::::::::::::::::::::::::::::::::::::::::::::
         ::                     SUMMARY                     ::
         :::::::::::::::::::::::::::::::::::::::::::::::::::::
         :: total energy             -43.352417014556 Eh    ::
         :: gradient norm              0.014269684229 Eh/a0 ::
         :: HOMO-LUMO gap             10.326560069555 eV    ::
         ::.................................................::
         :: SCC energy               -43.655217841324 Eh    ::
         :: -> isotropic ES            0.137574959520 Eh    ::
         :: -> anisotropic ES         -0.004398982469 Eh    ::
         :: -> anisotropic XC         -0.010251029642 Eh    ::
         :: -> dispersion             -0.019557056128 Eh    ::
         :: repulsion energy           0.302800826767 Eh    ::
         :: add. restraining           0.000000000000 Eh    ::
         :: total charge              -0.000000000000 e     ::
         :::::::::::::::::::::::::::::::::::::::::::::::::::::

           -------------------------------------------------
          |                Property Printout                |
           -------------------------------------------------

    * Orbital Energies and Occupations

         #    Occupation            Energy/Eh            Energy/eV
      -------------------------------------------------------------
         1        2.0000           -0.7226081             -19.6632
       ...           ...                  ...                  ...
        24        2.0000           -0.5158461             -14.0369
        25        2.0000           -0.5124250             -13.9438
        26        2.0000           -0.5050433             -13.7429
        27        2.0000           -0.4919873             -13.3877
        28        2.0000           -0.4771973             -12.9852
        29        2.0000           -0.4677967             -12.7294
        30        2.0000           -0.4584259             -12.4744
        31        2.0000           -0.4436373             -12.0720
        32        2.0000           -0.4392269             -11.9520
        33        2.0000           -0.4324073             -11.7664
        34        2.0000           -0.4218354             -11.4787
        35        2.0000           -0.4136746             -11.2567
        36        2.0000           -0.3996680             -10.8755 (HOMO)
        37                         -0.0201739              -0.5490 (LUMO)
        38                         -0.0027640              -0.0752
        39                          0.0049954               0.1359
        40                          0.0366803               0.9981
        41                          0.0477207               1.2985
        42                          0.0580832               1.5805
        43                          0.0742457               2.0203
        44                          0.0783576               2.1322
        45                          0.0977536               2.6600
        46                          0.1088865               2.9630
        47                          0.1181216               3.2143
       ...                                ...                  ...
        60                          0.3077765               8.3750
      -------------------------------------------------------------
                  HL-Gap            0.3794941 Eh           10.3266 eV
             Fermi-level           -0.2099210 Eh           -5.7122 eV

     #   Z          covCN         q      C6AA      α(0)
     1   6 C        3.674     0.056    19.856     6.386
     2   6 C        3.734     0.085    19.256     6.263
     3   1 H        0.923     0.047     2.362     2.403
     4   6 C        3.726     0.094    19.117     6.243
     5   1 H        0.923     0.057     2.233     2.337
     6   6 C        3.728     0.101    19.002     6.223
     7   1 H        0.923     0.063     2.163     2.300
     8   6 C        3.726     0.091    19.170     6.252
     9   1 H        0.923     0.038     2.480     2.463
    10   6 C        3.615     0.239    17.306     6.003
    11   1 H        0.922     0.023     2.684     2.562
    12   8 O        1.699    -0.347    19.838     6.013
    13   8 O        1.657    -0.438    21.604     6.275
    14   8 O        1.656    -0.442    21.678     6.285
    15   8 O        1.656    -0.441    21.659     6.283
    16   8 O        1.656    -0.443    21.700     6.288
    17   8 O        1.655    -0.432    21.479     6.256
    18   1 H        0.924     0.042     2.426     2.436
    19   1 H        0.924     0.076     2.024     2.225
    20   1 H        0.804     0.317     0.673     1.289
    21   1 H        0.804     0.312     0.686     1.301
    22   1 H        0.804     0.310     0.692     1.307
    23   1 H        0.804     0.301     0.719     1.332
    24   1 H        0.804     0.291     0.749     1.359

 Mol. C6AA /au·bohr⁶  :       4696.218347
 Mol. C8AA /au·bohr⁸  :      99835.639014
 Mol. α(0) /au        :         98.083347


Wiberg/Mayer (AO) data.
largest (>0.10) Wiberg bond orders for each atom

 ---------------------------------------------------------------------------
     #   Z sym  total        # sym  WBO       # sym  WBO       # sym  WBO
 ---------------------------------------------------------------------------
     1   6 C    3.954 --    17 O    1.009    18 H    0.969     2 C    0.966
                            19 H    0.965
     2   6 C    3.946 --     4 C    0.973     1 C    0.966    12 O    0.962
                             3 H    0.956
     3   1 H    0.998 --     2 C    0.956
     4   6 C    3.957 --    16 O    0.995     2 C    0.973     6 C    0.972
                             5 H    0.956
     5   1 H    0.997 --     4 C    0.956
     6   6 C    3.958 --    15 O    1.000     4 C    0.972     8 C    0.968
                             7 H    0.954
     7   1 H    0.996 --     6 C    0.954
     8   6 C    3.962 --    14 O    1.002     6 C    0.968    10 C    0.959
                             9 H    0.954
     9   1 H    0.999 --     8 C    0.954
    10   6 C    3.928 --    13 O    1.006    12 O    0.962     8 C    0.959
                            11 H    0.946
    11   1 H    0.999 --    10 C    0.946
    12   8 O    2.067 --     2 C    0.962    10 C    0.962
    13   8 O    1.977 --    10 C    1.006    20 H    0.880
    14   8 O    1.959 --     8 C    1.002    21 H    0.884
    15   8 O    1.963 --     6 C    1.000    22 H    0.888
    16   8 O    1.961 --     4 C    0.995    23 H    0.893
    17   8 O    1.969 --     1 C    1.009    24 H    0.901
    18   1 H    0.998 --     1 C    0.969
    19   1 H    0.994 --     1 C    0.965
    20   1 H    0.899 --    13 O    0.880
    21   1 H    0.903 --    14 O    0.884
    22   1 H    0.904 --    15 O    0.888
    23   1 H    0.909 --    16 O    0.893
    24   1 H    0.915 --    17 O    0.901
 ---------------------------------------------------------------------------

Topologies differ in total number of bonds
Writing topology from bond orders to xtbtopo.mol

molecular dipole:
                 x           y           z       tot (Debye)
 q only:       -0.205      -0.526       0.308
   full:       -0.276      -0.913       0.564       2.816
molecular quadrupole (traceless):
                xx          xy          yy          xz          yz          zz
 q only:        1.467       1.555       0.071      -6.512      -1.128      -1.538
  q+dip:       -0.887       3.638       1.410      -9.484      -0.829      -0.523
   full:        0.478       3.205       0.864      -9.634      -1.412      -1.341


           -------------------------------------------------
          | TOTAL ENERGY              -43.352417014556 Eh   |
          | GRADIENT NORM               0.014269684229 Eh/α |
          | HOMO-LUMO GAP              10.326560069555 eV   |
           -------------------------------------------------

------------------------------------------------------------------------
 * finished run on 2025/04/06 at 18:00:44.578     
------------------------------------------------------------------------
 total:
 * wall-time:     0 d,  0 h,  0 min,  0.061 sec
 *  cpu-time:     0 d,  0 h,  0 min,  0.028 sec
 * ratio c/w:     0.468 speedup
 SCF:
 * wall-time:     0 d,  0 h,  0 min,  0.028 sec
 *  cpu-time:     0 d,  0 h,  0 min,  0.019 sec
 * ratio c/w:     0.700 speedup

