
                                 *****************
                                 * O   R   C   A *
                                 *****************

                                            #,                                       
                                            ###                                      
                                            ####                                     
                                            #####                                    
                                            ######                                   
                                           ########,                                 
                                     ,,################,,,,,                         
                               ,,#################################,,                 
                          ,,##########################################,,             
                       ,#########################################, ''#####,          
                    ,#############################################,,   '####,        
                  ,##################################################,,,,####,       
                ,###########''''           ''''###############################       
              ,#####''   ,,,,##########,,,,          '''####'''          '####       
            ,##' ,,,,###########################,,,                        '##       
           ' ,,###''''                  '''############,,,                           
         ,,##''                                '''############,,,,        ,,,,,,###''
      ,#''                                            '''#######################'''  
     '                                                          ''''####''''         
             ,#######,   #######,   ,#######,      ##                                
            ,#'     '#,  ##    ##  ,#'     '#,    #''#        ,####,   ,####,        
            ##       ##  ##   ,#'  ##            #'  '#       #'       #'  '#        
            ##       ##  #######   ##           ,######,      #####,   #    #        
            '#,     ,#'  ##    ##  '#,     ,#' ,#      #,     #,   #   #,  ,#        
             '#######'   ##     ##  '#######'  #'      '#     '####' # '####'        



                #########################################################
                #                        -***-                          #
                #          Department of theory and spectroscopy        #
                #                                                       #
                #                      Frank Neese                      #
                #                                                       #
                #     Directorship, Architecture, Infrastructure        #
                #                    SHARK, DRIVERS                     #
                #        Core code/Algorithms in most modules           #
                #                                                       #
                #        Max Planck Institute fuer Kohlenforschung      #
                #                Kaiser Wilhelm Platz 1                 #
                #                 D-45470 Muelheim/Ruhr                 #
                #                      Germany                          #
                #                                                       #
                #                  All rights reserved                  #
                #                        -***-                          #
                #########################################################


                         Program Version 6.0.0  -   RELEASE  -


 With contributions from (in alphabetic order):
   Daniel Aravena         : Magnetic Suceptibility
   Michael Atanasov       : Ab Initio Ligand Field Theory (pilot matlab implementation)
   Alexander A. Auer      : GIAO ZORA, VPT2 properties, NMR spectrum
   Ute Becker             : All parallelization in ORCA, NUMFREQ, NUMCALC
   Giovanni Bistoni       : ED, misc. LED, open-shell LED, HFLD
   Martin Brehm           : Molecular dynamics
   Dmytro Bykov           : pre 5.0 version of the SCF Hessian
   Marcos Casanova-Páez   : Triplet and SCS-CIS(D). UHF-(DLPNO)-IP/EA/STEOM-CCSD. UHF-CVS-IP/STEOM-CCSD
   Vijay G. Chilkuri      : MRCI spin determinant printing, contributions to CSF-ICE
   Pauline Colinet        : FMM embedding
   Dipayan Datta          : RHF DLPNO-CCSD density
   Achintya Kumar Dutta   : EOM-CC, STEOM-CC
   Nicolas Foglia         : Exact transition moments, OPA infrastructure, MCD improvements
   Dmitry Ganyushin       : Spin-Orbit,Spin-Spin,Magnetic field MRCI
   Miquel Garcia          : C-PCM and meta-GGA Hessian, CCSD/C-PCM, Gaussian charge scheme
   Tiago L. C. Gouveia    : GS-ROHF, GS-ROCIS
   Yang Guo               : DLPNO-NEVPT2, F12-NEVPT2, CIM, IAO-localization
   Andreas Hansen         : Spin unrestricted coupled pair/coupled cluster methods
   Ingolf Harden          : AUTO-CI MPn and infrastructure 
   Benjamin Helmich-Paris : MC-RPA, TRAH-(SCF,CASSCF), AVAS, COSX integrals, SCF dyn. polar.
   Lee Huntington         : MR-EOM, pCC
   Robert Izsak           : Overlap fitted RIJCOSX, COSX-SCS-MP3, EOM
   Riya Kayal             : Wick's Theorem for AUTO-CI, AUTO-CI UHF-CCSDT
   Emily Kempfer          : AUTO-CI, RHF CISDT and CCSDT
   Christian Kollmar      : KDIIS, OOCD, Brueckner-CCSD(T), CCSD density, CASPT2, CASPT2-K, improved NEVPT2
   Axel Koslowski         : Symmetry handling
   Simone Kossmann        : Meta GGA functionals, TD-DFT gradient, OOMP2, (MP2 Hessian; deprecated post 5.0)
   Lucas Lang             : DCDCAS
   Marvin Lechner         : AUTO-CI (C++ implementation), FIC-MRCC
   Spencer Leger          : CASSCF response
   Dagmar Lenk            : GEPOL surface, SMD, ORCA-2-JSON
   Dimitrios Liakos       : Extrapolation schemes; Compound Job, initial MDCI parallelization
   Dimitrios Manganas     : Further ROCIS development; embedding schemes. LFT, Crystal Embedding
   Dimitrios Pantazis     : SARC Basis sets
   Anastasios Papadopoulos: AUTO-CI, single reference methods and gradients
   Taras Petrenko         : pre 6.0 DFT Hessian and TD-DFT gradient, (ASA, deprecated), ECA, 1-Electron XAS/XES, NRVS
   Peter Pinski           : DLPNO-MP2, DLPNO-MP2 Gradient
   Christoph Reimann      : Effective Core Potentials
   Marius Retegan         : Local ZFS, SOC
   Christoph Riplinger    : Optimizer, TS searches, QM/MM, DLPNO-CCSD(T), (RO)-DLPNO pert. Triples
   Michael Roemelt        : Original ROCIS implementation
   Masaaki Saitow         : Open-shell DLPNO-CCSD energy and density
   Barbara Sandhoefer     : DKH picture change effects
   Kantharuban Sivalingam : CASSCF convergence/infrastructure, NEVPT2 and variants, FIC-MRCI
   Bernardo de Souza      : ESD, SOC TD-DFT
   Georgi Stoychev        : AutoAux, RI-MP2 NMR, DLPNO-MP2 response, X2C
   Van Anh Tran           : RI-MP2 g-tensors
   Willem Van den Heuvel  : Paramagnetic NMR
   Zikuan Wang            : NOTCH, Electric field optimization 
   Frank Wennmohs         : Technical directorship and infrastructure
   Hang Xu                : AUTO-CI-Response properties 


 We gratefully acknowledge several colleagues who have allowed us to
 interface, adapt or use parts of their codes:
   Stefan Grimme, W. Hujo, H. Kruse, P. Pracht,  : VdW corrections, initial TS optimization,
                  C. Bannwarth, S. Ehlert,         DFT functionals, gCP, sTDA/sTD-DF
                  L. Wittmann, M. Mueller
   Ed Valeev, F. Pavosevic, A. Kumar             : LibInt (2-el integral package), F12 methods
   Garnet Chan, S. Sharma, J. Yang, R. Olivares  : DMRG
   Ulf Ekstrom                                   : XCFun DFT Library
   Mihaly Kallay                                 : mrcc  (arbitrary order and MRCC methods)
   Frank Weinhold                                : gennbo (NPA and NBO analysis)
   Simon Mueller                                 : openCOSMO-RS
   Christopher J. Cramer and Donald G. Truhlar   : smd solvation model
   Lars Goerigk                                  : TD-DFT with DH, B97 family of functionals
   V. Asgeirsson, H. Jonsson                     : NEB implementation
   FAccTs GmbH                                   : IRC, NEB, NEB-TS, DLPNO-Multilevel, CI-OPT
                                                   MM, QMMM, 2- and 3-layer-ONIOM, Crystal-QMMM,
                                                   LR-CPCM, SF, NACMEs, symmetry and pop. for TD-DFT,
                                                   nearIR, NL-DFT gradient (VV10), updates on ESD,
                                                   ML-optimized integration grids, MBIS, APM,
                                                   GOAT, DOCKER, SOLVATOR, interface openCOSMO-RS
   S Lehtola, MJT Oliveira, MAL Marques          : LibXC Library
   Liviu Ungur et al                             : ANISO software


 Your calculation uses the libint2 library for the computation of 2-el integrals
 For citations please refer to: http://libint.valeyev.net

 Your ORCA version has been built with support for libXC version: 6.2.2
 For citations please refer to: https://libxc.gitlab.io

 This ORCA versions uses:
   CBLAS   interface :  Fast vector & matrix operations
   LAPACKE interface :  Fast linear algebra routines
   SCALAPACK package :  Parallel linear algebra routines
   Shared memory     :  Shared parallel matrices
   BLAS/LAPACK       :  OpenBLAS 0.3.27  USE64BITINT DYNAMIC_ARCH NO_AFFINITY SkylakeX SINGLE_THREADED
        Core in use  :  SkylakeX
   Copyright (c) 2011-2014, The OpenBLAS Project


Your calculation utilizes the geometrical counterpoise correction gCP
Please cite in your paper:
H.Kruse, S. Grimme J.Chem.Phys., 136, (2012), 154101 
   

Your calculation utilizes the atom-pairwise dispersion correction
based on EEQ partial charges (D4)


================================================================================

----- Orbital basis set information -----
Your calculation utilizes the basis: def2-mTZVPP
   Stefan Grimme, Andreas Hansen, Sebastian Ehlert, and Jan-Michael Mewes 
   J. Chem. Phys. 154, 064103 (2021). DOI: 10.1063/5.0040021

----- AuxJ basis set information -----
Your calculation utilizes the auxiliary basis: def2/J
   F. Weigend, Phys. Chem. Chem. Phys. 8, 1057 (2006).

================================================================================
                                        WARNINGS
                       Please study these warnings very carefully!
================================================================================

Using LibXC functional ID 497 : Re-regularized SCAN exchange by Furness et al
[ 1]  J. W. Furness, A. D. Kaplan, J. Ning, J. P. Perdew, and J. Sun.,  J. Phys. Chem. Lett. 11, 8208-8215 (2020)
[ 2]  J. W. Furness, A. D. Kaplan, J. Ning, J. P. Perdew, and J. Sun.,  J. Phys. Chem. Lett. 11, 9248-9248 (2020)
Using LibXC functional ID 498 : Re-regularized SCAN correlation by Furness et al
[ 1]  J. W. Furness, A. D. Kaplan, J. Ning, J. P. Perdew, and J. Sun.,  J. Phys. Chem. Lett. 11, 8208-8215 (2020)
[ 2]  J. W. Furness, A. D. Kaplan, J. Ning, J. P. Perdew, and J. Sun.,  J. Phys. Chem. Lett. 11, 9248-9248 (2020)
Using LibXC functional ID 497 : Re-regularized SCAN exchange by Furness et al
[ 1]  J. W. Furness, A. D. Kaplan, J. Ning, J. P. Perdew, and J. Sun.,  J. Phys. Chem. Lett. 11, 8208-8215 (2020)
[ 2]  J. W. Furness, A. D. Kaplan, J. Ning, J. P. Perdew, and J. Sun.,  J. Phys. Chem. Lett. 11, 9248-9248 (2020)
Using LibXC functional ID 498 : Re-regularized SCAN correlation by Furness et al
[ 1]  J. W. Furness, A. D. Kaplan, J. Ning, J. P. Perdew, and J. Sun.,  J. Phys. Chem. Lett. 11, 8208-8215 (2020)
[ 2]  J. W. Furness, A. D. Kaplan, J. Ning, J. P. Perdew, and J. Sun.,  J. Phys. Chem. Lett. 11, 9248-9248 (2020)

================================================================================
                                       INPUT FILE
================================================================================
NAME = sp_gas.inp
|  1> ! r2scan-3c def2/J RI DEFGRID2 scfconv6 printgap
|  2> %output
|  3>     printlevel normal
|  4> end
|  5> * xyz 0 1
|  6> C -2.1693264728 0.0067950078 -3.41588e-05
|  7> C -0.8774223152 0.8175427558 7.31168e-05
|  8> C 0.4266799116 -0.0017235035 1.03416e-05
|  9> C 1.6012987913 0.9836481039 1.65188e-05
| 10> C 0.5206052785 -0.8801889157 -1.2499067629
| 11> C 0.5205937001 -0.8802847619 1.2498529214
| 12> H -2.2390476734 -0.6218019528 0.8833859084
| 13> H -3.0222023193 0.6821386628 -0.0005262117
| 14> H -2.2385289568 -0.6224671508 -0.883021197
| 15> H -0.8738798673 1.4652850465 0.8805035229
| 16> H -0.8738605398 1.4653628999 -0.8802944727
| 17> H 1.5677752905 1.6196927399 -0.8818127562
| 18> H 2.5483489958 0.4488237065 -0.0001477727
| 19> H 1.5679830634 1.6195032973 0.8819784192
| 20> H 0.4005933468 -0.2799114962 -2.1491123498
| 21> H 1.4915481189 -1.368839745 -1.2915357163
| 22> H -0.244046105 -1.6521575007 -1.2435787719
| 23> H 1.4912812967 -1.3694674261 1.2911188733
| 24> H -0.2444897036 -1.6518367334 1.2437716491
| 25> H 0.4012431397 -0.2799815676 2.1491281468
| 26> *
| 27> 
| 28>                          ****END OF INPUT****
================================================================================

                       ****************************
                       * Single Point Calculation *
                       ****************************

---------------------------------
CARTESIAN COORDINATES (ANGSTROEM)
---------------------------------
  C     -2.169326    0.006795   -0.000034
  C     -0.877422    0.817543    0.000073
  C      0.426680   -0.001724    0.000010
  C      1.601299    0.983648    0.000017
  C      0.520605   -0.880189   -1.249907
  C      0.520594   -0.880285    1.249853
  H     -2.239048   -0.621802    0.883386
  H     -3.022202    0.682139   -0.000526
  H     -2.238529   -0.622467   -0.883021
  H     -0.873880    1.465285    0.880504
  H     -0.873861    1.465363   -0.880294
  H      1.567775    1.619693   -0.881813
  H      2.548349    0.448824   -0.000148
  H      1.567983    1.619503    0.881978
  H      0.400593   -0.279911   -2.149112
  H      1.491548   -1.368840   -1.291536
  H     -0.244046   -1.652158   -1.243579
  H      1.491281   -1.369467    1.291119
  H     -0.244490   -1.651837    1.243772
  H      0.401243   -0.279982    2.149128

----------------------------
CARTESIAN COORDINATES (A.U.)
----------------------------
  NO LB      ZA    FRAG     MASS         X           Y           Z
   0 C     6.0000    0    12.011   -4.099433    0.012841   -0.000065
   1 C     6.0000    0    12.011   -1.658088    1.544932    0.000138
   2 C     6.0000    0    12.011    0.806308   -0.003257    0.000020
   3 C     6.0000    0    12.011    3.026016    1.858826    0.000031
   4 C     6.0000    0    12.011    0.983801   -1.663316   -2.361981
   5 C     6.0000    0    12.011    0.983780   -1.663497    2.361880
   6 H     1.0000    0     1.008   -4.231187   -1.175035    1.669357
   7 H     1.0000    0     1.008   -5.711135    1.289055   -0.000994
   8 H     1.0000    0     1.008   -4.230207   -1.176292   -1.668668
   9 H     1.0000    0     1.008   -1.651394    2.768987    1.663911
  10 H     1.0000    0     1.008   -1.651357    2.769135   -1.663515
  11 H     1.0000    0     1.008    2.962666    3.060776   -1.666385
  12 H     1.0000    0     1.008    4.815682    0.848154   -0.000279
  13 H     1.0000    0     1.008    2.963059    3.060418    1.666698
  14 H     1.0000    0     1.008    0.757012   -0.528956   -4.061234
  15 H     1.0000    0     1.008    2.818617   -2.586732   -2.440649
  16 H     1.0000    0     1.008   -0.461180   -3.122125   -2.350023
  17 H     1.0000    0     1.008    2.818113   -2.587918    2.439861
  18 H     1.0000    0     1.008   -0.462019   -3.121519    2.350388
  19 H     1.0000    0     1.008    0.758240   -0.529088    4.061264

--------------------------------
INTERNAL COORDINATES (ANGSTROEM)
--------------------------------
 C      0   0   0     0.000000000000     0.00000000     0.00000000
 C      1   0   0     1.525230564478     0.00000000     0.00000000
 C      2   1   0     1.540090849759   115.75129074     0.00000000
 C      3   2   1     1.533194937787   107.86921626   179.99539476
 C      3   2   1     1.530626088599   110.93445570    60.95705499
 C      3   2   1     1.530619534278   110.93211641   299.03538576
 H      1   2   3     1.086474205778   111.21317609    60.72392319
 H      1   2   3     1.087881659009   109.51555943   180.03060317
 H      1   2   3     1.086474094338   111.21535430   299.34006723
 H      2   1   3     1.093041776001   108.53026493   238.15344541
 H      2   1   3     1.093037381789   108.52668840   121.84050254
 H      4   3   2     1.087795695127   110.62037158   299.98332205
 H      4   3   2     1.087631027918   110.55260476   180.00680144
 H      4   3   2     1.087786081202   110.62306835    60.02884899
 H      5   3   2     1.087798938970   110.58221756    54.11309232
 H      5   3   2     1.087769553748   110.11133100   173.81780908
 H      5   3   2     1.086585145299   111.08845665   293.43054122
 H      6   3   2     1.087766963983   110.11227978   186.14575803
 H      6   3   2     1.086591938685   111.08786230    66.53256344
 H      6   3   2     1.087797964869   110.58245197   305.85021754

---------------------------
INTERNAL COORDINATES (A.U.)
---------------------------
 C      0   0   0     0.000000000000     0.00000000     0.00000000
 C      1   0   0     2.882268057950     0.00000000     0.00000000
 C      2   1   0     2.910349927403   115.75129074     0.00000000
 C      3   2   1     2.897318542332   107.86921626   179.99539476
 C      3   2   1     2.892464120888   110.93445570    60.95705499
 C      3   2   1     2.892451735015   110.93211641   299.03538576
 H      1   2   3     2.053138700489   111.21317609    60.72392319
 H      1   2   3     2.055798401643   109.51555943   180.03060317
 H      1   2   3     2.053138489898   111.21535430   299.34006723
 H      2   1   3     2.065549609577   108.53026493   238.15344541
 H      2   1   3     2.065541305719   108.52668840   121.84050254
 H      4   3   2     2.055635953449   110.62037158   299.98332205
 H      4   3   2     2.055324777520   110.55260476   180.00680144
 H      4   3   2     2.055617785763   110.62306835    60.02884899
 H      5   3   2     2.055642083423   110.58221756    54.11309232
 H      5   3   2     2.055586553401   110.11133100   173.81780908
 H      5   3   2     2.053348345803   111.08845665   293.43054122
 H      6   3   2     2.055581659455   110.11227978   186.14575803
 H      6   3   2     2.053361183441   111.08786230    66.53256344
 H      6   3   2     2.055640242639   110.58245197   305.85021754

---------------------
BASIS SET INFORMATION
---------------------
There are 2 groups of distinct atoms

 Group   1 Type C   : 11s6p1d contracted to 5s3p1d pattern {62111/411/1}
 Group   2 Type H   : 4s1p contracted to 2s1p pattern {31/1}

Atom   0C    basis set group =>   1
Atom   1C    basis set group =>   1
Atom   2C    basis set group =>   1
Atom   3C    basis set group =>   1
Atom   4C    basis set group =>   1
Atom   5C    basis set group =>   1
Atom   6H    basis set group =>   2
Atom   7H    basis set group =>   2
Atom   8H    basis set group =>   2
Atom   9H    basis set group =>   2
Atom  10H    basis set group =>   2
Atom  11H    basis set group =>   2
Atom  12H    basis set group =>   2
Atom  13H    basis set group =>   2
Atom  14H    basis set group =>   2
Atom  15H    basis set group =>   2
Atom  16H    basis set group =>   2
Atom  17H    basis set group =>   2
Atom  18H    basis set group =>   2
Atom  19H    basis set group =>   2
---------------------------------
AUXILIARY/J BASIS SET INFORMATION
---------------------------------
There are 2 groups of distinct atoms

 Group   1 Type C   : 12s5p4d2f1g contracted to 6s4p3d1f1g pattern {711111/2111/211/2/1}
 Group   2 Type H   : 5s2p1d contracted to 3s1p1d pattern {311/2/1}

Atom   0C    basis set group =>   1
Atom   1C    basis set group =>   1
Atom   2C    basis set group =>   1
Atom   3C    basis set group =>   1
Atom   4C    basis set group =>   1
Atom   5C    basis set group =>   1
Atom   6H    basis set group =>   2
Atom   7H    basis set group =>   2
Atom   8H    basis set group =>   2
Atom   9H    basis set group =>   2
Atom  10H    basis set group =>   2
Atom  11H    basis set group =>   2
Atom  12H    basis set group =>   2
Atom  13H    basis set group =>   2
Atom  14H    basis set group =>   2
Atom  15H    basis set group =>   2
Atom  16H    basis set group =>   2
Atom  17H    basis set group =>   2
Atom  18H    basis set group =>   2
Atom  19H    basis set group =>   2

Checking for AutoStart:
The File: sp_gas.gbw exists
Trying to determine its content:
     ... Fine, the file contains calculation information
     ... Fine, the calculation information was read
     ... Fine, the file contains a basis set
     ... Fine, the basis set was read
     ... Fine, the file contains a geometry
     ... Fine, the geometry was read
     ... Fine, the file contains a set of orbitals
     ... Fine, the orbitals can be read
     => possible old guess file was deleted
     => GBW file was renamed to GES file
     => GES file is set as startup file
     => Guess is set to MORead
     ... now leaving AutoStart

------------------------------------------------------------------------------
                             ORCA STARTUP CALCULATIONS
                           -- RI-GTO INTEGRALS CHOSEN --
------------------------------------------------------------------------------
------------------------------------------------------------------------------
                   ___                                                        
                  /   \      - P O W E R E D   B Y -                         
                 /     \                                                     
                 |  |  |   _    _      __       _____    __    __             
                 |  |  |  | |  | |    /  \     |  _  \  |  |  /  |          
                  \  \/   | |  | |   /    \    | | | |  |  | /  /          
                 / \  \   | |__| |  /  /\  \   | |_| |  |  |/  /          
                |  |  |   |  __  | /  /__\  \  |    /   |      \           
                |  |  |   | |  | | |   __   |  |    \   |  |\   \          
                \     /   | |  | | |  |  |  |  | |\  \  |  | \   \       
                 \___/    |_|  |_| |__|  |__|  |_| \__\ |__|  \__/        
                                                                              
                      - O R C A' S   B I G   F R I E N D -                    
                                      &                                       
                       - I N T E G R A L  F E E D E R -                       
                                                                              
 v1 FN, 2020, v2 2021, v3 2022-2024                                           
------------------------------------------------------------------------------


----------------------
SHARK INTEGRAL PACKAGE
----------------------

Number of atoms                             ...     20
Number of basis functions                   ...    184
Number of shells                            ...     96
Maximum angular momentum                    ...      2
Integral batch strategy                     ... SHARK/LIBINT Hybrid
RI-J (if used) integral strategy            ... SPLIT-RIJ (Revised 2003 algorithm where possible)
Printlevel                                  ...      1
Contraction scheme used                     ... SEGMENTED contraction
Prescreening option                         ... SCHWARTZ
   Thresh                                   ... 1.000e-10
   Tcut                                     ... 1.000e-11
   Tpresel                                  ... 1.000e-11 
Coulomb Range Separation                    ... NOT USED
Exchange Range Separation                   ... NOT USED
Multipole approximations                    ... NOT USED
Finite Nucleus Model                        ... NOT USED
CABS basis                                  ... NOT available
Auxiliary Coulomb fitting basis             ... AVAILABLE
   # of basis functions in Aux-J            ...    448
   # of shells in Aux-J                     ...    160
   Maximum angular momentum in Aux-J        ...      4
Auxiliary J/K fitting basis                 ... NOT available
Auxiliary Correlation fitting basis         ... NOT available
Auxiliary 'external' fitting basis          ... NOT available

Checking pre-screening integrals            ... done (  0.0 sec) Dimension = 96
Check shell pair data                       ... done (  0.0 sec)
Shell pair information
Shell pair cut-off parameter TPreSel        ...   1.0e-11
Total number of shell pairs                 ...      4656
Shell pairs after pre-screening             ...      4437
Total number of primitive shell pairs       ...     16105
Primitive shell pairs kept                  ...     11380
          la=0 lb=0:   1617 shell pairs
          la=1 lb=0:   1764 shell pairs
          la=1 lb=1:    502 shell pairs
          la=2 lb=0:    343 shell pairs
          la=2 lb=1:    190 shell pairs
          la=2 lb=2:     21 shell pairs

Calculating one electron integrals          ... done (  0.0 sec)
Calculating RI/J V-Matrix + Cholesky decomp.... done (  0.1 sec)
Calculating Nuclear repulsion               ... done (  0.0 sec) ENN=    267.212047740136 Eh

Diagonalization of the overlap matrix:
Smallest eigenvalue                        ... 2.421e-04
Time for diagonalization                   ...    0.003 sec
Threshold for overlap eigenvalues          ... 1.000e-07
Number of eigenvalues below threshold      ... 0
Time for construction of square roots      ...    0.015 sec
Total time needed                          ...    0.025 sec

-------------------
DFT GRID GENERATION
-------------------

General Integration Accuracy     IntAcc      ... 4.388
Radial Grid Type                 RadialGrid  ... OptM3 with GC (2021)
Angular Grid (max. ang.)         AngularGrid ... 4 (Lebedev-302)
Angular grid pruning method      GridPruning ... 4 (adaptive)
Weight generation scheme         WeightScheme... mBecke (2022)
Basis function cutoff            BFCut       ... 1.0000e-10
Integration weight cutoff        WCut        ... 1.0000e-14
Partially contracted basis set               ... off
Rotationally invariant grid construction     ... off
Angular grids for H and He will be reduced by one unit

Total number of grid points                  ...    80584
Total number of batches                      ...     1269
Average number of points per batch           ...       63
Average number of grid points per atom       ...     4029
Initializing property integral containers    ... done (  0.0 sec)

SHARK setup successfully completed in   1.0 seconds

Maximum memory used throughout the entire STARTUP-calculation: 34.0 MB
-------------------------------------------------------------------------------
                                 ORCA GUESS
                   Start orbitals & Density for SCF / CASSCF
-------------------------------------------------------------------------------

------------
SCF SETTINGS
------------
Hamiltonian:
 Density Functional     Method          .... DFT(GTOs)
  Functional kind                       .... Exchange
  Functional name                       .... Re-regularized SCAN exchange by Furness et al
  Functional family                     .... MGGA
  Functional refs                              
    [ 0] J. W. Furness, A. D. Kaplan, J. Ning, J. P. Perdew, and J. Sun.,  J. Phys. Chem. Lett. 11, 8208-8215 (2020), doi: 10.1021/acs.jpclett.0c02405
    [ 1] J. W. Furness, A. D. Kaplan, J. Ning, J. P. Perdew, and J. Sun.,  J. Phys. Chem. Lett. 11, 9248-9248 (2020), doi: 10.1021/acs.jpclett.0c03077
  Functional external parameters        .... 6
    Parameter  0 _c1        =  6.670000e-01 : c1 parameter        
    Parameter  1 _c2        =  8.000000e-01 : c2 parameter        
    Parameter  2 _d         =  1.240000e+00 : d parameter         
    Parameter  3 _k1        =  6.500000e-02 : k1 parameter        
    Parameter  4 _eta       =  1.000000e-03 : eta parameter       
    Parameter  5 _dp2       =  3.610000e-01 : dp2 parameter       
  Functional kind                       .... Correlation
  Functional name                       .... Re-regularized SCAN correlation by Furness et al
  Functional family                     .... MGGA
  Functional refs                              
    [ 0] J. W. Furness, A. D. Kaplan, J. Ning, J. P. Perdew, and J. Sun.,  J. Phys. Chem. Lett. 11, 8208-8215 (2020), doi: 10.1021/acs.jpclett.0c02405
    [ 1] J. W. Furness, A. D. Kaplan, J. Ning, J. P. Perdew, and J. Sun.,  J. Phys. Chem. Lett. 11, 9248-9248 (2020), doi: 10.1021/acs.jpclett.0c03077
  Functional external parameters        .... 1
    Parameter  0 _eta       =  1.000000e-03 : Regularization parameter
 Gradients option       PostSCFGGA      .... off
 RI-approximation to the Coulomb term is turned on
   Number of AuxJ basis functions       .... 448


General Settings:
 Integral files         IntName         .... sp_gas
 Hartree-Fock type      HFTyp           .... RHF
 Total Charge           Charge          ....    0
 Multiplicity           Mult            ....    1
 Number of Electrons    NEL             ....   50
 Basis Dimension        Dim             ....  184
 Nuclear Repulsion      ENuc            ....    267.2120477401 Eh

Convergence Acceleration:
 AO-DIIS                CNVDIIS         .... on
   Start iteration      DIISMaxIt       ....    12
   Startup error        DIISStart       ....  0.200000
   # of expansion vecs  DIISMaxEq       ....     5
   Bias factor          DIISBfac        ....   1.050
   Max. coefficient     DIISMaxC        ....  10.000
 MO-DIIS                CNVKDIIS        .... off
 Trust-Rad. Augm. Hess. CNVTRAH         .... auto
   Auto Start mean grad. ratio tolernc. ....  1.125000
   Auto Start start iteration           ....     1
   Auto Start num. interpolation iter.  ....    10
   Max. Number of Micro iterations      ....    24
   Max. Number of Macro iterations      .... Maxiter - #DIIS iter
   Number of Davidson start vectors     ....     2
   Converg. threshold    (grad. norm)   ....   3.330e-04
   Grad. Scal. Fac. for Micro threshold ....   0.100
   Minimum threshold for Micro iter.    ....   1.000e-02
   NR start threshold (gradient norm)   ....   1.000e-04
   Initial trust radius                 ....   0.400
   Minimum AH scaling param. (alpha)    ....   1.000
   Maximum AH scaling param. (alpha)    .... 1000.000
   Quad. conv. algorithm                .... NR
   White noise on init. David. guess    .... on
   Maximum white noise                  ....   0.010
   Pseudo random numbers                .... off
   Inactive MOs                         .... canonical
   Orbital update algorithm             .... Taylor
   Preconditioner                       .... Diag
   Full preconditioner red. dimension   ....   250
   COSX micro iterations for RIJONX calc.... off
 SOSCF                  CNVSOSCF        .... on
   Start iteration      SOSCFMaxIt      ....   150
   Startup grad/error   SOSCFStart      ....  0.003300
   Hessian update       SOSCFHessUp     .... L-BFGS
 Level Shifting         CNVShift        .... on
   Level shift para.    LevelShift      ....    0.2500
   Turn off err/grad.   ShiftErr        ....    0.0010
 Zerner damping         CNVZerner       .... off
 Static damping         CNVDamp         .... on
   Fraction old density DampFac         ....    0.7000
   Max. Damping (<1)    DampMax         ....    0.9800
   Min. Damping (>=0)   DampMin         ....    0.0000
   Turn off err/grad.   DampErr         ....    0.1000

SCF Procedure:
 Maximum # iterations   MaxIter         ....   125
 SCF integral mode      SCFMode         .... Direct
   Integral package                     .... SHARK and LIBINT hybrid scheme
 Reset frequency        DirectResetFreq ....    20
 Integral Threshold     Thresh          ....  1.000e-10 Eh
 Primitive CutOff       TCut            ....  1.000e-11 Eh

Convergence Tolerance:
 Convergence Check Mode ConvCheckMode   .... Total+1el-Energy
 Convergence forced     ConvForced      .... 0
 Energy Change          TolE            ....  1.000e-06 Eh
 1-El. energy change                    ....  1.000e-03 Eh
 Orbital Gradient       TolG            ....  3.330e-04
 Orbital Rotation angle TolX            ....  3.330e-04
 DIIS Error             TolErr          ....  1.000e-06

---------------------
INITIAL GUESS: MOREAD
---------------------
Guess MOs are being read from file: sp_gas.ges
Input Geometry matches current geometry (good)
Atom 0: N(Shells)= 9 and 6 - projection required
Input basis set needs projection
NBasis(read)= 112
NBasis(calc)= 184
Basis set overlap was calculated
Using GuessMode=FMatrix for the initial guess
C*T matrix was formed
Effective Fockian was calculated
Effective Fockian was diagonalized
Initial density was built
                      ------------------
                      INITIAL GUESS DONE (   0.0 sec)
                      ------------------
             **** ENERGY FILE WAS UPDATED (sp_gas.en.tmp) ****
Finished Guess after   0.2 sec
Maximum memory used throughout the entire GUESS-calculation: 12.9 MB

-------------------------------------------------------------------------------------------
                                      ORCA LEAN-SCF
                              memory conserving SCF solver
-------------------------------------------------------------------------------------------

----------------------------------------D-I-I-S--------------------------------------------
Iteration    Energy (Eh)           Delta-E    RMSDP     MaxDP     DIISErr   Damp  Time(sec)
-------------------------------------------------------------------------------------------
               ***  Starting incremental Fock matrix formation  ***
    1    -236.8661180728690852     0.00e+00  3.46e-03  9.18e-02  2.86e-01  0.700   2.1
    2    -236.9045114317061120    -3.84e-02  2.85e-03  7.55e-02  2.01e-01  0.700   1.9
                               ***Turning on AO-DIIS***
    3    -236.9317144607947512    -2.72e-02  2.14e-03  5.55e-02  1.41e-01  0.700   1.9
    4    -236.9508224679204886    -1.91e-02  1.54e-03  3.95e-02  9.86e-02  0.700   1.8
    5    -236.9642301999292044    -1.34e-02  3.64e-03  9.28e-02  6.90e-02  0.000   1.8
                              *** Initializing SOSCF ***
---------------------------------------S-O-S-C-F--------------------------------------
Iteration    Energy (Eh)           Delta-E    RMSDP     MaxDP     MaxGrad    Time(sec)
--------------------------------------------------------------------------------------
    6    -236.9956314875400949    -3.14e-02  5.46e-05  1.44e-03  1.96e-04     1.9
               *** Restarting incremental Fock matrix formation ***
    7    -236.9956322262354433    -7.39e-07  2.30e-05  4.79e-04  4.80e-05     2.1
                  *** Gradient check signals convergence ***

               *****************************************************
               *                     SUCCESS                       *
               *           SCF CONVERGED AFTER   7 CYCLES          *
               *****************************************************

             **** ENERGY FILE WAS UPDATED (sp_gas.en.tmp) ****

----------------
TOTAL SCF ENERGY
----------------

Total Energy       :       -236.99563222623544 Eh           -6448.97901 eV

Components:
Nuclear Repulsion  :        267.21204774013643 Eh            7271.20948 eV
Electronic Energy  :       -504.20767996637187 Eh          -13720.18849 eV
One Electron Energy:       -846.70772726486314 Eh          -23040.08859 eV
Two Electron Energy:        342.50004729849127 Eh            9319.90010 eV

Virial components:
Potential Energy   :       -472.85542403992167 Eh          -12867.05024 eV
Kinetic Energy     :        235.85979181368623 Eh            6418.07122 eV
Virial Ratio       :          2.00481574414959

DFT components:
N(Alpha)           :       25.000073487095 electrons
N(Beta)            :       25.000073487095 electrons
N(Total)           :       50.000146974191 electrons
E(X)               :      -36.216036810067 Eh       
E(C)               :       -1.531774097039 Eh       
E(XC)              :      -37.747810907106 Eh       

---------------
SCF CONVERGENCE
---------------

  Last Energy change         ...    7.3870e-07  Tolerance :   1.0000e-06
  Last MAX-Density change    ...    4.7911e-04  Tolerance :   1.0000e-05
  Last RMS-Density change    ...    2.3049e-05  Tolerance :   1.0000e-06
  Last DIIS Error            ...    1.9626e-04  Tolerance :   1.0000e-06
  Last Orbital Gradient      ...    4.7983e-05  Tolerance :   3.3300e-04
  Last Orbital Rotation      ...    8.5870e-05  Tolerance :   3.3300e-04


----------------
ORBITAL ENERGIES
----------------

  NO   OCC          E(Eh)            E(eV) 
   0   2.0000     -10.038068      -273.1497 
   1   2.0000     -10.020224      -272.6642 
   2   2.0000     -10.013417      -272.4789 
   3   2.0000     -10.011503      -272.4269 
   4   2.0000     -10.011500      -272.4268 
   5   2.0000     -10.011073      -272.4151 
   6   2.0000      -0.790588       -21.5130 
   7   2.0000      -0.702923       -19.1275 
   8   2.0000      -0.649261       -17.6673 
   9   2.0000      -0.648873       -17.6567 
  10   2.0000      -0.587480       -15.9862 
  11   2.0000      -0.492216       -13.3939 
  12   2.0000      -0.427201       -11.6247 
  13   2.0000      -0.425902       -11.5894 
  14   2.0000      -0.405138       -11.0244 
  15   2.0000      -0.391332       -10.6487 
  16   2.0000      -0.366957        -9.9854 
  17   2.0000      -0.349244        -9.5034 
  18   2.0000      -0.344665        -9.3788 
  19   2.0000      -0.329955        -8.9785 
  20   2.0000      -0.324200        -8.8219 
  21   2.0000      -0.310807        -8.4575 
  22   2.0000      -0.284298        -7.7361 
  23   2.0000      -0.281938        -7.6719 
  24   2.0000      -0.276988        -7.5372 
  25   0.0000       0.077699         2.1143 
  26   0.0000       0.110608         3.0098 
  27   0.0000       0.123259         3.3541 
  28   0.0000       0.132814         3.6141 
  29   0.0000       0.138344         3.7645 
  30   0.0000       0.138789         3.7766 
  31   0.0000       0.140413         3.8208 
  32   0.0000       0.144554         3.9335 
  33   0.0000       0.150303         4.0900 
  34   0.0000       0.168088         4.5739 
  35   0.0000       0.179842         4.8937 
*Only the first 10 virtual orbitals were printed.

                    ********************************
                    * MULLIKEN POPULATION ANALYSIS *
                    ********************************

-----------------------
MULLIKEN ATOMIC CHARGES
-----------------------
   0 C :   -0.512914
   1 C :   -0.233379
   2 C :    0.128366
   3 C :   -0.482744
   4 C :   -0.511818
   5 C :   -0.511760
   6 H :    0.153299
   7 H :    0.146927
   8 H :    0.153303
   9 H :    0.146319
  10 H :    0.146320
  11 H :    0.151659
  12 H :    0.153382
  13 H :    0.151665
  14 H :    0.153604
  15 H :    0.150402
  16 H :    0.156687
  17 H :    0.150393
  18 H :    0.156699
  19 H :    0.153590
Sum of atomic charges:   -0.0000000

--------------------------------
MULLIKEN REDUCED ORBITAL CHARGES
--------------------------------
  0 C s       :     3.351664  s :     3.351664
      pz      :     1.084356  p :     3.134011
      px      :     1.001869
      py      :     1.047785
      dz2     :     0.004934  d :     0.027239
      dxz     :     0.002059
      dyz     :     0.008110
      dx2y2   :     0.004340
      dxy     :     0.007795

  1 C s       :     3.194908  s :     3.194908
      pz      :     1.105947  p :     3.001440
      px      :     0.906008
      py      :     0.989484
      dz2     :     0.005718  d :     0.037031
      dxz     :     0.003596
      dyz     :     0.010433
      dx2y2   :     0.007869
      dxy     :     0.009416

  2 C s       :     2.988105  s :     2.988105
      pz      :     0.934386  p :     2.828698
      px      :     0.951565
      py      :     0.942747
      dz2     :     0.012016  d :     0.054831
      dxz     :     0.006895
      dyz     :     0.013904
      dx2y2   :     0.008327
      dxy     :     0.013690

  3 C s       :     3.328594  s :     3.328594
      pz      :     1.100822  p :     3.127012
      px      :     0.994542
      py      :     1.031648
      dz2     :     0.004991  d :     0.027138
      dxz     :     0.001303
      dyz     :     0.008684
      dx2y2   :     0.005053
      dxy     :     0.007107

  4 C s       :     3.333860  s :     3.333860
      pz      :     0.994090  p :     3.150869
      px      :     1.104429
      py      :     1.052351
      dz2     :     0.007674  d :     0.027089
      dxz     :     0.001750
      dyz     :     0.007448
      dx2y2   :     0.002414
      dxy     :     0.007803

  5 C s       :     3.333818  s :     3.333818
      pz      :     0.994095  p :     3.150853
      px      :     1.104414
      py      :     1.052344
      dz2     :     0.007675  d :     0.027089
      dxz     :     0.001748
      dyz     :     0.007449
      dx2y2   :     0.002410
      dxy     :     0.007808

  6 H s       :     0.828272  s :     0.828272
      pz      :     0.008450  p :     0.018429
      px      :     0.003762
      py      :     0.006217

  7 H s       :     0.834765  s :     0.834765
      pz      :     0.003754  p :     0.018308
      px      :     0.008225
      py      :     0.006329

  8 H s       :     0.828268  s :     0.828268
      pz      :     0.008446  p :     0.018429
      px      :     0.003762
      py      :     0.006222

  9 H s       :     0.835917  s :     0.835917
      pz      :     0.008198  p :     0.017764
      px      :     0.003374
      py      :     0.006192

 10 H s       :     0.835916  s :     0.835916
      pz      :     0.008197  p :     0.017764
      px      :     0.003374
      py      :     0.006193

 11 H s       :     0.830114  s :     0.830114
      pz      :     0.008405  p :     0.018228
      px      :     0.003590
      py      :     0.006232

 12 H s       :     0.828397  s :     0.828397
      pz      :     0.003727  p :     0.018221
      px      :     0.009275
      py      :     0.005219

 13 H s       :     0.830107  s :     0.830107
      pz      :     0.008407  p :     0.018228
      px      :     0.003590
      py      :     0.006231

 14 H s       :     0.828202  s :     0.828202
      pz      :     0.008702  p :     0.018195
      px      :     0.003789
      py      :     0.005704

 15 H s       :     0.831337  s :     0.831337
      pz      :     0.003613  p :     0.018261
      px      :     0.009442
      py      :     0.005207

 16 H s       :     0.824877  s :     0.824877
      pz      :     0.003588  p :     0.018435
      px      :     0.007420
      py      :     0.007427

 17 H s       :     0.831346  s :     0.831346
      pz      :     0.003613  p :     0.018261
      px      :     0.009439
      py      :     0.005210

 18 H s       :     0.824866  s :     0.824866
      pz      :     0.003588  p :     0.018435
      px      :     0.007424
      py      :     0.007423

 19 H s       :     0.828215  s :     0.828215
      pz      :     0.008703  p :     0.018195
      px      :     0.003788
      py      :     0.005704


------------------------
MULLIKEN OVERLAP CHARGES
------------------------
B(  0-C ,  1-C ) :   0.3454 B(  0-C ,  2-C ) :  -0.1564 B(  0-C ,  6-H ) :   0.8676 
B(  0-C ,  7-H ) :   0.7997 B(  0-C ,  8-H ) :   0.8676 B(  1-C ,  2-C ) :   0.4449 
B(  1-C ,  3-C ) :  -0.3169 B(  1-C ,  4-C ) :  -0.2762 B(  1-C ,  5-C ) :  -0.2763 
B(  1-C ,  6-H ) :  -0.1044 B(  1-C ,  7-H ) :  -0.0741 B(  1-C ,  8-H ) :  -0.1045 
B(  1-C ,  9-H ) :   0.8225 B(  1-C , 10-H ) :   0.8225 B(  2-C ,  3-C ) :   0.6530 
B(  2-C ,  4-C ) :   0.5087 B(  2-C ,  5-C ) :   0.5087 B(  2-C ,  9-H ) :  -0.0887 
B(  2-C , 10-H ) :  -0.0887 B(  2-C , 11-H ) :  -0.0860 B(  2-C , 12-H ) :  -0.0876 
B(  2-C , 13-H ) :  -0.0860 B(  2-C , 14-H ) :  -0.0848 B(  2-C , 15-H ) :  -0.0763 
B(  2-C , 16-H ) :  -0.0668 B(  2-C , 17-H ) :  -0.0763 B(  2-C , 18-H ) :  -0.0668 
B(  2-C , 19-H ) :  -0.0847 B(  3-C ,  4-C ) :  -0.2734 B(  3-C ,  5-C ) :  -0.2735 
B(  3-C , 11-H ) :   0.8197 B(  3-C , 12-H ) :   0.8302 B(  3-C , 13-H ) :   0.8198 
B(  4-C ,  5-C ) :  -0.3474 B(  4-C , 14-H ) :   0.7984 B(  4-C , 15-H ) :   0.7976 
B(  4-C , 16-H ) :   0.8119 B(  5-C , 17-H ) :   0.7975 B(  5-C , 18-H ) :   0.8119 
B(  5-C , 19-H ) :   0.7984 B(  6-H ,  8-H ) :  -0.0502 


                     *******************************
                     * LOEWDIN POPULATION ANALYSIS *
                     *******************************

----------------------
LOEWDIN ATOMIC CHARGES
----------------------
   0 C :   -0.422478
   1 C :   -0.305105
   2 C :   -0.218026
   3 C :   -0.409403
   4 C :   -0.408706
   5 C :   -0.408695
   6 H :    0.151089
   7 H :    0.151616
   8 H :    0.151098
   9 H :    0.157006
  10 H :    0.157000
  11 H :    0.155989
  12 H :    0.154524
  13 H :    0.155985
  14 H :    0.157002
  15 H :    0.156841
  16 H :    0.155210
  17 H :    0.156839
  18 H :    0.155215
  19 H :    0.156998

-------------------------------
LOEWDIN REDUCED ORBITAL CHARGES
-------------------------------
  0 C s       :     2.968241  s :     2.968241
      pz      :     1.155988  p :     3.390754
      px      :     1.094022
      py      :     1.140744
      dz2     :     0.012332  d :     0.063483
      dxz     :     0.003495
      dyz     :     0.019873
      dx2y2   :     0.009110
      dxy     :     0.018672

  1 C s       :     2.933898  s :     2.933898
      pz      :     1.142945  p :     3.290885
      px      :     1.050088
      py      :     1.097852
      dz2     :     0.013661  d :     0.080322
      dxz     :     0.006094
      dyz     :     0.023915
      dx2y2   :     0.015944
      dxy     :     0.020708

  2 C s       :     2.884741  s :     2.884741
      pz      :     1.075364  p :     3.224910
      px      :     1.071123
      py      :     1.078423
      dz2     :     0.024241  d :     0.108375
      dxz     :     0.011183
      dyz     :     0.029059
      dx2y2   :     0.014956
      dxy     :     0.028936

  3 C s       :     2.968622  s :     2.968622
      pz      :     1.154393  p :     3.376684
      px      :     1.101829
      py      :     1.120461
      dz2     :     0.012529  d :     0.064096
      dxz     :     0.002328
      dyz     :     0.021082
      dx2y2   :     0.010925
      dxy     :     0.017232

  4 C s       :     2.964495  s :     2.964495
      pz      :     1.097980  p :     3.380240
      px      :     1.154265
      py      :     1.127995
      dz2     :     0.017844  d :     0.063970
      dxz     :     0.003313
      dyz     :     0.017994
      dx2y2   :     0.005787
      dxy     :     0.019032

  5 C s       :     2.964492  s :     2.964492
      pz      :     1.097986  p :     3.380232
      px      :     1.154253
      py      :     1.127993
      dz2     :     0.017847  d :     0.063971
      dxz     :     0.003308
      dyz     :     0.017996
      dx2y2   :     0.005778
      dxy     :     0.019042

  6 H s       :     0.805001  s :     0.805001
      pz      :     0.020868  p :     0.043910
      px      :     0.008323
      py      :     0.014719

  7 H s       :     0.804853  s :     0.804853
      pz      :     0.008168  p :     0.043532
      px      :     0.019910
      py      :     0.015453

  8 H s       :     0.804991  s :     0.804991
      pz      :     0.020856  p :     0.043911
      px      :     0.008322
      py      :     0.014733

  9 H s       :     0.799741  s :     0.799741
      pz      :     0.020209  p :     0.043253
      px      :     0.008071
      py      :     0.014972

 10 H s       :     0.799747  s :     0.799747
      pz      :     0.020208  p :     0.043253
      px      :     0.008071
      py      :     0.014974

 11 H s       :     0.800297  s :     0.800297
      pz      :     0.020643  p :     0.043714
      px      :     0.008130
      py      :     0.014941

 12 H s       :     0.801755  s :     0.801755
      pz      :     0.008121  p :     0.043721
      px      :     0.023063
      py      :     0.012537

 13 H s       :     0.800300  s :     0.800300
      pz      :     0.020647  p :     0.043715
      px      :     0.008130
      py      :     0.014937

 14 H s       :     0.799358  s :     0.799358
      pz      :     0.021551  p :     0.043640
      px      :     0.008311
      py      :     0.013779

 15 H s       :     0.799366  s :     0.799366
      pz      :     0.008249  p :     0.043793
      px      :     0.023372
      py      :     0.012173

 16 H s       :     0.800519  s :     0.800519
      pz      :     0.008208  p :     0.044270
      px      :     0.017960
      py      :     0.018102

 17 H s       :     0.799367  s :     0.799367
      pz      :     0.008248  p :     0.043794
      px      :     0.023364
      py      :     0.012182

 18 H s       :     0.800515  s :     0.800515
      pz      :     0.008208  p :     0.044270
      px      :     0.017970
      py      :     0.018092

 19 H s       :     0.799362  s :     0.799362
      pz      :     0.021552  p :     0.043640
      px      :     0.008309
      py      :     0.013779


---------------------------------
LOEWDIN BOND ORDERS (THRESH 0.050000)
---------------------------------
B(  0-C ,  1-C ) :   1.1347 B(  0-C ,  2-C ) :   0.0589 B(  0-C ,  6-H ) :   0.9259 
B(  0-C ,  7-H ) :   0.9274 B(  0-C ,  8-H ) :   0.9258 B(  1-C ,  2-C ) :   1.0487 
B(  1-C ,  3-C ) :   0.0796 B(  1-C ,  4-C ) :   0.0633 B(  1-C ,  5-C ) :   0.0633 
B(  1-C ,  9-H ) :   0.8850 B(  1-C , 10-H ) :   0.8850 B(  2-C ,  3-C ) :   1.0805 
B(  2-C ,  4-C ) :   1.0802 B(  2-C ,  5-C ) :   1.0803 B(  3-C ,  4-C ) :   0.0725 
B(  3-C ,  5-C ) :   0.0725 B(  3-C , 11-H ) :   0.9183 B(  3-C , 12-H ) :   0.9187 
B(  3-C , 13-H ) :   0.9183 B(  4-C ,  5-C ) :   0.0716 B(  4-C , 14-H ) :   0.9181 
B(  4-C , 15-H ) :   0.9175 B(  4-C , 16-H ) :   0.9171 B(  5-C , 17-H ) :   0.9175 
B(  5-C , 18-H ) :   0.9171 B(  5-C , 19-H ) :   0.9181 

------------------------------------------
LOEWDIN REDUCED ORBITAL POPULATIONS PER MO
-------------------------------------------
THRESHOLD FOR PRINTING IS 0.1%%
                      0         1         2         3         4         5   
                 -10.03807 -10.02022 -10.01342 -10.01150 -10.01150 -10.01107
                   2.00000   2.00000   2.00000   2.00000   2.00000   2.00000
                  --------  --------  --------  --------  --------  --------
 0 C  s               0.0       0.0      99.7       0.0       0.0       0.0
 1 C  s               0.0      99.7       0.0       0.0       0.0       0.0
 2 C  s              99.6       0.0       0.0       0.0       0.0       0.0
 2 C  pz              0.0       0.0       0.0       0.1       0.0       0.0
 3 C  s               0.0       0.0       0.0       0.0       0.0      99.7
 4 C  s               0.0       0.0       0.0      75.2      24.5       0.0
 5 C  s               0.0       0.0       0.0      24.5      75.2       0.0

                      6         7         8         9        10        11   
                  -0.79059  -0.70292  -0.64926  -0.64887  -0.58748  -0.49222
                   2.00000   2.00000   2.00000   2.00000   2.00000   2.00000
                  --------  --------  --------  --------  --------  --------
 0 C  s               4.0      27.0       0.0       0.0      15.6       0.7
 0 C  pz              0.0       0.0       0.2       0.0       0.0       0.0
 0 C  px              1.5       0.6       0.0       0.0       4.9       0.9
 0 C  py              0.2       0.6       0.0       0.2       2.1       3.5
 1 C  s              12.8      15.3       0.0       0.7      11.8       3.3
 1 C  pz              0.0       0.0       1.0       0.0       0.0       0.0
 1 C  px              1.4       6.7       0.0       0.3       5.8       2.9
 1 C  py              1.4       0.2       0.0       1.0       2.1       8.2
 1 C  dz2             0.0       0.0       0.0       0.0       0.0       0.1
 1 C  dxy             0.0       0.1       0.0       0.0       0.2       0.1
 2 C  s              26.3       1.9       0.0       0.0       1.9      13.5
 2 C  pz              0.0       0.0      16.3       0.0       0.0       0.0
 2 C  px              0.0       6.8       0.0       2.3       6.4       0.0
 2 C  py              0.0       1.1       0.0      14.1       2.0       0.2
 2 C  dz2             0.0       0.0       0.0       0.2       0.0       0.0
 2 C  dyz             0.0       0.0       0.4       0.0       0.0       0.0
 2 C  dxy             0.0       0.1       0.0       0.1       0.2       0.0
 3 C  s               8.9       4.7       0.0      26.1       5.3       1.3
 3 C  pz              0.0       0.0       1.0       0.0       0.0       0.0
 3 C  px              2.1       0.0       0.0       0.1       2.6       3.8
 3 C  py              1.3       0.4       0.0       0.9       0.0       4.1
 3 C  dxy             0.1       0.0       0.0       0.0       0.0       0.2
 4 C  s               8.9       2.9      22.3       8.8       0.8       2.5
 4 C  pz              2.2       0.2       1.0       0.0       0.2       7.8
 4 C  px              0.0       0.4       0.0       0.2       0.3       0.1
 4 C  py              1.1       0.0       0.0       0.9       0.5       3.0
 4 C  dyz             0.1       0.0       0.0       0.0       0.0       0.2
 5 C  s               8.9       2.9      22.4       8.7       0.8       2.5
 5 C  pz              2.2       0.2       1.0       0.0       0.2       7.8
 5 C  px              0.0       0.4       0.0       0.2       0.3       0.1
 5 C  py              1.1       0.0       0.0       0.9       0.5       3.0
 5 C  dyz             0.1       0.0       0.0       0.0       0.0       0.2
 6 H  s               0.5       4.6       0.0       0.0       5.8       0.9
 6 H  pz              0.0       0.3       0.0       0.0       0.3       0.1
 6 H  py              0.0       0.1       0.0       0.0       0.1       0.0
 7 H  s               0.5       5.0       0.0       0.0       5.7       0.1
 7 H  px              0.0       0.3       0.0       0.0       0.2       0.0
 7 H  py              0.0       0.2       0.0       0.0       0.2       0.0
 8 H  s               0.5       4.6       0.0       0.0       5.8       1.0
 8 H  pz              0.0       0.3       0.0       0.0       0.3       0.1
 8 H  py              0.0       0.1       0.0       0.0       0.1       0.0
 9 H  s               1.5       2.7       0.0       0.3       4.1       3.8
 9 H  pz              0.1       0.2       0.0       0.0       0.2       0.2
10 H  s               1.5       2.7       0.0       0.3       4.1       3.8
10 H  pz              0.1       0.2       0.0       0.0       0.2       0.2
11 H  s               1.0       0.7       0.0       6.4       1.4       1.6
11 H  pz              0.1       0.0       0.0       0.4       0.1       0.1
11 H  py              0.0       0.0       0.0       0.2       0.0       0.0
12 H  s               1.0       1.0       0.0       5.6       2.7       1.1
12 H  px              0.1       0.1       0.0       0.3       0.1       0.0
12 H  py              0.0       0.0       0.0       0.1       0.1       0.1
13 H  s               1.0       0.7       0.0       6.4       1.4       1.6
13 H  pz              0.1       0.0       0.0       0.4       0.1       0.1
13 H  py              0.0       0.0       0.0       0.2       0.0       0.0
14 H  s               1.0       0.4       5.8       1.7       0.2       2.7
14 H  pz              0.1       0.0       0.3       0.1       0.0       0.0
14 H  py              0.0       0.0       0.2       0.0       0.0       0.1
15 H  s               1.0       0.7       5.1       2.0       0.6       2.4
15 H  px              0.1       0.0       0.3       0.1       0.0       0.1
16 H  s               1.1       0.4       5.0       2.6       0.4       1.9
16 H  px              0.0       0.0       0.2       0.1       0.0       0.1
16 H  py              0.0       0.0       0.2       0.1       0.0       0.0
17 H  s               1.0       0.7       5.1       2.0       0.6       2.4
17 H  px              0.1       0.0       0.3       0.1       0.0       0.1
18 H  s               1.1       0.4       5.0       2.6       0.4       1.9
18 H  px              0.0       0.0       0.2       0.1       0.0       0.1
18 H  py              0.0       0.0       0.2       0.1       0.0       0.0
19 H  s               1.0       0.4       5.8       1.7       0.2       2.7
19 H  pz              0.1       0.0       0.3       0.1       0.0       0.0
19 H  py              0.0       0.0       0.2       0.0       0.0       0.1

                     12        13        14        15        16        17   
                  -0.42720  -0.42590  -0.40514  -0.39133  -0.36696  -0.34924
                   2.00000   2.00000   2.00000   2.00000   2.00000   2.00000
                  --------  --------  --------  --------  --------  --------
 0 C  s               0.1       0.0       0.2       0.0       0.1       0.0
 0 C  pz              0.0      12.0       0.0      18.2       0.0       0.0
 0 C  px              2.4       0.0       6.5       0.0      14.9       4.3
 0 C  py              8.8       0.0       0.6       0.0       1.4      25.3
 0 C  dz2             0.0       0.0       0.0       0.0       0.0       0.2
 0 C  dyz             0.0       0.0       0.0       0.1       0.0       0.0
 0 C  dxy             0.0       0.0       0.1       0.0       0.2       0.1
 1 C  s               0.3       0.0       0.8       0.0       0.5       0.3
 1 C  pz              0.0      25.4       0.0       4.1       0.0       0.0
 1 C  px              3.1       0.0       3.7       0.0       1.8       1.9
 1 C  py              7.1       0.0       0.6       0.0       7.0       0.2
 1 C  dxz             0.0       0.0       0.0       0.1       0.0       0.0
 2 C  s               0.2       0.0       0.1       0.0       0.2       0.4
 2 C  pz              0.0       8.4       0.0       4.2       0.0       0.0
 2 C  px             12.4       0.0       0.6       0.0       0.1       0.4
 2 C  py              0.5       0.0      11.6       0.0       0.0       2.2
 2 C  dz2             0.0       0.0       0.1       0.0       0.0       0.2
 2 C  dxz             0.0       0.0       0.0       0.2       0.0       0.0
 2 C  dx2y2           0.0       0.0       0.0       0.0       0.4       0.0
 3 C  s               0.5       0.0       0.4       0.0       0.0       0.0
 3 C  pz              0.0       7.0       0.0      19.4       0.0       0.0
 3 C  px              0.0       0.0      12.7       0.0      11.3       2.9
 3 C  py             11.6       0.0       0.0       0.0      10.9       0.2
 3 C  dz2             0.1       0.0       0.0       0.0       0.1       0.0
 3 C  dxy             0.0       0.0       0.2       0.0       0.1       0.0
 4 C  s               0.0       0.7       0.2       0.1       0.0       0.1
 4 C  pz              1.1       0.5      11.5       0.1       3.5       0.1
 4 C  px             11.8       0.8       0.4       4.6       0.4       7.4
 4 C  py              0.1       6.8       5.3       5.3       5.2       3.7
 4 C  dz2             0.0       0.0       0.0       0.0       0.0       0.1
 5 C  s               0.0       0.7       0.2       0.1       0.0       0.1
 5 C  pz              1.1       0.5      11.5       0.1       3.5       0.1
 5 C  px             11.8       0.8       0.4       4.6       0.4       7.4
 5 C  py              0.1       6.8       5.3       5.3       5.2       3.7
 5 C  dz2             0.0       0.0       0.0       0.0       0.0       0.1
 6 H  s               0.8       2.5       0.4       5.3       0.1       4.3
 6 H  pz              0.0       0.0       0.0       0.0       0.0       0.2
 6 H  px              0.0       0.0       0.0       0.0       0.1       0.0
 6 H  py              0.0       0.1       0.0       0.1       0.0       0.0
 7 H  s               3.2       0.0       1.4       0.0       7.0      11.7
 7 H  pz              0.0       0.1       0.0       0.1       0.0       0.0
 7 H  px              0.1       0.0       0.0       0.0       0.0       0.2
 8 H  s               0.8       2.5       0.4       5.3       0.1       4.3
 8 H  pz              0.0       0.0       0.0       0.0       0.0       0.2
 8 H  px              0.0       0.0       0.0       0.0       0.1       0.0
 8 H  py              0.0       0.1       0.0       0.1       0.0       0.0
 9 H  s               1.2       5.8       0.0       0.8       0.4       0.3
 9 H  py              0.0       0.2       0.0       0.0       0.0       0.0
10 H  s               1.2       5.8       0.0       0.8       0.4       0.3
10 H  py              0.0       0.2       0.0       0.0       0.0       0.0
11 H  s               2.5       1.8       0.0       5.1       1.9       0.0
11 H  pz              0.1       0.0       0.0       0.0       0.1       0.0
11 H  py              0.0       0.0       0.0       0.1       0.0       0.0
12 H  s               0.3       0.0       5.5       0.0       9.3       1.3
12 H  pz              0.0       0.0       0.0       0.1       0.0       0.0
12 H  px              0.0       0.0       0.1       0.0       0.2       0.0
13 H  s               2.5       1.8       0.0       5.1       1.9       0.0
13 H  pz              0.1       0.0       0.0       0.0       0.1       0.0
13 H  py              0.0       0.0       0.0       0.1       0.0       0.0
14 H  s               0.5       0.0       7.5       0.2       2.9       1.5
14 H  pz              0.0       0.0       0.1       0.0       0.1       0.1
15 H  s               2.8       2.4       0.0       0.1       0.0       5.5
15 H  px              0.0       0.1       0.0       0.0       0.0       0.1
16 H  s               3.0       1.3       1.2       4.4       2.1       0.2
17 H  s               2.7       2.4       0.0       0.1       0.0       5.5
17 H  px              0.0       0.1       0.0       0.0       0.0       0.1
18 H  s               3.0       1.3       1.2       4.4       2.1       0.2
19 H  s               0.5       0.0       7.5       0.2       2.9       1.5
19 H  pz              0.0       0.0       0.1       0.0       0.1       0.1

                     18        19        20        21        22        23   
                  -0.34467  -0.32996  -0.32420  -0.31081  -0.28430  -0.28194
                   2.00000   2.00000   2.00000   2.00000   2.00000   2.00000
                  --------  --------  --------  --------  --------  --------
 0 C  s               0.0       0.0       0.6       0.0       0.0       0.3
 0 C  pz              9.1       0.0       0.0      14.9       3.4       0.0
 0 C  px              0.0       0.0       8.1       0.0       0.0       5.3
 0 C  py              0.0       0.0       8.3       0.0       0.0       4.5
 0 C  dz2             0.0       0.0       0.1       0.0       0.0       0.0
 0 C  dyz             0.1       0.0       0.0       0.5       0.2       0.0
 0 C  dx2y2           0.0       0.0       0.1       0.0       0.0       0.0
 1 C  s               0.0       0.0       0.1       0.0       0.0       0.1
 1 C  pz              0.5       1.5       0.0      15.2       9.6       0.0
 1 C  px              0.0       0.0       6.4       0.0       0.0       2.9
 1 C  py              0.0       0.0      13.1       0.0       0.0       4.2
 1 C  dz2             0.0       0.0       0.2       0.0       0.0       0.1
 1 C  dyz             0.0       0.0       0.0       0.4       0.7       0.0
 1 C  dx2y2           0.0       0.0       0.1       0.0       0.0       0.3
 1 C  dxy             0.0       0.0       0.1       0.0       0.0       0.1
 2 C  pz              1.1       0.0       0.0       4.3      19.4       0.0
 2 C  px              0.0       0.0       0.5       0.0       0.0       6.0
 2 C  py              0.0       0.0       1.0       0.0       0.0      14.6
 2 C  dz2             0.0       0.0       0.0       0.0       0.0       0.4
 2 C  dxz             0.2       0.0       0.0       0.1       0.0       0.0
 2 C  dyz             0.0       0.0       0.0       0.1       0.9       0.0
 2 C  dxy             0.0       0.0       0.0       0.0       0.0       0.5
 3 C  s               0.0       0.0       0.0       0.0       0.0       1.5
 3 C  pz              3.3      20.4       0.0       3.6       2.9       0.0
 3 C  px              0.0       0.0       3.3       0.0       0.0      11.4
 3 C  py              0.0       0.0      15.1       0.0       0.0      11.1
 3 C  dz2             0.0       0.0       0.2       0.0       0.0       0.1
 3 C  dyz             0.0       0.4       0.0       0.1       0.4       0.0
 3 C  dx2y2           0.0       0.0       0.2       0.0       0.0       0.0
 3 C  dxy             0.0       0.0       0.1       0.0       0.0       0.1
 4 C  s               0.0       0.0       0.1       0.2       0.8       0.2
 4 C  pz              1.0       2.6       0.1       7.5      13.5       1.4
 4 C  px             16.6       7.3       4.0       0.0       0.0       1.2
 4 C  py              4.8       6.4       0.6       1.3       3.0       5.8
 4 C  dz2             0.1       0.1       0.0       0.1       0.0       0.2
 4 C  dyz             0.0       0.0       0.0       0.1       0.2       0.0
 4 C  dxy             0.1       0.2       0.1       0.0       0.0       0.2
 5 C  s               0.0       0.0       0.1       0.2       0.8       0.2
 5 C  pz              1.0       2.6       0.1       7.5      13.5       1.4
 5 C  px             16.6       7.3       4.0       0.0       0.0       1.2
 5 C  py              4.8       6.4       0.7       1.3       3.0       5.8
 5 C  dz2             0.1       0.1       0.0       0.1       0.0       0.2
 5 C  dyz             0.0       0.0       0.0       0.1       0.2       0.0
 5 C  dxy             0.1       0.2       0.1       0.0       0.0       0.2
 6 H  s               2.7       0.0       1.7       7.1       2.1       0.7
 7 H  pz              0.1       0.0       0.0       0.1       0.0       0.0
 8 H  s               2.7       0.0       1.7       7.1       2.1       0.7
 9 H  s               0.2       0.5       2.7       6.5       6.1       1.6
 9 H  py              0.0       0.0       0.0       0.1       0.0       0.0
10 H  s               0.2       0.5       2.7       6.5       6.1       1.6
10 H  py              0.0       0.0       0.0       0.1       0.0       0.0
11 H  s               1.0       8.0       3.2       1.5       2.2       1.1
11 H  pz              0.0       0.0       0.1       0.0       0.0       0.0
11 H  px              0.0       0.0       0.0       0.0       0.0       0.1
11 H  py              0.0       0.1       0.0       0.0       0.0       0.1
12 H  s               0.0       0.0       8.2       0.0       0.0       0.3
12 H  pz              0.0       0.2       0.0       0.0       0.0       0.0
12 H  px              0.0       0.0       0.1       0.0       0.0       0.1
12 H  py              0.0       0.0       0.0       0.0       0.0       0.1
13 H  s               1.0       8.0       3.2       1.5       2.2       1.1
13 H  pz              0.0       0.0       0.1       0.0       0.0       0.0
13 H  px              0.0       0.0       0.0       0.0       0.0       0.1
13 H  py              0.0       0.1       0.0       0.0       0.0       0.1
14 H  s               3.7       3.7       0.0       4.7       2.5       0.4
14 H  px              0.1       0.1       0.0       0.0       0.0       0.0
15 H  s              11.0       1.0       1.3       0.5       0.1       0.0
15 H  pz              0.0       0.0       0.0       0.1       0.1       0.0
15 H  px              0.1       0.0       0.0       0.0       0.0       0.0
15 H  py              0.0       0.1       0.0       0.0       0.0       0.1
16 H  s               0.8       8.2       2.6       0.3       0.1       4.3
16 H  pz              0.0       0.0       0.0       0.1       0.1       0.0
16 H  py              0.1       0.1       0.0       0.0       0.0       0.0
17 H  s              11.0       1.0       1.3       0.5       0.1       0.0
17 H  pz              0.0       0.0       0.0       0.1       0.1       0.0
17 H  px              0.1       0.0       0.0       0.0       0.0       0.0
17 H  py              0.0       0.1       0.0       0.0       0.0       0.1
18 H  s               0.8       8.2       2.6       0.3       0.1       4.3
18 H  pz              0.0       0.0       0.0       0.1       0.1       0.0
18 H  py              0.1       0.1       0.0       0.0       0.0       0.0
19 H  s               3.6       3.7       0.0       4.7       2.5       0.4
19 H  px              0.1       0.1       0.0       0.0       0.0       0.0

                     24        25        26        27        28        29   
                  -0.27699   0.07770   0.11061   0.12326   0.13281   0.13834
                   2.00000   0.00000   0.00000   0.00000   0.00000   0.00000
                  --------  --------  --------  --------  --------  --------
 0 C  s               0.0       8.1      22.4       0.2       0.0       2.8
 0 C  pz              0.0       0.0       0.0       0.0       1.7       0.0
 0 C  px              5.1       0.9       7.6       0.5       0.0       2.9
 0 C  py              1.7       0.5       0.9      14.3       0.0       0.3
 0 C  dz2             0.1       0.0       0.1       0.2       0.0       0.0
 0 C  dyz             0.0       0.0       0.0       0.0       0.3       0.0
 0 C  dx2y2           0.2       0.0       0.0       0.1       0.0       0.3
 0 C  dxy             0.2       0.4       0.2       0.2       0.0       0.4
 1 C  s               0.9       7.3       0.7       7.4       0.0       3.1
 1 C  pz              0.0       0.0       0.0       0.0       4.3       0.0
 1 C  px             15.4       0.1       7.6       0.4       0.0       6.0
 1 C  py              9.8       2.6       2.3       5.7       0.0       8.8
 1 C  dz2             0.1       0.2       0.2       0.1       0.0       0.5
 1 C  dxz             0.0       0.0       0.0       0.0       0.5       0.0
 1 C  dyz             0.0       0.0       0.0       0.0       0.4       0.0
 1 C  dx2y2           0.1       0.1       0.0       0.5       0.0       0.0
 1 C  dxy             0.3       0.0       0.9       0.0       0.0       0.4
 2 C  s               0.1       4.3       2.9       0.5       0.0       0.1
 2 C  pz              0.0       0.0       0.0       0.0       8.8       0.0
 2 C  px             17.8       0.2       0.6       0.5       0.0       6.1
 2 C  py              6.5       0.0       0.2       3.5       0.0       2.0
 2 C  dz2             0.2       0.0       0.0       0.5       0.0       0.9
 2 C  dyz             0.0       0.0       0.0       0.0       2.2       0.0
 2 C  dx2y2           0.1       0.0       0.2       0.0       0.0       0.0
 2 C  dxy             0.4       0.1       0.0       0.5       0.0       1.0
 3 C  s               0.1       6.1       6.6       4.2       0.0       0.3
 3 C  pz              0.0       0.0       0.0       0.0       2.5       0.0
 3 C  px              4.9       1.4       1.7       9.6       0.0       2.2
 3 C  py              0.3       1.7       0.6       0.6       0.0       2.8
 3 C  dz2             0.0       0.2       0.0       0.0       0.0       0.0
 3 C  dxz             0.0       0.0       0.0       0.0       0.2       0.0
 3 C  dyz             0.0       0.0       0.0       0.0       1.1       0.0
 3 C  dx2y2           0.3       0.0       0.1       0.0       0.0       0.3
 3 C  dxy             0.1       0.3       0.6       0.5       0.0       0.1
 4 C  s               0.1      11.0       0.3       1.3      10.4       3.0
 4 C  pz              0.7       1.2       1.8       0.8       8.8       3.3
 4 C  px              2.2       0.1       6.7       1.6       0.0       0.4
 4 C  py              2.6       0.6       0.9       7.5       5.2       4.3
 4 C  dz2             0.1       0.1       0.0       0.1       0.1       1.0
 4 C  dxz             0.1       0.0       0.0       0.0       0.0       0.4
 4 C  dyz             0.0       0.3       0.3       0.0       0.7       0.1
 4 C  dx2y2           0.0       0.1       0.0       0.1       0.0       0.2
 4 C  dxy             0.2       0.0       0.0       0.5       0.0       0.0
 5 C  s               0.1      11.0       0.3       1.3      10.4       3.0
 5 C  pz              0.7       1.2       1.8       0.8       8.8       3.3
 5 C  px              2.2       0.1       6.6       1.6       0.0       0.4
 5 C  py              2.6       0.6       0.9       7.5       5.2       4.2
 5 C  dz2             0.1       0.1       0.0       0.1       0.1       1.0
 5 C  dxz             0.1       0.0       0.0       0.0       0.0       0.4
 5 C  dyz             0.0       0.3       0.3       0.0       0.7       0.1
 5 C  dx2y2           0.0       0.1       0.0       0.1       0.0       0.2
 5 C  dxy             0.2       0.0       0.0       0.5       0.0       0.0
 6 H  s               0.6       1.2       3.5       0.1       1.4       0.2
 6 H  pz              0.0       0.5       1.5       0.0       0.1       0.0
 6 H  px              0.1       0.2       0.1       0.0       0.0       0.1
 6 H  py              0.0       0.1       0.5       0.2       0.3       0.3
 7 H  s               5.6       1.4       0.7       0.1       0.0       2.8
 7 H  pz              0.0       0.0       0.0       0.0       0.2       0.0
 7 H  px              0.0       0.2       0.5       0.2       0.0       0.0
 7 H  py              0.0       0.4       0.4       0.1       0.0       1.1
 8 H  s               0.6       1.2       3.5       0.1       1.4       0.2
 8 H  pz              0.0       0.5       1.5       0.0       0.1       0.0
 8 H  px              0.1       0.2       0.1       0.0       0.0       0.1
 8 H  py              0.0       0.1       0.5       0.2       0.3       0.3
 9 H  s               1.5       2.2       0.1       1.9       1.3       0.3
 9 H  pz              0.0       1.0       0.0       1.0       0.1       0.1
 9 H  px              0.2       0.0       0.4       0.0       0.1       0.2
 9 H  py              0.0       0.1       0.1       0.3       0.3       0.4
10 H  s               1.5       2.2       0.1       1.9       1.3       0.3
10 H  pz              0.0       1.0       0.0       1.0       0.1       0.1
10 H  px              0.2       0.0       0.4       0.0       0.1       0.2
10 H  py              0.0       0.1       0.1       0.3       0.3       0.4
11 H  s               0.3       1.8       0.8       0.5       2.6       0.3
11 H  pz              0.0       0.7       0.4       0.2       0.2       0.1
11 H  px              0.0       0.2       0.2       0.2       0.0       0.0
11 H  py              0.0       0.0       0.1       0.0       0.5       0.1
12 H  s               3.7       1.1       3.1       0.6       0.0       1.0
12 H  pz              0.0       0.0       0.0       0.0       0.1       0.0
12 H  px              0.0       0.2       0.6       0.4       0.0       0.4
12 H  py              0.0       0.6       0.6       0.1       0.0       0.0
13 H  s               0.3       1.8       0.8       0.5       2.6       0.3
13 H  pz              0.0       0.7       0.4       0.2       0.1       0.1
13 H  px              0.0       0.2       0.2       0.2       0.0       0.0
13 H  py              0.0       0.0       0.1       0.0       0.5       0.1
14 H  s               0.5       2.2       0.2       0.1       0.8       6.7
14 H  pz              0.0       0.2       0.0       0.0       0.1       1.7
14 H  px              0.0       0.0       0.0       0.2       0.0       0.1
14 H  py              0.0       0.8       0.1       0.2       0.0       0.2
15 H  s               3.5       2.2       0.2       0.6       1.2       1.4
15 H  pz              0.0       0.1       0.0       0.0       0.3       0.3
15 H  px              0.0       0.9       0.0       0.0       0.6       0.2
15 H  py              0.0       0.1       0.0       0.0       0.2       0.1
16 H  s               0.1       1.7       0.2       5.2       2.2       0.7
16 H  pz              0.0       0.2       0.2       0.0       0.3       0.0
16 H  px              0.0       0.7       0.1       0.5       0.6       0.3
16 H  py              0.0       0.2       0.1       1.1       0.7       0.2
17 H  s               3.5       2.2       0.2       0.6       1.2       1.4
17 H  pz              0.0       0.1       0.0       0.0       0.3       0.3
17 H  px              0.0       0.9       0.0       0.0       0.6       0.2
17 H  py              0.0       0.1       0.0       0.0       0.2       0.1
18 H  s               0.1       1.7       0.2       5.2       2.2       0.7
18 H  pz              0.0       0.2       0.2       0.0       0.3       0.0
18 H  px              0.0       0.7       0.1       0.5       0.6       0.3
18 H  py              0.0       0.2       0.1       1.1       0.7       0.2
19 H  s               0.5       2.2       0.2       0.1       0.8       6.7
19 H  pz              0.0       0.2       0.0       0.0       0.1       1.7
19 H  px              0.0       0.0       0.0       0.2       0.0       0.1
19 H  py              0.0       0.8       0.1       0.2       0.0       0.2

                     30        31        32        33        34        35   
                   0.13879   0.14041   0.14455   0.15030   0.16809   0.17984
                   0.00000   0.00000   0.00000   0.00000   0.00000   0.00000
                  --------  --------  --------  --------  --------  --------
 0 C  s               0.2       0.0       0.2       1.3       1.4       0.0
 0 C  pz              0.0       8.0       0.0       0.0       0.0       6.6
 0 C  px              1.5       0.0       0.2       6.7      16.9       0.0
 0 C  py              0.6       0.0       6.1       7.5       0.5       0.0
 0 C  dz2             0.0       0.0       1.1       1.3       0.0       0.0
 0 C  dxz             0.0       0.1       0.0       0.0       0.0       0.6
 0 C  dyz             0.0       0.4       0.0       0.0       0.0       1.2
 0 C  dx2y2           0.0       0.0       0.0       0.7       0.1       0.0
 0 C  dxy             0.1       0.0       0.0       0.0       2.1       0.0
 1 C  s               0.7       0.0       0.3       3.2       2.5       0.0
 1 C  pz              0.0      13.9       0.0       0.0       0.0       6.7
 1 C  px              0.6       0.0       2.6       0.2       4.7       0.0
 1 C  py              8.5       0.0       4.5       2.7       4.2       0.0
 1 C  dz2             0.3       0.0       0.4       0.1       0.2       0.0
 1 C  dxz             0.0       0.0       0.0       0.0       0.0       0.2
 1 C  dyz             0.0       0.7       0.0       0.0       0.0       3.0
 1 C  dx2y2           0.0       0.0       0.5       0.6       0.0       0.0
 1 C  dxy             0.0       0.0       0.4       0.1       0.3       0.0
 2 C  s              10.2       0.0       3.2       4.7       0.2       0.0
 2 C  pz              0.0       2.9       0.0       0.0       0.0       0.8
 2 C  px              0.9       0.0       7.2       0.3       0.6       0.0
 2 C  py              1.1       0.0       6.2       1.0       0.2       0.0
 2 C  dz2             0.0       0.0       0.6       0.2       0.0       0.0
 2 C  dxz             0.0       0.1       0.0       0.0       0.0       1.5
 2 C  dyz             0.0       0.7       0.0       0.0       0.0       0.1
[...]
 3 C  dz2             0.0       0.0       0.8       0.0       0.0       0.0
 3 C  dyz             5.3       0.0       0.0       0.5       0.0       0.0
 3 C  dx2y2           0.0       0.9       0.4       0.0       0.0       0.0
 3 C  dxy             0.0       7.1       1.4       0.0       0.0       0.0
 4 C  s               0.8       0.0       0.5       0.2      18.9       8.1
 4 C  pz              3.3       0.3       0.5       0.3       0.0       0.0
 4 C  px              2.3       0.8       0.1       0.4       0.0       0.0
 4 C  py              0.2       0.6       2.0       0.2       0.0       0.0
 4 C  dz2             0.1       0.9       2.5       0.1       0.0       0.0
 4 C  dyz             4.3       0.8       0.4       0.4       0.0       0.0
 4 C  dx2y2           0.8       0.0       0.2       0.1       0.0       0.0
 4 C  dxy             6.4       2.6       0.7       0.1       0.0       0.0
 5 C  s               0.8       0.0       0.5       0.2      18.9       8.1
 5 C  pz              3.3       0.4       0.5       0.4       0.0       0.0
 5 C  px              2.2       0.8       0.1       0.4       0.0       0.0
 5 C  py              0.2       0.6       2.0       0.2       0.0       0.0
 5 C  dz2             0.1       0.9       2.5       0.1       0.0       0.0
 5 C  dyz             4.3       0.9       0.4       0.4       0.0       0.0
 5 C  dx2y2           0.8       0.0       0.2       0.1       0.0       0.0
 5 C  dxy             6.3       2.7       0.7       0.1       0.0       0.0
 6 H  s               0.0       0.3       0.4       2.1       0.0       0.0
 6 H  pz              0.0       0.4       1.1       3.1       0.0       0.0
 6 H  px              0.0       0.2       0.2       0.2       0.0       0.0
 6 H  py              0.0       0.2       0.4       1.9       0.0       0.0
 7 H  s               0.0       1.6       0.0       0.0       0.0       0.0
 7 H  px              0.0       2.6       0.2       0.0       0.0       0.0
 7 H  py              0.0       1.2       0.2       0.0       0.0       0.0
 8 H  s               0.0       0.3       0.4       2.1       0.0       0.0
 8 H  pz              0.0       0.4       1.1       3.1       0.0       0.0
 8 H  px              0.0       0.2       0.2       0.2       0.0       0.0
 8 H  py              0.0       0.2       0.4       1.9       0.0       0.0
 9 H  s               0.5       0.5       1.8       5.2       0.0       0.0
 9 H  pz              0.5       1.4       5.0       6.6       0.0       0.0
 9 H  px              0.0       0.2       0.0       0.0       0.0       0.0
 9 H  py              0.4       0.5       0.9       5.8       0.0       0.0
10 H  s               0.5       0.5       1.7       5.2       0.0       0.0
10 H  pz              0.5       1.4       5.0       6.6       0.0       0.0
10 H  px              0.0       0.2       0.0       0.0       0.0       0.0
10 H  py              0.4       0.5       0.9       5.8       0.0       0.0
11 H  s               1.1       0.0       0.1       0.1       0.0       0.0
11 H  pz              1.6       0.0       0.3       0.2       0.0       0.0
11 H  px              0.0       0.2       0.2       0.0       0.0       0.0
11 H  py              0.9       0.0       0.1       0.1       0.0       0.0
12 H  s               0.0       2.3       0.0       0.0       0.0       0.0
12 H  px              0.0       4.1       0.0       0.0       0.0       0.0
12 H  py              0.0       2.3       0.2       0.0       0.0       0.0
13 H  s               1.1       0.0       0.1       0.1       0.0       0.0
13 H  pz              1.6       0.0       0.3       0.2       0.0       0.0
13 H  px              0.0       0.2       0.2       0.0       0.0       0.0
13 H  py              0.9       0.0       0.1       0.1       0.0       0.0
14 H  s               1.6       0.7       0.2       0.0       0.0       0.0
14 H  pz              2.6       1.0       0.4       0.0       0.0       0.0
14 H  px              0.2       0.1       0.0       0.1       0.0       0.0
14 H  py              1.7       0.5       0.0       0.1       0.0       0.0
15 H  s               1.4       0.2       0.1       0.2       0.0       0.0
15 H  pz              0.1       0.0       0.0       0.0       0.0       0.0
15 H  px              2.9       0.4       0.4       0.4       0.0       0.0
15 H  py              1.1       0.3       0.0       0.1       0.0       0.0
16 H  s               2.0       1.4       1.0       0.0       0.0       0.0
16 H  pz              0.1       0.0       0.0       0.0       0.0       0.0
16 H  px              1.8       1.6       1.7       0.0       0.0       0.0
16 H  py              2.2       1.6       1.1       0.2       0.0       0.0
17 H  s               1.4       0.2       0.1       0.2       0.0       0.0
17 H  pz              0.1       0.0       0.0       0.0       0.0       0.0
17 H  px              2.9       0.4       0.4       0.4       0.0       0.0
17 H  py              1.1       0.3       0.0       0.1       0.0       0.0
18 H  s               2.0       1.4       1.0       0.0       0.0       0.0
18 H  pz              0.1       0.0       0.0       0.0       0.0       0.0
18 H  px              1.8       1.6       1.7       0.0       0.0       0.0
18 H  py              2.1       1.7       1.1       0.2       0.0       0.0
19 H  s               1.6       0.7       0.2       0.0       0.0       0.0
19 H  pz              2.5       1.0       0.4       0.0       0.0       0.0
19 H  px              0.2       0.1       0.0       0.1       0.0       0.0
19 H  py              1.6       0.5       0.0       0.1       0.0       0.0

                    180       181       182       183   
                  22.04632  22.06576  22.07976  22.17644
                   0.00000   0.00000   0.00000   0.00000
                  --------  --------  --------  --------
 0 C  s               2.1       0.0       6.6       0.7
 1 C  s              36.8       0.0      50.8       1.1
 2 C  s               0.1       0.0       2.3      82.3
 3 C  s              47.1       0.0      20.9       2.6
 4 C  s               6.7      49.9       9.5       6.5
 5 C  s               6.8      49.8       9.6       6.5


                      *****************************
                      * MAYER POPULATION ANALYSIS *
                      *****************************

  NA   - Mulliken gross atomic population
  ZA   - Total nuclear charge
  QA   - Mulliken gross atomic charge
  VA   - Mayer's total valence
  BVA  - Mayer's bonded valence
  FA   - Mayer's free valence

  ATOM       NA         ZA         QA         VA         BVA        FA
  0 C      6.5129     6.0000    -0.5129     3.8336     3.8336    -0.0000
  1 C      6.2334     6.0000    -0.2334     3.4681     3.4681     0.0000
  2 C      5.8716     6.0000     0.1284     3.4774     3.4774     0.0000
  3 C      6.4827     6.0000    -0.4827     3.6710     3.6710    -0.0000
  4 C      6.5118     6.0000    -0.5118     3.6828     3.6828     0.0000
  5 C      6.5118     6.0000    -0.5118     3.6828     3.6828    -0.0000
  6 H      0.8467     1.0000     0.1533     0.9614     0.9614    -0.0000
  7 H      0.8531     1.0000     0.1469     0.9618     0.9618    -0.0000
  8 H      0.8467     1.0000     0.1533     0.9614     0.9614    -0.0000
  9 H      0.8537     1.0000     0.1463     0.9656     0.9656     0.0000
 10 H      0.8537     1.0000     0.1463     0.9656     0.9656     0.0000
 11 H      0.8483     1.0000     0.1517     0.9652     0.9652    -0.0000
 12 H      0.8466     1.0000     0.1534     0.9644     0.9644    -0.0000
 13 H      0.8483     1.0000     0.1517     0.9652     0.9652     0.0000
 14 H      0.8464     1.0000     0.1536     0.9636     0.9636     0.0000
 15 H      0.8496     1.0000     0.1504     0.9657     0.9657     0.0000
 16 H      0.8433     1.0000     0.1567     0.9618     0.9618     0.0000
 17 H      0.8496     1.0000     0.1504     0.9657     0.9657    -0.0000
 18 H      0.8433     1.0000     0.1567     0.9618     0.9618    -0.0000
 19 H      0.8464     1.0000     0.1536     0.9636     0.9636    -0.0000

  Mayer bond orders larger than 0.100000
B(  0-C ,  1-C ) :   0.8872 B(  0-C ,  6-H ) :   0.9837 B(  0-C ,  7-H ) :   0.9712 
B(  0-C ,  8-H ) :   0.9837 B(  1-C ,  2-C ) :   0.8977 B(  1-C ,  9-H ) :   0.9740 
B(  1-C , 10-H ) :   0.9740 B(  2-C ,  3-C ) :   0.9337 B(  2-C ,  4-C ) :   0.9208 
B(  2-C ,  5-C ) :   0.9209 B(  3-C , 11-H ) :   0.9781 B(  3-C , 12-H ) :   0.9793 
B(  3-C , 13-H ) :   0.9781 B(  4-C , 14-H ) :   0.9748 B(  4-C , 15-H ) :   0.9720 
B(  4-C , 16-H ) :   0.9768 B(  5-C , 17-H ) :   0.9720 B(  5-C , 18-H ) :   0.9768 
B(  5-C , 19-H ) :   0.9748 

-------
TIMINGS
-------

Total SCF time: 0 days 0 hours 0 min 13 sec 

Total time                  ....      13.989 sec
Sum of individual times     ....      13.640 sec  ( 97.5%)

SCF preparation             ....       0.164 sec  (  1.2%)
Fock matrix formation       ....      12.859 sec  ( 91.9%)
  Startup                   ....       0.042 sec  (  0.3% of F)
  Split-RI-J                ....       2.136 sec  ( 16.6% of F)
  XC integration            ....      10.332 sec  ( 80.3% of F)
    XC Preparation          ....       0.000 sec  (  0.0% of XC)
    Basis function eval.    ....       1.811 sec  ( 17.5% of XC)
    Density eval.           ....       3.115 sec  ( 30.2% of XC)
    XC-Functional eval.     ....       1.268 sec  ( 12.3% of XC)
    XC-Potential eval.      ....       3.518 sec  ( 34.0% of XC)
Diagonalization             ....       0.000 sec  (  0.0%)
Density matrix formation    ....       0.141 sec  (  1.0%)
Total Energy calculation    ....       0.021 sec  (  0.1%)
Population analysis         ....       0.099 sec  (  0.7%)
Orbital Transformation      ....       0.047 sec  (  0.3%)
Orbital Orthonormalization  ....       0.000 sec  (  0.0%)
DIIS solution               ....       0.265 sec  (  1.9%)
  MO trafo                  ....       0.000 sec  (  0.0 % of DIIS)
  Orb grad                  ....       0.000 sec  (  0.0 % of DIIS)
  Energy W gradient         ....       0.000 sec  (  0.0 % of DIIS)
  DIIS error                ....       0.006 sec  (  2.1 % of DIIS)
  DIIS work                 ....       0.222 sec  ( 83.8 % of DIIS)
  Form Q                    ....       0.000 sec  (  0.0 % of DIIS)
  Form QpQm                 ....       0.000 sec  (  0.0 % of DIIS)
  Exp/Cayley                ....       0.000 sec  (  0.0 % of DIIS)
  Orb update                ....       0.000 sec  (  0.0 % of DIIS)
  Wake-sleep                ....       0.014 sec  (  5.1 % of DIIS)
SOSCF solution              ....       0.043 sec  (  0.3%)
  MO trafo                  ....       0.033 sec  ( 78.0 % of SOSCF)
  Orb grad                  ....       0.001 sec  (  1.3 % of SOSCF)
  Rot update                ....       0.000 sec  (  0.1 % of SOSCF)
  Step                      ....       0.009 sec  ( 20.5 % of SOSCF)
Finished LeanSCF after  15.0 sec

Maximum memory used throughout the entire LEANSCF-calculation: 21.0 MB


-------------------------------------------------------------------------------
                          DFT DISPERSION CORRECTION                            
                                                                               
                                DFTD4 V3.4.0                                   
-------------------------------------------------------------------------------
The R2SCAN3C composite method is recognized
Using three-body term ABC
Active option DFTDOPT                   ...         5   

-------------------------   ----------------
Dispersion correction           -0.005389107
-------------------------   ----------------

------------------   -----------------
gCP correction             0.009923021
------------------   -----------------

-------------------------   --------------------
FINAL SINGLE POINT ENERGY      -236.991098312472
-------------------------   --------------------


------------------------------------------------------------------------------
                              ORCA PROPERTY CALCULATIONS
------------------------------------------------------------------------------

GBWName                                 ... sp_gas.gbw
Number of atoms                         ...     20
Number of basis functions               ...    184
Max core memory                         ...   1024 MB

Electric properties:
Dipole moment                           ... YES
Quadrupole moment                       ...  NO
Static polarizability (Dipole/Dipole)   ...  NO
Static polarizability (Dipole/Quad.)    ...  NO
Static polarizability (Quad./Quad.)     ...  NO
Static polarizability (Velocity)        ...  NO

Atomic electric properties:
Dipole moment                           ...  NO
Quadrupole moment                       ...  NO
Static polarizability                   ...  NO

Choice of electric origin               ... Center of mass
Position of electric origin             ...    -0.000001    -0.000001    -0.000000

General magnetic properties:
Magnetizability                         ...  NO

EPR properties:
g-Tensor (aka g-matrix)                 ...  NO
Zero-Field splitting spin-orbit         ...  NO
Zero-field splitting spin-spin          ...  NO
Hyperfine couplings                     ...  NO (   0 nuclei)
Quadrupole couplings                    ...  NO (   0 nuclei)
Contact density                         ...  NO (   0 nuclei)

NMR properties:
Chemical shifts                         ...  NO (   0 nuclei)
Spin-rotation constants                 ...  NO (   0 nuclei)
Spin-spin couplings                     ...  NO (   0 nuclei,    0 pairs)

Choice of magnetic origin               ... GIAO
Position of magnetic origin             ...     0.000000     0.000000     0.000000

Properties with geometric perturbations:
SCF Hessian                             ...  NO
IR spectrum                             ...  NO
VCD spectrum                            ...  NO
X-ray spectroscopy properties:
SCF XES/XAS/RIXS spectra                ...  NO


-------------
DIPOLE MOMENT
-------------

Method             : SCF
Type of density    : Electron Density
Multiplicity       :   1
Irrep              :   0
Energy             :  -236.9956322262354433 Eh
Relativity type    : 
Basis              : AO
                                X                 Y                 Z
Electronic contribution:      0.236229078       0.531456716       0.000130324
Nuclear contribution   :     -0.250753514      -0.511914419      -0.000133902
                        -----------------------------------------
Total Dipole Moment    :     -0.014524436       0.019542298      -0.000003578
                        -----------------------------------------
Magnitude (a.u.)       :      0.024348730
Magnitude (Debye)      :      0.061889554



--------------------
Rotational spectrum 
--------------------
 
Rotational constants in cm-1:             0.144339             0.084049             0.083737 
Rotational constants in MHz :          4327.163901          2519.735126          2510.357552 

Dipole components along the rotational axes: 
x,y,z [a.u.] :     0.014524     0.019542    -0.000004 
x,y,z [Debye]:     0.036918     0.049673    -0.000009 

 

Dipole moment calculation done in   0.0 sec 

Maximum memory used throughout the entire PROP-calculation: 11.3 MB

--------------------------------
SUGGESTED CITATIONS FOR THIS RUN
--------------------------------

Below you find a list of papers that are relevant to this ORCA run
We neither can nor want to force you to cite these papers, but we appreciate if you do
You receive ORCA, which is the product of decades of hard work by many enthusiastic individuals, for free
The only thing we kindly ask in return is that you cite our papers,
We deeply appreciate it, if you show your appreciation for ORCA by not just citing the generic ORCA reference.

Please note that relegating all ORCA citations to the supporting information does *not* help us.
SI sections are not indexed - citations you put there will not count into any citation statistics
But we need these citations in order to attract the funding resources that allow us to do what we are doing

Therefore, if you are a happy ORCA user, please consider citing a few of the papers listed below in the main body of your paper

In addition to the list printed below, the program has created the file sp_gas.bibtex that contains the list in bibtex format
You can import this file easily into all common literature databanks and citation aid programs


List of essential papers. We consider these as the minimum necessary citations

  1. Neese,F.
     Software update: the ORCA program system, version 5.0
     WIRES Comput. Molec. Sci., 2022 12(1)e1606
     doi.org/10.1002/wcms.1606
  2. Grimme,S.; Hansen,A.; Ehlert,S.; Mewes,J.
     r2SCAN-3c: A 'Swiss army knife' composite electronic-structure method
     J. Chem. Phys., 2021 154 064103
     doi.org/10.1063/5.0040021

List of papers to cite with high priority. The work reported in these papers was absolutely
necessary for this run to complete.
Our perspective: the developers of density functionals and basis sets usually get cited in chemistry papers
Good! But without the algorithms to do something with them, the functionals or basis sets would not do anything.
Hence, in our opinion, the algorithm design and method developments papers are equally worthy of getting cited

  1. Neese,F.
     An improvement of the resolution of the identity approximation for the formation of the Coulomb matrix
     J. Comp. Chem., 2003 24(14)1740-1747
     doi.org/10.1002/jcc.10318
  2. Neese,F.
     The SHARK Integral Generation and Digestion System
     J. Comp. Chem., 2022  1-16
     doi.org/10.1002/jcc.26942
  3. Lehtola,S.; Steigemann,C.; Oliveira,M.; Marques,M.
     Recent developments in Libxc - A comprehensive library of functionals for density functional theory
     Software X, 2018 7 
     doi.org/10.1016/j.softx.2017.11.002
  4. Caldeweyher,E.; Bannwarth,C.; Grimme,S.
     Extension of the D3 dispersion coefficient model
     J. Chem. Phys., 2017 147 034112-XXXX
     doi.org/10.1063/1.4993215
  5. Caldeweyher,E.; Ehlert,S.; Hansen,A.; Neugebauer,H.; Spicher,S.; Bannwarth,C.; Grimme,S.
     A generally applicable atomic-charge dependent London dispersion correction
     J. Chem. Phys., 2019 150 154122-XXXX
     doi.org/10.1063/1.5090222
  6. Caldeweyher,E.; Mewes,J.; Ehlert,S.; Grimme,S.
     Extension and evaluation of the D4 London-dispersion model for periodic systems
     Phys. Chem. Chem. Phys., 2020 22(16)8499-8512
     doi.org/10.1039/D0CP00502A

List of suggested additional citations. These are papers that are important in the 'surrounding' of 
of this run, or papers that preceded the highly important papers. If you like your results we are grateful for a citation.

  1. Neese,F.
     The ORCA program system
     WIRES Comput. Molec. Sci., 2012 2(1)73-78
     doi.org/10.1002/wcms.81
  2. Neese,F.
     Software update: the ORCA program system, version 4.0
     WIRES Comput. Molec. Sci., 2018 8(1)1-6
     doi.org/10.1002/wcms.1327
  3. Neese,F.; Wennmohs,F.; Becker,U.; Riplinger,C.
     The ORCA quantum chemistry program package
     J. Chem. Phys., 2020 152 Art. No. L224108
     doi.org/10.1063/5.0004608

List of optional additional citations

  1. Neese,F.
     Approximate second-order SCF convergence for spin unrestricted wavefunctions
     Chem. Phys. Lett., 2000 325(1-3)93-98
     doi.org/10.1016/s0009-2614(00)00662-x

Timings for individual modules:

Sum of individual times          ...       16.456 sec (=   0.274 min)
Startup calculation              ...        1.076 sec (=   0.018 min)   6.5 %
SCF iterations                   ...       15.278 sec (=   0.255 min)  92.8 %
Property calculations            ...        0.103 sec (=   0.002 min)   0.6 %
                             ****ORCA TERMINATED NORMALLY****
TOTAL RUN TIME: 0 days 0 hours 0 minutes 17 seconds 60 msec
