      -----------------------------------------------------------      
     |                   =====================                   |     
     |                           x T B                           |     
     |                   =====================                   |     
     |                         S. Grimme                         |     
     |          Mulliken Center for Theoretical Chemistry        |     
     |                    University of Bonn                     |     
      -----------------------------------------------------------      

   * xtb version 6.7.1 (edcfbbe) compiled by 'albert@albert-system' on 2024-07-22

   xtb is free software: you can redistribute it and/or modify it under
   the terms of the GNU Lesser General Public License as published by
   the Free Software Foundation, either version 3 of the License, or
   (at your option) any later version.
   
   xtb is distributed in the hope that it will be useful,
   but WITHOUT ANY WARRANTY; without even the implied warranty of
   MERCHANTABILITY or FITNESS FOR A PARTICULAR PURPOSE.  See the
   GNU Lesser General Public License for more details.
   
   Cite this work as:
   * C. Bannwarth, E. Caldeweyher, S. Ehlert, A. Hansen, P. Pracht,
     J. Seibert, S. Spicher, S. Grimme, WIREs Comput. Mol. Sci., 2020, 11,
     e01493. DOI: 10.1002/wcms.1493
   
   for GFN2-xTB:
   * C. Bannwarth, S. Ehlert and S. Grimme., J. Chem. Theory Comput., 2019,
     15, 1652-1671. DOI: 10.1021/acs.jctc.8b01176
   for GFN1-xTB:
   * S. Grimme, C. Bannwarth, P. Shushkov, J. Chem. Theory Comput., 2017,
     13, 1989-2009. DOI: 10.1021/acs.jctc.7b00118
   for GFN0-xTB:
   * P. Pracht, E. Caldeweyher, S. Ehlert, S. Grimme, ChemRxiv, 2019, preprint.
     DOI: 10.26434/chemrxiv.8326202.v1
   for GFN-FF:
   * S. Spicher and S. Grimme, Angew. Chem. Int. Ed., 2020, 59, 15665-15673.
     DOI: 10.1002/anie.202004239
   
   for ALPB and GBSA implicit solvation:
   * S. Ehlert, M. Stahn, S. Spicher, S. Grimme, J. Chem. Theory Comput.,
     2021, 17, 4250-4261. DOI: 10.1021/acs.jctc.1c00471
   
   for ddCOSMO and CPCM-X implicit solvation:
   * M. Stahn, S. Ehlert, S. Grimme, J. Phys. Chem. A,
     2023, XX, XXXX-XXXX. DOI: 10.1021/acs.jpca.3c04382
   
   for DFT-D4:
   * E. Caldeweyher, C. Bannwarth and S. Grimme, J. Chem. Phys., 2017,
     147, 034112. DOI: 10.1063/1.4993215
   * E. Caldeweyher, S. Ehlert, A. Hansen, H. Neugebauer, S. Spicher,
     C. Bannwarth and S. Grimme, J. Chem. Phys., 2019, 150, 154122.
     DOI: 10.1063/1.5090222
   * E. Caldeweyher, J.-M. Mewes, S. Ehlert and S. Grimme, Phys. Chem. Chem. Phys.
     2020, 22, 8499-8512. DOI: 10.1039/D0CP00502A
   
   for sTDA-xTB:
   * S. Grimme and C. Bannwarth, J. Chem. Phys., 2016, 145, 054103.
     DOI: 10.1063/1.4959605
   
   in the mass-spec context:
   * V. Asgeirsson, C. Bauer and S. Grimme, Chem. Sci., 2017, 8, 4879.
     DOI: 10.1039/c7sc00601b
   * J. Koopman and S. Grimme, ACS Omega 2019, 4, 12, 15120-15133.
     DOI: 10.1021/acsomega.9b02011
   
   for metadynamics refer to:
   * S. Grimme, J. Chem. Theory Comput., 2019, 155, 2847-2862
     DOI: 10.1021/acs.jctc.9b00143
   
   for SPH calculations refer to:
   * S. Spicher and S. Grimme, J. Chem. Theory Comput., 2021, 17, 1701-1714
     DOI: 10.1021/acs.jctc.0c01306
   
   for ONIOM refer to:
   * C. Plett, A. Katbashev, S. Ehlert, S. Grimme, M. Bursch,
     Phys. Chem. Chem. Phys., 2023, 25, 17860-17868. DOI: 10.1039/D3CP02178E
   
   for DIPRO refer to:
   * J. Kohn, N. Gildemeister, S. Grimme, D. Fazzi, A. Hansen,
     J. Chem. Phys., 2023, just accepted.
   
   for PTB refer to:
   * S. Grimme, M. Mueller, A. Hansen, J. Chem. Phys., 2023, 158, 124111.
     DOI: 10.1063/5.0137838
   
   with help from (in alphabetical order)
   P. Atkinson, C. Bannwarth, F. Bohle, G. Brandenburg, E. Caldeweyher
   M. Checinski, S. Dohm, S. Ehlert, S. Ehrlich, I. Gerasimov, C. Hölzer
   A. Katbashev, J. Kohn, J. Koopman, C. Lavigne, S. Lehtola, F. März, M. Müller,
   F. Musil, H. Neugebauer, J. Pisarek, C. Plett, P. Pracht, F. Pultar,
   J. Seibert, P. Shushkov, S. Spicher, M. Stahn, M. Steiner, T. Strunk,
   J. Stückrath, T. Rose, and J. Unsleber
   
 * started run on 2025/04/06 at 18:00:43.578     
   ID    Z sym.   atoms
    1    6 C      1, 2, 4, 6, 8, 10
    2    1 H      3, 5, 7, 9, 11, 18-24
    3    8 O      12-17

           -------------------------------------------------
          |                Calculation Setup                |
           -------------------------------------------------

          program call               : /srv/scratch/z5358697/.xtb/bin/xtb solv.coord --gfn2 --sp --chrg 0 --norestart --parallel 1 --alpb water reference -I xtb_sp-xcontrol-inp
          hostname                   : k155
          coordinate file            : solv.coord
          omp threads                :                     1


           -------------------------------------------------
          |                 G F N 2 - x T B                 |
           -------------------------------------------------

        Reference                      10.1021/acs.jctc.8b01176
      * Hamiltonian:
        H0-scaling (s, p, d)           1.850000    2.230000    2.230000
        zeta-weighting                 0.500000
      * Dispersion:
        s8                             2.700000
        a1                             0.520000
        a2                             5.000000
        s9                             5.000000
      * Repulsion:
        kExp                           1.500000    1.000000
        rExp                           1.000000
      * Coulomb:
        alpha                          2.000000
        third order                    shell-resolved
        anisotropic                    true
        a3                             3.000000
        a5                             4.000000
        cn-shift                       1.200000
        cn-exp                         4.000000
        max-rad                        5.000000

      * Solvation model:               ALPB
        Solvent                        water
        Parameter file                 internal GFN2-xTB/ALPB
        Dielectric constant                8.0200E+01
        Reference state                gsolv=reference [X=1]
        Free energy shift                  2.8945E-03 Eh       1.8164E+00 kcal/mol
        Temperature                        2.9815E+02 K
        Density                            1.0000E+00 kg/L
        Solvent mass                       1.8000E+01 g/mol
        Interaction kernel             P16
        Born radius scaling (c1)           1.4744E+00
        Born radii integrator          GBOBC
        Born offset                        0.0000E+00 a0       0.0000E+00 AA
        H-bond correction              true
        Ion screening                  false
        Surface tension                    1.0000E-05 Eh       1.5569E+01 dyn/cm
        Grid points                               974 per atom

          ...................................................
          :                      SETUP                      :
          :.................................................:
          :  # basis functions                  60          :
          :  # atomic orbitals                  60          :
          :  # shells                           36          :
          :  # electrons                        72          :
          :  max. iterations                   250          :
          :  Hamiltonian                  GFN2-xTB          :
          :  restarted?                      false          :
          :  GBSA solvation                   true          :
          :  PC potential                    false          :
          :  electronic temp.          300.0000000     K    :
          :  accuracy                    1.0000000          :
          :  -> integral cutoff          0.2500000E+02      :
          :  -> integral neglect         0.1000000E-07      :
          :  -> SCF convergence          0.1000000E-05 Eh   :
          :  -> wf. convergence          0.1000000E-03 e    :
          :  Broyden damping             0.4000000          :
          :  net charge                          0          :
          :  unpaired electrons                  0          :
          ...................................................

 iter      E             dE          RMSdq      gap      omega  full diag
   1    -43.6552801 -0.436553E+02  0.479E+00   10.82       0.0  T
   2    -43.6860082 -0.307281E-01  0.259E+00   10.66       1.0  T
   3    -43.6881555 -0.214724E-02  0.572E-01   10.70       1.0  T
   4    -43.6884464 -0.290920E-03  0.175E-01   10.69       1.0  T
   5    -43.6885006 -0.542090E-04  0.655E-02   10.71       1.0  T
   6    -43.6885162 -0.156044E-04  0.215E-02   10.71       1.0  T
   7    -43.6885170 -0.811267E-06  0.590E-03   10.71       3.5  T
   8    -43.6885172 -0.209985E-06  0.220E-03   10.71       9.3  T
   9    -43.6885172 -0.110340E-07  0.897E-04   10.71      22.8  T
  10    -43.6885172 -0.363693E-08  0.259E-04   10.71      78.7  T

   *** convergence criteria satisfied after 10 iterations ***

         #    Occupation            Energy/Eh            Energy/eV
      -------------------------------------------------------------
         1        2.0000           -0.7247107             -19.7204
       ...           ...                  ...                  ...
        30        2.0000           -0.4543363             -12.3631
        31        2.0000           -0.4476927             -12.1823
        32        2.0000           -0.4419162             -12.0252
        33        2.0000           -0.4279168             -11.6442
        34        2.0000           -0.4216249             -11.4730
        35        2.0000           -0.4127401             -11.2312
        36        2.0000           -0.4081230             -11.1056 (HOMO)
        37                         -0.0146142              -0.3977 (LUMO)
        38                          0.0005021               0.0137
        39                          0.0247295               0.6729
        40                          0.0307268               0.8361
        41                          0.0476654               1.2970
       ...                                ...                  ...
        60                          0.3154991               8.5852
      -------------------------------------------------------------
                  HL-Gap            0.3935088 Eh           10.7079 eV
             Fermi-level           -0.2113686 Eh           -5.7516 eV

 SCC (total)                   0 d,  0 h,  0 min,  0.025 sec
 SCC setup                      ...        0 min,  0.001 sec (  6.031%)
 Dispersion                     ...        0 min,  0.000 sec (  0.563%)
 classical contributions        ...        0 min,  0.000 sec (  0.114%)
 integral evaluation            ...        0 min,  0.003 sec ( 10.855%)
 iterations                     ...        0 min,  0.012 sec ( 50.569%)
 molecular gradient             ...        0 min,  0.008 sec ( 31.269%)
 printout                       ...        0 min,  0.000 sec (  0.552%)

         :::::::::::::::::::::::::::::::::::::::::::::::::::::
         ::                     SUMMARY                     ::
         :::::::::::::::::::::::::::::::::::::::::::::::::::::
         :: total energy             -43.384561569334 Eh    ::
         :: total w/o Gsasa/hb       -43.365032864305 Eh    ::
         :: gradient norm              0.000055954038 Eh/a0 ::
         :: HOMO-LUMO gap             10.707919163543 eV    ::
         ::.................................................::
         :: SCC energy               -43.688323588050 Eh    ::
         :: -> isotropic ES            0.173902677798 Eh    ::
         :: -> anisotropic ES         -0.008588985135 Eh    ::
         :: -> anisotropic XC         -0.009943464641 Eh    ::
         :: -> dispersion             -0.019647886292 Eh    ::
         :: -> Gsolv                  -0.037828561571 Eh    ::
         ::    -> Gelec               -0.018299856541 Eh    ::
         ::    -> Gsasa                0.004593182280 Eh    ::
         ::    -> Ghb                 -0.027016436469 Eh    ::
         ::    -> Gshift               0.002894549160 Eh    ::
         :: repulsion energy           0.303762018716 Eh    ::
         :: add. restraining           0.000000000000 Eh    ::
         :: total charge               0.000000000000 e     ::
         :::::::::::::::::::::::::::::::::::::::::::::::::::::

           -------------------------------------------------
          |                Property Printout                |
           -------------------------------------------------

    * Orbital Energies and Occupations

         #    Occupation            Energy/Eh            Energy/eV
      -------------------------------------------------------------
         1        2.0000           -0.7247107             -19.7204
       ...           ...                  ...                  ...
        24        2.0000           -0.5176923             -14.0871
        25        2.0000           -0.5093903             -13.8612
        26        2.0000           -0.4971149             -13.5272
        27        2.0000           -0.4884267             -13.2908
        28        2.0000           -0.4715437             -12.8314
        29        2.0000           -0.4637052             -12.6181
        30        2.0000           -0.4543363             -12.3631
        31        2.0000           -0.4476927             -12.1823
        32        2.0000           -0.4419162             -12.0252
        33        2.0000           -0.4279168             -11.6442
        34        2.0000           -0.4216249             -11.4730
        35        2.0000           -0.4127401             -11.2312
        36        2.0000           -0.4081230             -11.1056 (HOMO)
        37                         -0.0146142              -0.3977 (LUMO)
        38                          0.0005021               0.0137
        39                          0.0247295               0.6729
        40                          0.0307268               0.8361
        41                          0.0476654               1.2970
        42                          0.0512335               1.3941
        43                          0.0686343               1.8676
        44                          0.0893700               2.4319
        45                          0.0956009               2.6014
        46                          0.1135346               3.0894
        47                          0.1317015               3.5838
       ...                                ...                  ...
        60                          0.3154991               8.5852
      -------------------------------------------------------------
                  HL-Gap            0.3935088 Eh           10.7079 eV
             Fermi-level           -0.2113686 Eh           -5.7516 eV

     #   Z          covCN         q      C6AA      α(0)
     1   6 C        3.675     0.065    19.705     6.361
     2   6 C        3.742     0.089    19.175     6.247
     3   1 H        0.923     0.037     2.485     2.465
     4   6 C        3.727     0.100    19.031     6.229
     5   1 H        0.923     0.045     2.387     2.416
     6   6 C        3.730     0.101    19.006     6.223
     7   1 H        0.923     0.038     2.476     2.461
     8   6 C        3.725     0.095    19.114     6.242
     9   1 H        0.924     0.055     2.253     2.347
    10   6 C        3.617     0.242    17.261     5.993
    11   1 H        0.923     0.039     2.466     2.456
    12   8 O        1.700    -0.363    20.133     6.058
    13   8 O        1.657    -0.516    23.236     6.507
    14   8 O        1.656    -0.513    23.169     6.498
    15   8 O        1.656    -0.505    22.999     6.474
    16   8 O        1.656    -0.500    22.895     6.459
    17   8 O        1.655    -0.494    22.759     6.440
    18   1 H        0.924     0.070     2.083     2.257
    19   1 H        0.924     0.052     2.300     2.372
    20   1 H        0.804     0.390     0.503     1.114
    21   1 H        0.804     0.381     0.521     1.133
    22   1 H        0.804     0.371     0.542     1.157
    23   1 H        0.804     0.363     0.559     1.175
    24   1 H        0.805     0.358     0.569     1.185

 Mol. C6AA /au·bohr⁶  :       4727.541896
 Mol. C8AA /au·bohr⁸  :     100774.832582
 Mol. α(0) /au        :         98.270044


Wiberg/Mayer (AO) data.
largest (>0.10) Wiberg bond orders for each atom

 ---------------------------------------------------------------------------
     #   Z sym  total        # sym  WBO       # sym  WBO       # sym  WBO
 ---------------------------------------------------------------------------
     1   6 C    3.957 --    17 O    1.008     2 C    0.977    18 H    0.968
                            19 H    0.967
     2   6 C    3.940 --     1 C    0.977     4 C    0.964     3 H    0.958
                            12 O    0.953
     3   1 H    0.999 --     2 C    0.958
     4   6 C    3.958 --    16 O    0.998     6 C    0.971     2 C    0.964
                             5 H    0.957
     5   1 H    0.998 --     4 C    0.957
     6   6 C    3.960 --    15 O    1.000     4 C    0.971     8 C    0.964
                             7 H    0.954
     7   1 H    0.999 --     6 C    0.954
     8   6 C    3.958 --    14 O    1.001    10 C    0.966     6 C    0.964
                             9 H    0.957
     9   1 H    0.997 --     8 C    0.957
    10   6 C    3.934 --    13 O    1.001    12 O    0.968     8 C    0.966
                            11 H    0.950
    11   1 H    0.998 --    10 C    0.950
    12   8 O    2.063 --    10 C    0.968     2 C    0.953
    13   8 O    1.926 --    10 C    1.001    20 H    0.833
    14   8 O    1.912 --     8 C    1.001    21 H    0.841
    15   8 O    1.918 --     6 C    1.000    22 H    0.846
    16   8 O    1.924 --     4 C    0.998    23 H    0.851
    17   8 O    1.930 --     1 C    1.008    24 H    0.859
    18   1 H    0.995 --     1 C    0.968
    19   1 H    0.997 --     1 C    0.967
    20   1 H    0.848 --    13 O    0.833
    21   1 H    0.855 --    14 O    0.841
    22   1 H    0.863 --    15 O    0.846
    23   1 H    0.868 --    16 O    0.851
    24   1 H    0.872 --    17 O    0.859
 ---------------------------------------------------------------------------

Topologies differ in total number of bonds
Writing topology from bond orders to xtbtopo.mol

molecular dipole:
                 x           y           z       tot (Debye)
 q only:       -0.207      -0.249      -0.081
   full:       -0.138      -0.412      -0.034       1.107
molecular quadrupole (traceless):
                xx          xy          yy          xz          yz          zz
 q only:       -1.193       1.158       3.408       3.141       6.312      -2.215
  q+dip:       -2.417       1.587       5.978       4.111       8.261      -3.562
   full:       -2.432       1.410       5.707       4.204       8.157      -3.275


           -------------------------------------------------
          | TOTAL ENERGY              -43.384561569334 Eh   |
          | GRADIENT NORM               0.000055954038 Eh/α |
          | HOMO-LUMO GAP              10.707919163543 eV   |
           -------------------------------------------------

------------------------------------------------------------------------
 * finished run on 2025/04/06 at 18:00:43.638     
------------------------------------------------------------------------
 total:
 * wall-time:     0 d,  0 h,  0 min,  0.060 sec
 *  cpu-time:     0 d,  0 h,  0 min,  0.029 sec
 * ratio c/w:     0.489 speedup
 SCF:
 * wall-time:     0 d,  0 h,  0 min,  0.025 sec
 *  cpu-time:     0 d,  0 h,  0 min,  0.020 sec
 * ratio c/w:     0.820 speedup

