      -----------------------------------------------------------      
     |                   =====================                   |     
     |                           x T B                           |     
     |                   =====================                   |     
     |                         S. Grimme                         |     
     |          Mulliken Center for Theoretical Chemistry        |     
     |                    University of Bonn                     |     
      -----------------------------------------------------------      

   * xtb version 6.7.1 (edcfbbe) compiled by 'albert@albert-system' on 2024-07-22

   xtb is free software: you can redistribute it and/or modify it under
   the terms of the GNU Lesser General Public License as published by
   the Free Software Foundation, either version 3 of the License, or
   (at your option) any later version.
   
   xtb is distributed in the hope that it will be useful,
   but WITHOUT ANY WARRANTY; without even the implied warranty of
   MERCHANTABILITY or FITNESS FOR A PARTICULAR PURPOSE.  See the
   GNU Lesser General Public License for more details.
   
   Cite this work as:
   * C. Bannwarth, E. Caldeweyher, S. Ehlert, A. Hansen, P. Pracht,
     J. Seibert, S. Spicher, S. Grimme, WIREs Comput. Mol. Sci., 2020, 11,
     e01493. DOI: 10.1002/wcms.1493
   
   for GFN2-xTB:
   * C. Bannwarth, S. Ehlert and S. Grimme., J. Chem. Theory Comput., 2019,
     15, 1652-1671. DOI: 10.1021/acs.jctc.8b01176
   for GFN1-xTB:
   * S. Grimme, C. Bannwarth, P. Shushkov, J. Chem. Theory Comput., 2017,
     13, 1989-2009. DOI: 10.1021/acs.jctc.7b00118
   for GFN0-xTB:
   * P. Pracht, E. Caldeweyher, S. Ehlert, S. Grimme, ChemRxiv, 2019, preprint.
     DOI: 10.26434/chemrxiv.8326202.v1
   for GFN-FF:
   * S. Spicher and S. Grimme, Angew. Chem. Int. Ed., 2020, 59, 15665-15673.
     DOI: 10.1002/anie.202004239
   
   for ALPB and GBSA implicit solvation:
   * S. Ehlert, M. Stahn, S. Spicher, S. Grimme, J. Chem. Theory Comput.,
     2021, 17, 4250-4261. DOI: 10.1021/acs.jctc.1c00471
   
   for ddCOSMO and CPCM-X implicit solvation:
   * M. Stahn, S. Ehlert, S. Grimme, J. Phys. Chem. A,
     2023, XX, XXXX-XXXX. DOI: 10.1021/acs.jpca.3c04382
   
   for DFT-D4:
   * E. Caldeweyher, C. Bannwarth and S. Grimme, J. Chem. Phys., 2017,
     147, 034112. DOI: 10.1063/1.4993215
   * E. Caldeweyher, S. Ehlert, A. Hansen, H. Neugebauer, S. Spicher,
     C. Bannwarth and S. Grimme, J. Chem. Phys., 2019, 150, 154122.
     DOI: 10.1063/1.5090222
   * E. Caldeweyher, J.-M. Mewes, S. Ehlert and S. Grimme, Phys. Chem. Chem. Phys.
     2020, 22, 8499-8512. DOI: 10.1039/D0CP00502A
   
   for sTDA-xTB:
   * S. Grimme and C. Bannwarth, J. Chem. Phys., 2016, 145, 054103.
     DOI: 10.1063/1.4959605
   
   in the mass-spec context:
   * V. Asgeirsson, C. Bauer and S. Grimme, Chem. Sci., 2017, 8, 4879.
     DOI: 10.1039/c7sc00601b
   * J. Koopman and S. Grimme, ACS Omega 2019, 4, 12, 15120-15133.
     DOI: 10.1021/acsomega.9b02011
   
   for metadynamics refer to:
   * S. Grimme, J. Chem. Theory Comput., 2019, 155, 2847-2862
     DOI: 10.1021/acs.jctc.9b00143
   
   for SPH calculations refer to:
   * S. Spicher and S. Grimme, J. Chem. Theory Comput., 2021, 17, 1701-1714
     DOI: 10.1021/acs.jctc.0c01306
   
   for ONIOM refer to:
   * C. Plett, A. Katbashev, S. Ehlert, S. Grimme, M. Bursch,
     Phys. Chem. Chem. Phys., 2023, 25, 17860-17868. DOI: 10.1039/D3CP02178E
   
   for DIPRO refer to:
   * J. Kohn, N. Gildemeister, S. Grimme, D. Fazzi, A. Hansen,
     J. Chem. Phys., 2023, just accepted.
   
   for PTB refer to:
   * S. Grimme, M. Mueller, A. Hansen, J. Chem. Phys., 2023, 158, 124111.
     DOI: 10.1063/5.0137838
   
   with help from (in alphabetical order)
   P. Atkinson, C. Bannwarth, F. Bohle, G. Brandenburg, E. Caldeweyher
   M. Checinski, S. Dohm, S. Ehlert, S. Ehrlich, I. Gerasimov, C. Hölzer
   A. Katbashev, J. Kohn, J. Koopman, C. Lavigne, S. Lehtola, F. März, M. Müller,
   F. Musil, H. Neugebauer, J. Pisarek, C. Plett, P. Pracht, F. Pultar,
   J. Seibert, P. Shushkov, S. Spicher, M. Stahn, M. Steiner, T. Strunk,
   J. Stückrath, T. Rose, and J. Unsleber
   
 * started run on 2025/04/06 at 18:00:40.423     
   ID    Z sym.   atoms
    1    6 C      1, 2, 4, 6, 8, 10
    2    1 H      3, 5, 7, 9, 11, 18-24
    3    8 O      12-17

           -------------------------------------------------
          |                Calculation Setup                |
           -------------------------------------------------

          program call               : /srv/scratch/z5358697/.xtb/bin/xtb gas.coord --gfn2 --sp --chrg 0 --norestart --parallel 1
          hostname                   : k155
          coordinate file            : gas.coord
          omp threads                :                     1


           -------------------------------------------------
          |                 G F N 2 - x T B                 |
           -------------------------------------------------

        Reference                      10.1021/acs.jctc.8b01176
      * Hamiltonian:
        H0-scaling (s, p, d)           1.850000    2.230000    2.230000
        zeta-weighting                 0.500000
      * Dispersion:
        s8                             2.700000
        a1                             0.520000
        a2                             5.000000
        s9                             5.000000
      * Repulsion:
        kExp                           1.500000    1.000000
        rExp                           1.000000
      * Coulomb:
        alpha                          2.000000
        third order                    shell-resolved
        anisotropic                    true
        a3                             3.000000
        a5                             4.000000
        cn-shift                       1.200000
        cn-exp                         4.000000
        max-rad                        5.000000


          ...................................................
          :                      SETUP                      :
          :.................................................:
          :  # basis functions                  60          :
          :  # atomic orbitals                  60          :
          :  # shells                           36          :
          :  # electrons                        72          :
          :  max. iterations                   250          :
          :  Hamiltonian                  GFN2-xTB          :
          :  restarted?                      false          :
          :  GBSA solvation                  false          :
          :  PC potential                    false          :
          :  electronic temp.          300.0000000     K    :
          :  accuracy                    1.0000000          :
          :  -> integral cutoff          0.2500000E+02      :
          :  -> integral neglect         0.1000000E-07      :
          :  -> SCF convergence          0.1000000E-05 Eh   :
          :  -> wf. convergence          0.1000000E-03 e    :
          :  Broyden damping             0.4000000          :
          :  net charge                          0          :
          :  unpaired electrons                  0          :
          ...................................................

 iter      E             dE          RMSdq      gap      omega  full diag
   1    -43.6285562 -0.436286E+02  0.464E+00   10.14       0.0  T
   2    -43.6591281 -0.305719E-01  0.256E+00    9.96       1.0  T
   3    -43.6603520 -0.122393E-02  0.648E-01    9.93       1.0  T
   4    -43.6610392 -0.687160E-03  0.143E-01    9.92       1.0  T
   5    -43.6610985 -0.593653E-04  0.592E-02    9.95       1.0  T
   6    -43.6611088 -0.103226E-04  0.183E-02    9.96       1.1  T
   7    -43.6611095 -0.637100E-06  0.533E-03    9.95       3.8  T
   8    -43.6611097 -0.226139E-06  0.162E-03    9.95      12.6  T
   9    -43.6611097 -0.321426E-08  0.619E-04    9.95      33.0  T
  10    -43.6611097 -0.283546E-08  0.173E-04    9.95     118.1  T

   *** convergence criteria satisfied after 10 iterations ***

         #    Occupation            Energy/Eh            Energy/eV
      -------------------------------------------------------------
         1        2.0000           -0.7365405             -20.0423
       ...           ...                  ...                  ...
        30        2.0000           -0.4637960             -12.6205
        31        2.0000           -0.4605346             -12.5318
        32        2.0000           -0.4584450             -12.4749
        33        2.0000           -0.4489659             -12.2170
        34        2.0000           -0.4249312             -11.5630
        35        2.0000           -0.4124596             -11.2236
        36        2.0000           -0.4019867             -10.9386 (HOMO)
        37                         -0.0362042              -0.9852 (LUMO)
        38                         -0.0055110              -0.1500
        39                          0.0128307               0.3491
        40                          0.0329943               0.8978
        41                          0.0382235               1.0401
       ...                                ...                  ...
        60                          0.2891633               7.8685
      -------------------------------------------------------------
                  HL-Gap            0.3657825 Eh            9.9534 eV
             Fermi-level           -0.2190954 Eh           -5.9619 eV

 SCC (total)                   0 d,  0 h,  0 min,  0.023 sec
 SCC setup                      ...        0 min,  0.000 sec (  0.819%)
 Dispersion                     ...        0 min,  0.000 sec (  0.605%)
 classical contributions        ...        0 min,  0.000 sec (  0.127%)
 integral evaluation            ...        0 min,  0.003 sec ( 12.389%)
 iterations                     ...        0 min,  0.012 sec ( 52.472%)
 molecular gradient             ...        0 min,  0.008 sec ( 32.925%)
 printout                       ...        0 min,  0.000 sec (  0.601%)

         :::::::::::::::::::::::::::::::::::::::::::::::::::::
         ::                     SUMMARY                     ::
         :::::::::::::::::::::::::::::::::::::::::::::::::::::
         :: total energy             -43.358517961565 Eh    ::
         :: gradient norm              0.014482079769 Eh/a0 ::
         :: HOMO-LUMO gap              9.953449054313 eV    ::
         ::.................................................::
         :: SCC energy               -43.660918227464 Eh    ::
         :: -> isotropic ES            0.136251764145 Eh    ::
         :: -> anisotropic ES         -0.003799917017 Eh    ::
         :: -> anisotropic XC         -0.009925890361 Eh    ::
         :: -> dispersion             -0.019518820385 Eh    ::
         :: repulsion energy           0.302400265900 Eh    ::
         :: add. restraining           0.000000000000 Eh    ::
         :: total charge              -0.000000000000 e     ::
         :::::::::::::::::::::::::::::::::::::::::::::::::::::

           -------------------------------------------------
          |                Property Printout                |
           -------------------------------------------------

    * Orbital Energies and Occupations

         #    Occupation            Energy/Eh            Energy/eV
      -------------------------------------------------------------
         1        2.0000           -0.7365405             -20.0423
       ...           ...                  ...                  ...
        24        2.0000           -0.5214330             -14.1889
        25        2.0000           -0.5087221             -13.8430
        26        2.0000           -0.5023273             -13.6690
        27        2.0000           -0.4905097             -13.3474
        28        2.0000           -0.4829824             -13.1426
        29        2.0000           -0.4738251             -12.8934
        30        2.0000           -0.4637960             -12.6205
        31        2.0000           -0.4605346             -12.5318
        32        2.0000           -0.4584450             -12.4749
        33        2.0000           -0.4489659             -12.2170
        34        2.0000           -0.4249312             -11.5630
        35        2.0000           -0.4124596             -11.2236
        36        2.0000           -0.4019867             -10.9386 (HOMO)
        37                         -0.0362042              -0.9852 (LUMO)
        38                         -0.0055110              -0.1500
        39                          0.0128307               0.3491
        40                          0.0329943               0.8978
        41                          0.0382235               1.0401
        42                          0.0549288               1.4947
        43                          0.0663738               1.8061
        44                          0.0789781               2.1491
        45                          0.0831581               2.2628
        46                          0.1023450               2.7849
        47                          0.1130232               3.0755
       ...                                ...                  ...
        60                          0.2891633               7.8685
      -------------------------------------------------------------
                  HL-Gap            0.3657825 Eh            9.9534 eV
             Fermi-level           -0.2190954 Eh           -5.9619 eV

     #   Z          covCN         q      C6AA      α(0)
     1   6 C        3.676     0.071    19.617     6.346
     2   6 C        3.753     0.089    19.160     6.242
     3   1 H        0.923     0.043     2.407     2.426
     4   6 C        3.726     0.084    19.290     6.271
     5   1 H        0.924     0.061     2.191     2.315
     6   6 C        3.727     0.094    19.116     6.243
     7   1 H        0.924     0.059     2.208     2.324
     8   6 C        3.725     0.087    19.244     6.264
     9   1 H        0.924     0.051     2.313     2.379
    10   6 C        3.631     0.249    17.111     5.956
    11   1 H        0.922     0.016     2.796     2.615
    12   8 O        1.700    -0.357    20.022     6.041
    13   8 O        1.657    -0.431    21.465     6.254
    14   8 O        1.655    -0.454    21.928     6.321
    15   8 O        1.655    -0.437    21.579     6.271
    16   8 O        1.655    -0.440    21.645     6.281
    17   8 O        1.655    -0.428    21.407     6.246
    18   1 H        0.924     0.036     2.497     2.471
    19   1 H        0.924     0.068     2.103     2.268
    20   1 H        0.804     0.317     0.673     1.289
    21   1 H        0.805     0.309     0.695     1.310
    22   1 H        0.804     0.311     0.690     1.305
    23   1 H        0.804     0.308     0.699     1.313
    24   1 H        0.805     0.297     0.729     1.341

 Mol. C6AA /au·bohr⁶  :       4698.513303
 Mol. C8AA /au·bohr⁸  :      99854.940883
 Mol. α(0) /au        :         98.090845


Wiberg/Mayer (AO) data.
largest (>0.10) Wiberg bond orders for each atom

 ---------------------------------------------------------------------------
     #   Z sym  total        # sym  WBO       # sym  WBO       # sym  WBO
 ---------------------------------------------------------------------------
     1   6 C    3.961 --    17 O    1.012     2 C    0.980    19 H    0.968
                            18 H    0.967
     2   6 C    3.939 --     1 C    0.980     4 C    0.960     3 H    0.956
                            12 O    0.954
     3   1 H    0.998 --     2 C    0.956
     4   6 C    3.960 --    16 O    1.010     2 C    0.960     5 H    0.959
                             6 C    0.955
     5   1 H    0.996 --     4 C    0.959
     6   6 C    3.961 --    15 O    1.012     8 C    0.961     7 H    0.959
                             4 C    0.955
     7   1 H    0.996 --     6 C    0.959
     8   6 C    3.952 --    14 O    0.990     9 H    0.963     6 C    0.961
                            10 C    0.957
     9   1 H    0.997 --     8 C    0.963
    10   6 C    3.930 --    13 O    1.017    12 O    0.957     8 C    0.957
                            11 H    0.945
    11   1 H    1.000 --    10 C    0.945
    12   8 O    2.064 --    10 C    0.957     2 C    0.954
    13   8 O    1.986 --    10 C    1.017    20 H    0.881
    14   8 O    1.963 --     8 C    0.990    21 H    0.892
    15   8 O    1.973 --     6 C    1.012    22 H    0.881
    16   8 O    1.971 --     4 C    1.010    23 H    0.880
    17   8 O    1.969 --     1 C    1.012    24 H    0.897
    18   1 H    0.999 --     1 C    0.967
    19   1 H    0.995 --     1 C    0.968
    20   1 H    0.900 --    13 O    0.881
    21   1 H    0.905 --    14 O    0.892
    22   1 H    0.903 --    15 O    0.881
    23   1 H    0.905 --    16 O    0.880
    24   1 H    0.912 --    17 O    0.897
 ---------------------------------------------------------------------------

Topologies differ in total number of bonds
Writing topology from bond orders to xtbtopo.mol

molecular dipole:
                 x           y           z       tot (Debye)
 q only:        0.697      -0.478       0.237
   full:        1.080      -0.844       0.371       3.609
molecular quadrupole (traceless):
                xx          xy          yy          xz          yz          zz
 q only:       -2.930       0.291       2.344       7.882       6.056       0.586
  q+dip:       -4.600       1.043       3.804      12.425       6.325       0.796
   full:       -4.876       0.932       3.871      11.995       7.411       1.005


           -------------------------------------------------
          | TOTAL ENERGY              -43.358517961565 Eh   |
          | GRADIENT NORM               0.014482079769 Eh/α |
          | HOMO-LUMO GAP               9.953449054313 eV   |
           -------------------------------------------------

------------------------------------------------------------------------
 * finished run on 2025/04/06 at 18:00:40.474     
------------------------------------------------------------------------
 total:
 * wall-time:     0 d,  0 h,  0 min,  0.051 sec
 *  cpu-time:     0 d,  0 h,  0 min,  0.027 sec
 * ratio c/w:     0.544 speedup
 SCF:
 * wall-time:     0 d,  0 h,  0 min,  0.023 sec
 *  cpu-time:     0 d,  0 h,  0 min,  0.019 sec
 * ratio c/w:     0.839 speedup

