
                                 *****************
                                 * O   R   C   A *
                                 *****************

                                            #,                                       
                                            ###                                      
                                            ####                                     
                                            #####                                    
                                            ######                                   
                                           ########,                                 
                                     ,,################,,,,,                         
                               ,,#################################,,                 
                          ,,##########################################,,             
                       ,#########################################, ''#####,          
                    ,#############################################,,   '####,        
                  ,##################################################,,,,####,       
                ,###########''''           ''''###############################       
              ,#####''   ,,,,##########,,,,          '''####'''          '####       
            ,##' ,,,,###########################,,,                        '##       
           ' ,,###''''                  '''############,,,                           
         ,,##''                                '''############,,,,        ,,,,,,###''
      ,#''                                            '''#######################'''  
     '                                                          ''''####''''         
             ,#######,   #######,   ,#######,      ##                                
            ,#'     '#,  ##    ##  ,#'     '#,    #''#        ,####,   ,####,        
            ##       ##  ##   ,#'  ##            #'  '#       #'       #'  '#        
            ##       ##  #######   ##           ,######,      #####,   #    #        
            '#,     ,#'  ##    ##  '#,     ,#' ,#      #,     #,   #   #,  ,#        
             '#######'   ##     ##  '#######'  #'      '#     '####' # '####'        



                #########################################################
                #                        -***-                          #
                #          Department of theory and spectroscopy        #
                #                                                       #
                #                      Frank Neese                      #
                #                                                       #
                #     Directorship, Architecture, Infrastructure        #
                #                    SHARK, DRIVERS                     #
                #        Core code/Algorithms in most modules           #
                #                                                       #
                #        Max Planck Institute fuer Kohlenforschung      #
                #                Kaiser Wilhelm Platz 1                 #
                #                 D-45470 Muelheim/Ruhr                 #
                #                      Germany                          #
                #                                                       #
                #                  All rights reserved                  #
                #                        -***-                          #
                #########################################################


                         Program Version 6.0.0  -   RELEASE  -


 With contributions from (in alphabetic order):
   Daniel Aravena         : Magnetic Suceptibility
   Michael Atanasov       : Ab Initio Ligand Field Theory (pilot matlab implementation)
   Alexander A. Auer      : GIAO ZORA, VPT2 properties, NMR spectrum
   Ute Becker             : All parallelization in ORCA, NUMFREQ, NUMCALC
   Giovanni Bistoni       : ED, misc. LED, open-shell LED, HFLD
   Martin Brehm           : Molecular dynamics
   Dmytro Bykov           : pre 5.0 version of the SCF Hessian
   Marcos Casanova-Páez   : Triplet and SCS-CIS(D). UHF-(DLPNO)-IP/EA/STEOM-CCSD. UHF-CVS-IP/STEOM-CCSD
   Vijay G. Chilkuri      : MRCI spin determinant printing, contributions to CSF-ICE
   Pauline Colinet        : FMM embedding
   Dipayan Datta          : RHF DLPNO-CCSD density
   Achintya Kumar Dutta   : EOM-CC, STEOM-CC
   Nicolas Foglia         : Exact transition moments, OPA infrastructure, MCD improvements
   Dmitry Ganyushin       : Spin-Orbit,Spin-Spin,Magnetic field MRCI
   Miquel Garcia          : C-PCM and meta-GGA Hessian, CCSD/C-PCM, Gaussian charge scheme
   Tiago L. C. Gouveia    : GS-ROHF, GS-ROCIS
   Yang Guo               : DLPNO-NEVPT2, F12-NEVPT2, CIM, IAO-localization
   Andreas Hansen         : Spin unrestricted coupled pair/coupled cluster methods
   Ingolf Harden          : AUTO-CI MPn and infrastructure 
   Benjamin Helmich-Paris : MC-RPA, TRAH-(SCF,CASSCF), AVAS, COSX integrals, SCF dyn. polar.
   Lee Huntington         : MR-EOM, pCC
   Robert Izsak           : Overlap fitted RIJCOSX, COSX-SCS-MP3, EOM
   Riya Kayal             : Wick's Theorem for AUTO-CI, AUTO-CI UHF-CCSDT
   Emily Kempfer          : AUTO-CI, RHF CISDT and CCSDT
   Christian Kollmar      : KDIIS, OOCD, Brueckner-CCSD(T), CCSD density, CASPT2, CASPT2-K, improved NEVPT2
   Axel Koslowski         : Symmetry handling
   Simone Kossmann        : Meta GGA functionals, TD-DFT gradient, OOMP2, (MP2 Hessian; deprecated post 5.0)
   Lucas Lang             : DCDCAS
   Marvin Lechner         : AUTO-CI (C++ implementation), FIC-MRCC
   Spencer Leger          : CASSCF response
   Dagmar Lenk            : GEPOL surface, SMD, ORCA-2-JSON
   Dimitrios Liakos       : Extrapolation schemes; Compound Job, initial MDCI parallelization
   Dimitrios Manganas     : Further ROCIS development; embedding schemes. LFT, Crystal Embedding
   Dimitrios Pantazis     : SARC Basis sets
   Anastasios Papadopoulos: AUTO-CI, single reference methods and gradients
   Taras Petrenko         : pre 6.0 DFT Hessian and TD-DFT gradient, (ASA, deprecated), ECA, 1-Electron XAS/XES, NRVS
   Peter Pinski           : DLPNO-MP2, DLPNO-MP2 Gradient
   Christoph Reimann      : Effective Core Potentials
   Marius Retegan         : Local ZFS, SOC
   Christoph Riplinger    : Optimizer, TS searches, QM/MM, DLPNO-CCSD(T), (RO)-DLPNO pert. Triples
   Michael Roemelt        : Original ROCIS implementation
   Masaaki Saitow         : Open-shell DLPNO-CCSD energy and density
   Barbara Sandhoefer     : DKH picture change effects
   Kantharuban Sivalingam : CASSCF convergence/infrastructure, NEVPT2 and variants, FIC-MRCI
   Bernardo de Souza      : ESD, SOC TD-DFT
   Georgi Stoychev        : AutoAux, RI-MP2 NMR, DLPNO-MP2 response, X2C
   Van Anh Tran           : RI-MP2 g-tensors
   Willem Van den Heuvel  : Paramagnetic NMR
   Zikuan Wang            : NOTCH, Electric field optimization 
   Frank Wennmohs         : Technical directorship and infrastructure
   Hang Xu                : AUTO-CI-Response properties 


 We gratefully acknowledge several colleagues who have allowed us to
 interface, adapt or use parts of their codes:
   Stefan Grimme, W. Hujo, H. Kruse, P. Pracht,  : VdW corrections, initial TS optimization,
                  C. Bannwarth, S. Ehlert,         DFT functionals, gCP, sTDA/sTD-DF
                  L. Wittmann, M. Mueller
   Ed Valeev, F. Pavosevic, A. Kumar             : LibInt (2-el integral package), F12 methods
   Garnet Chan, S. Sharma, J. Yang, R. Olivares  : DMRG
   Ulf Ekstrom                                   : XCFun DFT Library
   Mihaly Kallay                                 : mrcc  (arbitrary order and MRCC methods)
   Frank Weinhold                                : gennbo (NPA and NBO analysis)
   Simon Mueller                                 : openCOSMO-RS
   Christopher J. Cramer and Donald G. Truhlar   : smd solvation model
   Lars Goerigk                                  : TD-DFT with DH, B97 family of functionals
   V. Asgeirsson, H. Jonsson                     : NEB implementation
   FAccTs GmbH                                   : IRC, NEB, NEB-TS, DLPNO-Multilevel, CI-OPT
                                                   MM, QMMM, 2- and 3-layer-ONIOM, Crystal-QMMM,
                                                   LR-CPCM, SF, NACMEs, symmetry and pop. for TD-DFT,
                                                   nearIR, NL-DFT gradient (VV10), updates on ESD,
                                                   ML-optimized integration grids, MBIS, APM,
                                                   GOAT, DOCKER, SOLVATOR, interface openCOSMO-RS
   S Lehtola, MJT Oliveira, MAL Marques          : LibXC Library
   Liviu Ungur et al                             : ANISO software


 Your calculation uses the libint2 library for the computation of 2-el integrals
 For citations please refer to: http://libint.valeyev.net

 Your ORCA version has been built with support for libXC version: 6.2.2
 For citations please refer to: https://libxc.gitlab.io

 This ORCA versions uses:
   CBLAS   interface :  Fast vector & matrix operations
   LAPACKE interface :  Fast linear algebra routines
   SCALAPACK package :  Parallel linear algebra routines
   Shared memory     :  Shared parallel matrices
   BLAS/LAPACK       :  OpenBLAS 0.3.27  USE64BITINT DYNAMIC_ARCH NO_AFFINITY SapphireRapids SINGLE_THREADED
        Core in use  :  SapphireRapids
   Copyright (c) 2011-2014, The OpenBLAS Project


Your calculation utilizes the geometrical counterpoise correction gCP
Please cite in your paper:
H.Kruse, S. Grimme J.Chem.Phys., 136, (2012), 154101 
   

Your calculation utilizes the atom-pairwise dispersion correction
based on EEQ partial charges (D4)


================================================================================

----- Orbital basis set information -----
Your calculation utilizes the basis: def2-mTZVPP
   Stefan Grimme, Andreas Hansen, Sebastian Ehlert, and Jan-Michael Mewes 
   J. Chem. Phys. 154, 064103 (2021). DOI: 10.1063/5.0040021

----- AuxJ basis set information -----
Your calculation utilizes the auxiliary basis: def2/J
   F. Weigend, Phys. Chem. Chem. Phys. 8, 1057 (2006).

================================================================================
                                        WARNINGS
                       Please study these warnings very carefully!
================================================================================

Using LibXC functional ID 497 : Re-regularized SCAN exchange by Furness et al
[ 1]  J. W. Furness, A. D. Kaplan, J. Ning, J. P. Perdew, and J. Sun.,  J. Phys. Chem. Lett. 11, 8208-8215 (2020)
[ 2]  J. W. Furness, A. D. Kaplan, J. Ning, J. P. Perdew, and J. Sun.,  J. Phys. Chem. Lett. 11, 9248-9248 (2020)
Using LibXC functional ID 498 : Re-regularized SCAN correlation by Furness et al
[ 1]  J. W. Furness, A. D. Kaplan, J. Ning, J. P. Perdew, and J. Sun.,  J. Phys. Chem. Lett. 11, 8208-8215 (2020)
[ 2]  J. W. Furness, A. D. Kaplan, J. Ning, J. P. Perdew, and J. Sun.,  J. Phys. Chem. Lett. 11, 9248-9248 (2020)
Using LibXC functional ID 497 : Re-regularized SCAN exchange by Furness et al
[ 1]  J. W. Furness, A. D. Kaplan, J. Ning, J. P. Perdew, and J. Sun.,  J. Phys. Chem. Lett. 11, 8208-8215 (2020)
[ 2]  J. W. Furness, A. D. Kaplan, J. Ning, J. P. Perdew, and J. Sun.,  J. Phys. Chem. Lett. 11, 9248-9248 (2020)
Using LibXC functional ID 498 : Re-regularized SCAN correlation by Furness et al
[ 1]  J. W. Furness, A. D. Kaplan, J. Ning, J. P. Perdew, and J. Sun.,  J. Phys. Chem. Lett. 11, 8208-8215 (2020)
[ 2]  J. W. Furness, A. D. Kaplan, J. Ning, J. P. Perdew, and J. Sun.,  J. Phys. Chem. Lett. 11, 9248-9248 (2020)

================================================================================
                                       INPUT FILE
================================================================================
NAME = sp_gas.inp
|  1> ! r2scan-3c def2/J RI DEFGRID2 scfconv6 printgap
|  2> %output
|  3>     printlevel normal
|  4> end
|  5> * xyz 0 1
|  6> C -1.8943868358 -0.6552582221 0.1720355106
|  7> C -0.9502214586 0.4787192732 -0.2046863041
|  8> C 0.5068507116 0.0946574642 -0.0172592617
|  9> O 0.8724089629 -1.0032405665 0.3878108781
| 10> N 1.3806853228 1.0626983583 -0.3327588903
| 11> H -1.7489815351 -0.9355182876 1.212539072
| 12> H -2.9279781981 -0.354269433 0.0265043228
| 13> H -1.6905780288 -1.5321121959 -0.437817481
| 14> H -1.1527146971 1.3557862931 0.4125865476
| 15> H -1.0969441967 0.7559105226 -1.2500952635
| 16> H 1.0729361758 1.9591835456 -0.6664605864
| 17> H 2.3666894053 0.8838913902 -0.2342479602
| 18> *
| 19> 
| 20>                          ****END OF INPUT****
================================================================================

                       ****************************
                       * Single Point Calculation *
                       ****************************

---------------------------------
CARTESIAN COORDINATES (ANGSTROEM)
---------------------------------
  C     -1.894387   -0.655258    0.172036
  C     -0.950221    0.478719   -0.204686
  C      0.506851    0.094657   -0.017259
  O      0.872409   -1.003241    0.387811
  N      1.380685    1.062698   -0.332759
  H     -1.748982   -0.935518    1.212539
  H     -2.927978   -0.354269    0.026504
  H     -1.690578   -1.532112   -0.437817
  H     -1.152715    1.355786    0.412587
  H     -1.096944    0.755911   -1.250095
  H      1.072936    1.959184   -0.666461
  H      2.366689    0.883891   -0.234248

----------------------------
CARTESIAN COORDINATES (A.U.)
----------------------------
  NO LB      ZA    FRAG     MASS         X           Y           Z
   0 C     6.0000    0    12.011   -3.579872   -1.238259    0.325100
   1 C     6.0000    0    12.011   -1.795658    0.904648   -0.386801
   2 C     6.0000    0    12.011    0.957809    0.178877   -0.032615
   3 O     8.0000    0    15.999    1.648614   -1.895850    0.732856
   4 N     7.0000    0    14.007    2.609117    2.008209   -0.628823
   5 H     1.0000    0     1.008   -3.305096   -1.767873    2.291367
   6 H     1.0000    0     1.008   -5.533077   -0.669472    0.050086
   7 H     1.0000    0     1.008   -3.194729   -2.895272   -0.827355
   8 H     1.0000    0     1.008   -2.178315    2.562065    0.779676
   9 H     1.0000    0     1.008   -2.072924    1.428464   -2.362338
  10 H     1.0000    0     1.008    2.027556    3.702320   -1.259428
  11 H     1.0000    0     1.008    4.472395    1.670313   -0.442664

--------------------------------
INTERNAL COORDINATES (ANGSTROEM)
--------------------------------
 C      0   0   0     0.000000000000     0.00000000     0.00000000
 C      1   0   0     1.522915803655     0.00000000     0.00000000
 C      2   1   0     1.518450420174   112.08886695     0.00000000
 O      3   2   1     1.226007642336   123.60056313     0.14562112
 N      3   2   1     1.341726542939   114.42109509   180.16809937
 H      1   2   3     1.087352779493   110.22606473    59.47345558
 H      1   2   3     1.086317026474   110.51366374   180.12139335
 H      1   2   3     1.087350721958   110.21342727   300.74541612
 H      2   1   3     1.091455836248   110.08595949   239.58175152
 H      2   1   3     1.091440535720   110.04146238   120.38721116
 H      5   3   2     1.004864195057   121.48679258   359.81300987
 H      5   3   2     1.006916275515   119.11891709   179.96119225

---------------------------
INTERNAL COORDINATES (A.U.)
---------------------------
 C      0   0   0     0.000000000000     0.00000000     0.00000000
 C      1   0   0     2.877893793928     0.00000000     0.00000000
 C      2   1   0     2.869455442066   112.08886695     0.00000000
 O      3   2   1     2.316818682109   123.60056313     0.14562112
 N      3   2   1     2.535495712768   114.42109509   180.16809937
 H      1   2   3     2.054798964200   110.22606473    59.47345558
 H      1   2   3     2.052841674652   110.51366374   180.12139335
 H      1   2   3     2.054795076023   110.21342727   300.74541612
 H      2   1   3     2.062552617779   110.08595949   239.58175152
 H      2   1   3     2.062523703972   110.04146238   120.38721116
 H      5   3   2     1.898918130441   121.48679258   359.81300987
 H      5   3   2     1.902796000511   119.11891709   179.96119225

---------------------
BASIS SET INFORMATION
---------------------
There are 4 groups of distinct atoms

 Group   1 Type C   : 11s6p1d contracted to 5s3p1d pattern {62111/411/1}
 Group   2 Type O   : 11s6p2d contracted to 5s3p2d pattern {62111/411/11}
 Group   3 Type N   : 11s6p2d contracted to 5s3p2d pattern {62111/411/11}
 Group   4 Type H   : 4s1p contracted to 2s1p pattern {31/1}

Atom   0C    basis set group =>   1
Atom   1C    basis set group =>   1
Atom   2C    basis set group =>   1
Atom   3O    basis set group =>   2
Atom   4N    basis set group =>   3
Atom   5H    basis set group =>   4
Atom   6H    basis set group =>   4
Atom   7H    basis set group =>   4
Atom   8H    basis set group =>   4
Atom   9H    basis set group =>   4
Atom  10H    basis set group =>   4
Atom  11H    basis set group =>   4
---------------------------------
AUXILIARY/J BASIS SET INFORMATION
---------------------------------
There are 4 groups of distinct atoms

 Group   1 Type C   : 12s5p4d2f1g contracted to 6s4p3d1f1g pattern {711111/2111/211/2/1}
 Group   2 Type O   : 12s5p4d2f1g contracted to 6s4p3d1f1g pattern {711111/2111/211/2/1}
 Group   3 Type N   : 12s5p4d2f1g contracted to 6s4p3d1f1g pattern {711111/2111/211/2/1}
 Group   4 Type H   : 5s2p1d contracted to 3s1p1d pattern {311/2/1}

Atom   0C    basis set group =>   1
Atom   1C    basis set group =>   1
Atom   2C    basis set group =>   1
Atom   3O    basis set group =>   2
Atom   4N    basis set group =>   3
Atom   5H    basis set group =>   4
Atom   6H    basis set group =>   4
Atom   7H    basis set group =>   4
Atom   8H    basis set group =>   4
Atom   9H    basis set group =>   4
Atom  10H    basis set group =>   4
Atom  11H    basis set group =>   4

Checking for AutoStart:
The File: sp_gas.gbw exists
Trying to determine its content:
     ... Fine, the file contains calculation information
     ... Fine, the calculation information was read
     ... Fine, the file contains a basis set
     ... Fine, the basis set was read
     ... Fine, the file contains a geometry
     ... Fine, the geometry was read
     ... Fine, the file contains a set of orbitals
     ... Fine, the orbitals can be read
     => possible old guess file was deleted
     => GBW file was renamed to GES file
     => GES file is set as startup file
     => Guess is set to MORead
     ... now leaving AutoStart

------------------------------------------------------------------------------
                             ORCA STARTUP CALCULATIONS
                           -- RI-GTO INTEGRALS CHOSEN --
------------------------------------------------------------------------------
------------------------------------------------------------------------------
                   ___                                                        
                  /   \      - P O W E R E D   B Y -                         
                 /     \                                                     
                 |  |  |   _    _      __       _____    __    __             
                 |  |  |  | |  | |    /  \     |  _  \  |  |  /  |          
                  \  \/   | |  | |   /    \    | | | |  |  | /  /          
                 / \  \   | |__| |  /  /\  \   | |_| |  |  |/  /          
                |  |  |   |  __  | /  /__\  \  |    /   |      \           
                |  |  |   | |  | | |   __   |  |    \   |  |\   \          
                \     /   | |  | | |  |  |  |  | |\  \  |  | \   \       
                 \___/    |_|  |_| |__|  |__|  |_| \__\ |__|  \__/        
                                                                              
                      - O R C A' S   B I G   F R I E N D -                    
                                      &                                       
                       - I N T E G R A L  F E E D E R -                       
                                                                              
 v1 FN, 2020, v2 2021, v3 2022-2024                                           
------------------------------------------------------------------------------


----------------------
SHARK INTEGRAL PACKAGE
----------------------

Number of atoms                             ...     12
Number of basis functions                   ...    140
Number of shells                            ...     68
Maximum angular momentum                    ...      2
Integral batch strategy                     ... SHARK/LIBINT Hybrid
RI-J (if used) integral strategy            ... SPLIT-RIJ (Revised 2003 algorithm where possible)
Printlevel                                  ...      1
Contraction scheme used                     ... SEGMENTED contraction
Prescreening option                         ... SCHWARTZ
   Thresh                                   ... 1.000e-10
   Tcut                                     ... 1.000e-11
   Tpresel                                  ... 1.000e-11 
Coulomb Range Separation                    ... NOT USED
Exchange Range Separation                   ... NOT USED
Multipole approximations                    ... NOT USED
Finite Nucleus Model                        ... NOT USED
CABS basis                                  ... NOT available
Auxiliary Coulomb fitting basis             ... AVAILABLE
   # of basis functions in Aux-J            ...    322
   # of shells in Aux-J                     ...    110
   Maximum angular momentum in Aux-J        ...      4
Auxiliary J/K fitting basis                 ... NOT available
Auxiliary Correlation fitting basis         ... NOT available
Auxiliary 'external' fitting basis          ... NOT available

Checking pre-screening integrals            ... done (  0.0 sec) Dimension = 68
Check shell pair data                       ... done (  0.0 sec)
Shell pair information
Shell pair cut-off parameter TPreSel        ...   1.0e-11
Total number of shell pairs                 ...      2346
Shell pairs after pre-screening             ...      2231
Total number of primitive shell pairs       ...      8259
Primitive shell pairs kept                  ...      6034
          la=0 lb=0:    728 shell pairs
          la=1 lb=0:    814 shell pairs
          la=1 lb=1:    242 shell pairs
          la=2 lb=0:    267 shell pairs
          la=2 lb=1:    152 shell pairs
          la=2 lb=2:     28 shell pairs

Calculating one electron integrals          ... done (  0.0 sec)
Calculating RI/J V-Matrix + Cholesky decomp.... done (  0.0 sec)
Calculating Nuclear repulsion               ... done (  0.0 sec) ENN=    179.595471646295 Eh

Diagonalization of the overlap matrix:
Smallest eigenvalue                        ... 2.147e-04
Time for diagonalization                   ...    0.002 sec
Threshold for overlap eigenvalues          ... 1.000e-07
Number of eigenvalues below threshold      ... 0
Time for construction of square roots      ...    0.015 sec
Total time needed                          ...    0.023 sec

-------------------
DFT GRID GENERATION
-------------------

General Integration Accuracy     IntAcc      ... 4.388
Radial Grid Type                 RadialGrid  ... OptM3 with GC (2021)
Angular Grid (max. ang.)         AngularGrid ... 4 (Lebedev-302)
Angular grid pruning method      GridPruning ... 4 (adaptive)
Weight generation scheme         WeightScheme... mBecke (2022)
Basis function cutoff            BFCut       ... 1.0000e-10
Integration weight cutoff        WCut        ... 1.0000e-14
Partially contracted basis set               ... off
Rotationally invariant grid construction     ... off
Angular grids for H and He will be reduced by one unit
Diffuse basis detected: some atoms will have their outermost
                        angular grid increased by 1.

Total number of grid points                  ...    53237
Total number of batches                      ...      837
Average number of points per batch           ...       63
Average number of grid points per atom       ...     4436
Initializing property integral containers    ... done (  0.0 sec)

SHARK setup successfully completed in   0.6 seconds

Maximum memory used throughout the entire STARTUP-calculation: 23.9 MB
-------------------------------------------------------------------------------
                                 ORCA GUESS
                   Start orbitals & Density for SCF / CASSCF
-------------------------------------------------------------------------------

------------
SCF SETTINGS
------------
Hamiltonian:
 Density Functional     Method          .... DFT(GTOs)
  Functional kind                       .... Exchange
  Functional name                       .... Re-regularized SCAN exchange by Furness et al
  Functional family                     .... MGGA
  Functional refs                              
    [ 0] J. W. Furness, A. D. Kaplan, J. Ning, J. P. Perdew, and J. Sun.,  J. Phys. Chem. Lett. 11, 8208-8215 (2020), doi: 10.1021/acs.jpclett.0c02405
    [ 1] J. W. Furness, A. D. Kaplan, J. Ning, J. P. Perdew, and J. Sun.,  J. Phys. Chem. Lett. 11, 9248-9248 (2020), doi: 10.1021/acs.jpclett.0c03077
  Functional external parameters        .... 6
    Parameter  0 _c1        =  6.670000e-01 : c1 parameter        
    Parameter  1 _c2        =  8.000000e-01 : c2 parameter        
    Parameter  2 _d         =  1.240000e+00 : d parameter         
    Parameter  3 _k1        =  6.500000e-02 : k1 parameter        
    Parameter  4 _eta       =  1.000000e-03 : eta parameter       
    Parameter  5 _dp2       =  3.610000e-01 : dp2 parameter       
  Functional kind                       .... Correlation
  Functional name                       .... Re-regularized SCAN correlation by Furness et al
  Functional family                     .... MGGA
  Functional refs                              
    [ 0] J. W. Furness, A. D. Kaplan, J. Ning, J. P. Perdew, and J. Sun.,  J. Phys. Chem. Lett. 11, 8208-8215 (2020), doi: 10.1021/acs.jpclett.0c02405
    [ 1] J. W. Furness, A. D. Kaplan, J. Ning, J. P. Perdew, and J. Sun.,  J. Phys. Chem. Lett. 11, 9248-9248 (2020), doi: 10.1021/acs.jpclett.0c03077
  Functional external parameters        .... 1
    Parameter  0 _eta       =  1.000000e-03 : Regularization parameter
 Gradients option       PostSCFGGA      .... off
 RI-approximation to the Coulomb term is turned on
   Number of AuxJ basis functions       .... 322


General Settings:
 Integral files         IntName         .... sp_gas
 Hartree-Fock type      HFTyp           .... RHF
 Total Charge           Charge          ....    0
 Multiplicity           Mult            ....    1
 Number of Electrons    NEL             ....   40
 Basis Dimension        Dim             ....  140
 Nuclear Repulsion      ENuc            ....    179.5954716463 Eh

Convergence Acceleration:
 AO-DIIS                CNVDIIS         .... on
   Start iteration      DIISMaxIt       ....    12
   Startup error        DIISStart       ....  0.200000
   # of expansion vecs  DIISMaxEq       ....     5
   Bias factor          DIISBfac        ....   1.050
   Max. coefficient     DIISMaxC        ....  10.000
 MO-DIIS                CNVKDIIS        .... off
 Trust-Rad. Augm. Hess. CNVTRAH         .... auto
   Auto Start mean grad. ratio tolernc. ....  1.125000
   Auto Start start iteration           ....     1
   Auto Start num. interpolation iter.  ....    10
   Max. Number of Micro iterations      ....    24
   Max. Number of Macro iterations      .... Maxiter - #DIIS iter
   Number of Davidson start vectors     ....     2
   Converg. threshold    (grad. norm)   ....   3.330e-04
   Grad. Scal. Fac. for Micro threshold ....   0.100
   Minimum threshold for Micro iter.    ....   1.000e-02
   NR start threshold (gradient norm)   ....   1.000e-04
   Initial trust radius                 ....   0.400
   Minimum AH scaling param. (alpha)    ....   1.000
   Maximum AH scaling param. (alpha)    .... 1000.000
   Quad. conv. algorithm                .... NR
   White noise on init. David. guess    .... on
   Maximum white noise                  ....   0.010
   Pseudo random numbers                .... off
   Inactive MOs                         .... canonical
   Orbital update algorithm             .... Taylor
   Preconditioner                       .... Diag
   Full preconditioner red. dimension   ....   250
   COSX micro iterations for RIJONX calc.... off
 SOSCF                  CNVSOSCF        .... on
   Start iteration      SOSCFMaxIt      ....   150
   Startup grad/error   SOSCFStart      ....  0.003300
   Hessian update       SOSCFHessUp     .... L-BFGS
 Level Shifting         CNVShift        .... on
   Level shift para.    LevelShift      ....    0.2500
   Turn off err/grad.   ShiftErr        ....    0.0010
 Zerner damping         CNVZerner       .... off
 Static damping         CNVDamp         .... on
   Fraction old density DampFac         ....    0.7000
   Max. Damping (<1)    DampMax         ....    0.9800
   Min. Damping (>=0)   DampMin         ....    0.0000
   Turn off err/grad.   DampErr         ....    0.1000

SCF Procedure:
 Maximum # iterations   MaxIter         ....   125
 SCF integral mode      SCFMode         .... Direct
   Integral package                     .... SHARK and LIBINT hybrid scheme
 Reset frequency        DirectResetFreq ....    20
 Integral Threshold     Thresh          ....  1.000e-10 Eh
 Primitive CutOff       TCut            ....  1.000e-11 Eh

Convergence Tolerance:
 Convergence Check Mode ConvCheckMode   .... Total+1el-Energy
 Convergence forced     ConvForced      .... 0
 Energy Change          TolE            ....  1.000e-06 Eh
 1-El. energy change                    ....  1.000e-03 Eh
 Orbital Gradient       TolG            ....  3.330e-04
 Orbital Rotation angle TolX            ....  3.330e-04
 DIIS Error             TolErr          ....  1.000e-06

---------------------
INITIAL GUESS: MOREAD
---------------------
Guess MOs are being read from file: sp_gas.ges
Input Geometry matches current geometry (good)
Atom 0: N(Shells)= 9 and 6 - projection required
Input basis set needs projection
NBasis(read)= 84
NBasis(calc)= 140
Basis set overlap was calculated
Using GuessMode=FMatrix for the initial guess
C*T matrix was formed
Effective Fockian was calculated
Effective Fockian was diagonalized
Initial density was built
                      ------------------
                      INITIAL GUESS DONE (   0.0 sec)
                      ------------------
             **** ENERGY FILE WAS UPDATED (sp_gas.en.tmp) ****
Finished Guess after   0.2 sec
Maximum memory used throughout the entire GUESS-calculation: 9.7 MB

-------------------------------------------------------------------------------------------
                                      ORCA LEAN-SCF
                              memory conserving SCF solver
-------------------------------------------------------------------------------------------

----------------------------------------D-I-I-S--------------------------------------------
Iteration    Energy (Eh)           Delta-E    RMSDP     MaxDP     DIISErr   Damp  Time(sec)
-------------------------------------------------------------------------------------------
               ***  Starting incremental Fock matrix formation  ***
    1    -248.3451406914331017     0.00e+00  4.88e-03  1.21e-01  6.24e-01  0.700   1.0
    2    -248.3847124735454202    -3.96e-02  3.94e-03  9.49e-02  4.38e-01  0.700   0.9
    3    -248.4127631794008551    -2.81e-02  2.89e-03  7.00e-02  3.07e-01  0.700   0.9
    4    -248.4324846608930386    -1.97e-02  2.08e-03  5.02e-02  2.15e-01  0.700   0.9
                               ***Turning on AO-DIIS***
    5    -248.4463326106234433    -1.38e-02  1.51e-03  3.62e-02  1.51e-01  0.700   0.9
    6    -248.4560461730453369    -9.71e-03  1.08e-03  2.56e-02  1.05e-01  0.700   0.9
    7    -248.4628604056358370    -6.81e-03  7.61e-04  1.81e-02  7.38e-02  0.700   0.8
    8    -248.4676367545324922    -4.78e-03  1.79e-03  4.24e-02  5.17e-02  0.000   0.8
                              *** Initializing SOSCF ***
---------------------------------------S-O-S-C-F--------------------------------------
Iteration    Energy (Eh)           Delta-E    RMSDP     MaxDP     MaxGrad    Time(sec)
--------------------------------------------------------------------------------------
    9    -248.4788029094805495    -1.12e-02  1.27e-05  2.12e-04  2.46e-04     0.9
               *** Restarting incremental Fock matrix formation ***
   10    -248.4788029237955413    -1.43e-08  2.76e-05  1.17e-03  1.38e-04     0.9
   11    -248.4788022608121025     6.63e-07  1.86e-05  7.17e-04  3.73e-04     0.8
                 **** Energy Check signals convergence ****

               *****************************************************
               *                     SUCCESS                       *
               *           SCF CONVERGED AFTER  11 CYCLES          *
               *****************************************************

             **** ENERGY FILE WAS UPDATED (sp_gas.en.tmp) ****

----------------
TOTAL SCF ENERGY
----------------

Total Energy       :       -248.47880226081210 Eh           -6761.45196 eV

Components:
Nuclear Repulsion  :        179.59547164629512 Eh            4887.04124 eV
Electronic Energy  :       -428.07427390710723 Eh          -11648.49319 eV
One Electron Energy:       -692.47698578893915 Eh          -18843.25676 eV
Two Electron Energy:        264.40271188183192 Eh            7194.76357 eV

Virial components:
Potential Energy   :       -495.95704133732943 Eh          -13495.67720 eV
Kinetic Energy     :        247.47823907651730 Eh            6734.22525 eV
Virial Ratio       :          2.00404303500796

DFT components:
N(Alpha)           :       20.000001451936 electrons
N(Beta)            :       20.000001451936 electrons
N(Total)           :       40.000002903872 electrons
E(X)               :      -33.050914286535 Eh       
E(C)               :       -1.279551027900 Eh       
E(XC)              :      -34.330465314435 Eh       

---------------
SCF CONVERGENCE
---------------

  Last Energy change         ...   -6.6298e-07  Tolerance :   1.0000e-06
  Last MAX-Density change    ...    7.1691e-04  Tolerance :   1.0000e-05
  Last RMS-Density change    ...    1.8558e-05  Tolerance :   1.0000e-06
  Last DIIS Error            ...    2.4644e-04  Tolerance :   1.0000e-06
  Last Orbital Gradient      ...    3.7343e-04  Tolerance :   3.3300e-04
  Last Orbital Rotation      ...    4.4418e-04  Tolerance :   3.3300e-04


----------------
ORBITAL ENERGIES
----------------

  NO   OCC          E(Eh)            E(eV) 
   0   2.0000     -18.909857      -514.5634 
   1   2.0000     -14.182666      -385.9300 
   2   2.0000     -10.127734      -275.5896 
   3   2.0000     -10.042254      -273.2636 
   4   2.0000     -10.017602      -272.5928 
   5   2.0000      -0.994812       -27.0702 
   6   2.0000      -0.876627       -23.8542 
   7   2.0000      -0.743214       -20.2239 
   8   2.0000      -0.623805       -16.9746 
   9   2.0000      -0.547282       -14.8923 
  10   2.0000      -0.506417       -13.7803 
  11   2.0000      -0.448003       -12.1908 
  12   2.0000      -0.438541       -11.9333 
  13   2.0000      -0.378625       -10.3029 
  14   2.0000      -0.360887        -9.8202 
  15   2.0000      -0.343497        -9.3470 
  16   2.0000      -0.329130        -8.9561 
  17   2.0000      -0.315285        -8.5794 
  18   2.0000      -0.245051        -6.6682 
  19   2.0000      -0.216771        -5.8986 
  20   0.0000       0.000734         0.0200 
  21   0.0000       0.064008         1.7417 
  22   0.0000       0.097804         2.6614 
  23   0.0000       0.127659         3.4738 
  24   0.0000       0.150589         4.0977 
  25   0.0000       0.155190         4.2229 
  26   0.0000       0.167138         4.5481 
  27   0.0000       0.182923         4.9776 
  28   0.0000       0.191431         5.2091 
  29   0.0000       0.202277         5.5042 
  30   0.0000       0.204215         5.5570 
*Only the first 10 virtual orbitals were printed.

                    ********************************
                    * MULLIKEN POPULATION ANALYSIS *
                    ********************************

-----------------------
MULLIKEN ATOMIC CHARGES
-----------------------
   0 C :   -0.475630
   1 C :   -0.275101
   2 C :    0.286621
   3 O :   -0.416202
   4 N :   -0.374023
   5 H :    0.158828
   6 H :    0.139911
   7 H :    0.159076
   8 H :    0.149923
   9 H :    0.150100
  10 H :    0.252053
  11 H :    0.244444
Sum of atomic charges:   -0.0000000

--------------------------------
MULLIKEN REDUCED ORBITAL CHARGES
--------------------------------
  0 C s       :     3.327379  s :     3.327379
      pz      :     1.101280  p :     3.121739
      px      :     1.026449
      py      :     0.994010
      dz2     :     0.006480  d :     0.026513
      dxz     :     0.001747
      dyz     :     0.006037
      dx2y2   :     0.006515
      dxy     :     0.005735

  1 C s       :     3.155266  s :     3.155266
      pz      :     1.074195  p :     3.084393
      px      :     0.970840
      py      :     1.039358
      dz2     :     0.007582  d :     0.035442
      dxz     :     0.003547
      dyz     :     0.006879
      dx2y2   :     0.010593
      dxy     :     0.006840

  2 C s       :     3.083656  s :     3.083656
      pz      :     0.773394  p :     2.516378
      px      :     0.959141
      py      :     0.783843
      dz2     :     0.011166  d :     0.113344
      dxz     :     0.012505
      dyz     :     0.021451
      dx2y2   :     0.028483
      dxy     :     0.039739

  3 O s       :     3.843070  s :     3.843070
      pz      :     1.450346  p :     4.551857
      px      :     1.754690
      py      :     1.346821
      dz2     :     0.003619  d :     0.021275
      dxz     :     0.002309
      dyz     :     0.007326
      dx2y2   :     0.006213
      dxy     :     0.001808

  4 N s       :     3.405132  s :     3.405132
      pz      :     1.646283  p :     3.936384
      px      :     1.129487
      py      :     1.160614
      dz2     :     0.003672  d :     0.032507
      dxz     :     0.004339
      dyz     :     0.006026
      dx2y2   :     0.011914
      dxy     :     0.006556

  5 H s       :     0.822857  s :     0.822857
      pz      :     0.010417  p :     0.018314
      px      :     0.003712
      py      :     0.004185

  6 H s       :     0.841744  s :     0.841744
      pz      :     0.003879  p :     0.018345
      px      :     0.010368
      py      :     0.004098

  7 H s       :     0.822608  s :     0.822608
      pz      :     0.005794  p :     0.018316
      px      :     0.003852
      py      :     0.008670

  8 H s       :     0.831862  s :     0.831862
      pz      :     0.005937  p :     0.018215
      px      :     0.003944
      py      :     0.008334

  9 H s       :     0.831683  s :     0.831683
      pz      :     0.010326  p :     0.018216
      px      :     0.003808
      py      :     0.004083

 10 H s       :     0.715064  s :     0.715064
      pz      :     0.011013  p :     0.032884
      px      :     0.005430
      py      :     0.016441

 11 H s       :     0.722723  s :     0.722723
      pz      :     0.009420  p :     0.032832
      px      :     0.018277
      py      :     0.005136


------------------------
MULLIKEN OVERLAP CHARGES
------------------------
B(  0-C ,  1-C ) :   0.3175 B(  0-C ,  2-C ) :  -0.0529 B(  0-C ,  3-O ) :   0.1103 
B(  0-C ,  4-N ) :   0.0548 B(  0-C ,  5-H ) :   0.8394 B(  0-C ,  6-H ) :   0.8109 
B(  0-C ,  7-H ) :   0.8393 B(  1-C ,  2-C ) :   0.3561 B(  1-C ,  3-O ) :  -0.3603 
B(  1-C ,  4-N ) :  -0.4748 B(  1-C ,  5-H ) :  -0.0551 B(  1-C ,  6-H ) :  -0.0883 
B(  1-C ,  7-H ) :  -0.0549 B(  1-C ,  8-H ) :   0.7496 B(  1-C ,  9-H ) :   0.7487 
B(  2-C ,  3-O ) :   1.3040 B(  2-C ,  4-N ) :   0.5077 B(  2-C , 10-H ) :  -0.0910 
B(  3-O ,  4-N ) :  -0.2656 B(  4-N , 10-H ) :   0.7346 B(  4-N , 11-H ) :   0.7136 
B(  8-H ,  9-H ) :  -0.0521 B( 10-H , 11-H ) :  -0.0509 


                     *******************************
                     * LOEWDIN POPULATION ANALYSIS *
                     *******************************

----------------------
LOEWDIN ATOMIC CHARGES
----------------------
   0 C :   -0.402716
   1 C :   -0.261386
   2 C :    0.301032
   3 O :   -0.465773
   4 N :   -0.506934
   5 H :    0.162713
   6 H :    0.148492
   7 H :    0.162856
   8 H :    0.170604
   9 H :    0.170670
  10 H :    0.258424
  11 H :    0.262019

-------------------------------
LOEWDIN REDUCED ORBITAL CHARGES
-------------------------------
  0 C s       :     2.968391  s :     2.968391
      pz      :     1.162755  p :     3.371829
      px      :     1.104615
      py      :     1.104458
      dz2     :     0.015874  d :     0.062497
      dxz     :     0.003647
      dyz     :     0.014114
      dx2y2   :     0.015095
      dxy     :     0.013766

  1 C s       :     2.929057  s :     2.929057
      pz      :     1.128003  p :     3.257535
      px      :     1.024963
      py      :     1.104569
      dz2     :     0.017191  d :     0.074793
      dxz     :     0.006511
      dyz     :     0.015176
      dx2y2   :     0.020577
      dxy     :     0.015339

  2 C s       :     2.747148  s :     2.747148
      pz      :     0.760587  p :     2.705934
      px      :     0.988912
      py      :     0.956435
      dz2     :     0.023338  d :     0.245887
      dxz     :     0.023053
      dyz     :     0.045618
      dx2y2   :     0.065485
      dxy     :     0.088393

  3 O s       :     3.556171  s :     3.556171
      pz      :     1.459793  p :     4.689672
      px      :     1.746083
      py      :     1.483796
      dz2     :     0.029152  d :     0.219930
      dxz     :     0.016122
      dyz     :     0.050686
      dx2y2   :     0.057808
      dxy     :     0.066163

  4 N s       :     3.136440  s :     3.136440
      pz      :     1.595449  p :     4.085835
      px      :     1.233065
      py      :     1.257322
      dz2     :     0.036913  d :     0.284659
      dxz     :     0.024582
      dyz     :     0.047062
      dx2y2   :     0.117735
      dxy     :     0.058367

  5 H s       :     0.793718  s :     0.793718
      pz      :     0.026126  p :     0.043569
      px      :     0.008098
      py      :     0.009346

  6 H s       :     0.807957  s :     0.807957
      pz      :     0.008785  p :     0.043551
      px      :     0.025220
      py      :     0.009546

  7 H s       :     0.793561  s :     0.793561
      pz      :     0.013950  p :     0.043583
      px      :     0.008504
      py      :     0.021129

  8 H s       :     0.785010  s :     0.785010
      pz      :     0.014550  p :     0.044386
      px      :     0.009212
      py      :     0.020624

  9 H s       :     0.784935  s :     0.784935
      pz      :     0.025738  p :     0.044394
      px      :     0.008897
      py      :     0.009760

 10 H s       :     0.654127  s :     0.654127
      pz      :     0.027454  p :     0.087449
      px      :     0.015275
      py      :     0.044719

 11 H s       :     0.651513  s :     0.651513
      pz      :     0.022810  p :     0.086468
      px      :     0.049834
      py      :     0.013824


---------------------------------
LOEWDIN BOND ORDERS (THRESH 0.050000)
---------------------------------
B(  0-C ,  1-C ) :   1.1303 B(  0-C ,  2-C ) :   0.0682 B(  0-C ,  3-O ) :   0.0520 
B(  0-C ,  5-H ) :   0.9224 B(  0-C ,  6-H ) :   0.9281 B(  0-C ,  7-H ) :   0.9223 
B(  1-C ,  2-C ) :   0.9217 B(  1-C ,  3-O ) :   0.1828 B(  1-C ,  4-N ) :   0.1803 
B(  1-C ,  8-H ) :   0.8740 B(  1-C ,  9-H ) :   0.8740 B(  2-C ,  3-O ) :   2.1317 
B(  2-C ,  4-N ) :   1.4918 B(  2-C , 10-H ) :   0.0568 B(  2-C , 11-H ) :   0.0549 
B(  3-O ,  4-N ) :   0.5097 B(  4-N , 10-H ) :   0.9033 B(  4-N , 11-H ) :   0.9006 


------------------------------------------
LOEWDIN REDUCED ORBITAL POPULATIONS PER MO
-------------------------------------------
THRESHOLD FOR PRINTING IS 0.1%%
                      0         1         2         3         4         5   
                 -18.90986 -14.18267 -10.12773 -10.04225 -10.01760  -0.99481
                   2.00000   2.00000   2.00000   2.00000   2.00000   2.00000
                  --------  --------  --------  --------  --------  --------
 0 C  s               0.0       0.0       0.0       0.0      99.7       0.2
 0 C  px              0.0       0.0       0.0       0.0       0.0       0.5
 1 C  s               0.0       0.0       0.0      99.7       0.0       1.6
 1 C  px              0.0       0.0       0.1       0.0       0.0       2.0
 1 C  py              0.0       0.0       0.0       0.0       0.0       0.3
 2 C  s               0.0       0.0      98.9       0.0       0.0      21.0
 2 C  pz              0.0       0.0       0.0       0.0       0.0       0.7
 2 C  px              0.0       0.0       0.0       0.1       0.0       2.3
 2 C  py              0.1       0.0       0.0       0.0       0.0       4.5
 2 C  dz2             0.0       0.0       0.0       0.0       0.0       0.4
 2 C  dyz             0.0       0.0       0.0       0.0       0.0       0.5
 2 C  dx2y2           0.0       0.0       0.0       0.0       0.0       0.5
 3 O  s              99.9       0.0       0.0       0.0       0.0      43.3
 3 O  pz              0.0       0.0       0.0       0.0       0.0       0.7
 3 O  px              0.0       0.0       0.0       0.0       0.0       0.4
 3 O  py              0.0       0.0       0.2       0.0       0.0       5.0
 3 O  dz2             0.0       0.0       0.0       0.0       0.0       0.1
 3 O  dyz             0.0       0.0       0.1       0.0       0.0       0.3
 3 O  dx2y2           0.0       0.0       0.1       0.0       0.0       0.4
 4 N  s               0.0      99.8       0.0       0.0       0.0       8.3
 4 N  pz              0.0       0.0       0.0       0.0       0.0       0.2
 4 N  px              0.0       0.0       0.1       0.0       0.0       0.7
 4 N  py              0.0       0.0       0.1       0.0       0.0       1.8
 4 N  dz2             0.0       0.0       0.1       0.0       0.0       0.3
 4 N  dyz             0.0       0.0       0.0       0.0       0.0       0.4
 4 N  dx2y2           0.0       0.0       0.0       0.0       0.0       0.3
 4 N  dxy             0.0       0.0       0.2       0.0       0.0       0.6
10 H  s               0.0       0.0       0.0       0.0       0.0       0.9
10 H  py              0.0       0.0       0.0       0.0       0.0       0.1
11 H  s               0.0       0.0       0.0       0.0       0.0       1.2
11 H  px              0.0       0.0       0.0       0.0       0.0       0.1

                      6         7         8         9        10        11   
                  -0.87663  -0.74321  -0.62381  -0.54728  -0.50642  -0.44800
                   2.00000   2.00000   2.00000   2.00000   2.00000   2.00000
                  --------  --------  --------  --------  --------  --------
 0 C  s               0.0      21.3      22.1       3.3       0.9       0.1
 0 C  pz              0.0       0.2       0.1       0.2       0.4       0.5
 0 C  px              0.0       1.2       1.4       1.2       0.3       7.5
 0 C  py              0.0       2.0       1.2       2.1       3.1       2.7
 1 C  s               0.5      31.2       3.5       4.5       3.4       0.3
 1 C  pz              0.0       0.1       0.4       0.3       0.2       1.9
 1 C  px              0.5       0.6       8.8       0.4       3.0      10.7
 1 C  py              0.2       0.8       4.5       2.2       1.0      12.9
 1 C  dz2             0.0       0.0       0.0       0.0       0.1       0.1
 1 C  dxy             0.0       0.0       0.2       0.0       0.0       0.1
 2 C  s               1.6       1.8       4.9       4.5       0.2       2.0
 2 C  pz              2.3       0.2       0.4       0.4       0.1       0.2
 2 C  px              1.4      10.8       3.1       5.6       1.6      12.2
 2 C  py             18.6       0.7       2.7       4.0       0.4       2.0
 2 C  dx2y2           0.1       0.2       0.0       0.0       0.5       0.2
 2 C  dxy             0.9       0.0       0.0       0.3       0.0       0.0
 3 O  s              12.0       1.2       1.1       3.6       0.4       5.1
 3 O  pz              0.1       0.0       0.1       0.4       0.1       0.7
 3 O  px              0.2       0.4       0.1       0.3       0.9      10.5
 3 O  py              0.7       0.1       0.7       3.3       0.6       3.8
 3 O  dz2             0.1       0.1       0.0       0.1       0.0       0.2
 3 O  dxz             0.0       0.1       0.1       0.0       0.0       0.1
 3 O  dyz             0.3       0.0       0.1       0.3       0.0       0.0
 3 O  dx2y2           0.5       0.1       0.3       0.6       0.0       0.2
 3 O  dxy             0.1       0.5       0.4       0.1       0.4       0.8
 4 N  s              42.2       1.4       2.1       0.8       0.0       0.1
 4 N  pz              0.0       0.0       0.2       3.3       2.7       0.0
 4 N  px              0.2       1.5      10.0       6.8      29.6       8.5
 4 N  py              0.2       0.1       2.1      28.1      16.1       0.3
 4 N  dx2y2           0.2       0.4       0.2       0.0       0.9       0.5
 4 N  dxy             0.0       0.1       0.5       0.6       0.0       0.5
 5 H  s               0.0       3.0       5.9       1.6       1.0       0.4
 5 H  pz              0.0       0.2       0.4       0.1       0.1       0.0
 6 H  s               0.0       3.2       6.6       1.5       0.3       3.4
 6 H  px              0.0       0.3       0.5       0.1       0.0       0.1
 7 H  s               0.0       3.0       5.9       1.6       1.0       0.4
 7 H  pz              0.0       0.1       0.2       0.1       0.0       0.0
 7 H  py              0.0       0.2       0.3       0.1       0.0       0.0
 8 H  s               0.1       5.2       1.4       2.6       2.2       3.4
 8 H  pz              0.0       0.1       0.1       0.1       0.1       0.2
 8 H  py              0.0       0.3       0.1       0.1       0.1       0.0
 9 H  s               0.1       5.2       1.4       2.6       2.2       3.4
 9 H  pz              0.0       0.4       0.1       0.2       0.1       0.1
10 H  s               7.9       0.2       0.8       9.2      11.3       0.1
10 H  pz              0.1       0.0       0.0       0.0       0.1       0.0
10 H  px              0.1       0.0       0.1       0.3       0.0       0.1
10 H  py              0.9       0.0       0.0       0.3       0.6       0.0
11 H  s               6.6       0.8       4.0       1.6      12.8       3.3
11 H  px              1.0       0.1       0.3       0.0       0.7       0.1
11 H  py              0.0       0.0       0.1       0.3       0.0       0.0

                     12        13        14        15        16        17   
                  -0.43854  -0.37863  -0.36089  -0.34350  -0.32913  -0.31529
                   2.00000   2.00000   2.00000   2.00000   2.00000   2.00000
                  --------  --------  --------  --------  --------  --------
 0 C  s               0.0       0.0       0.0       0.5       0.1       0.0
 0 C  pz             13.0       1.0      18.9       1.1       2.8      19.7
 0 C  px              0.0       6.8       0.0      26.8       9.2       0.0
 0 C  py              1.7       6.9       2.4      11.3      19.2       2.6
 0 C  dz2             0.0       0.1       0.1       0.0       0.3       0.3
 0 C  dyz             0.0       0.0       0.1       0.0       0.0       0.5
 0 C  dx2y2           0.0       0.0       0.0       0.1       0.4       0.1
 0 C  dxy             0.0       0.0       0.0       0.4       0.0       0.0
 1 C  s               0.0       0.1       0.0       0.5       0.2       0.0
 1 C  pz             32.6       0.0       1.2       1.7       1.3      16.1
 1 C  px              0.0       3.2       0.0      14.2       1.2       0.0
 1 C  py              4.2       0.2       0.2      16.0       9.1       2.1
 1 C  dz2             0.0       0.0       0.0       0.0       0.2       0.3
 1 C  dxz             0.0       0.0       0.2       0.0       0.0       0.0
 1 C  dyz             0.1       0.0       0.0       0.0       0.0       0.6
 1 C  dx2y2           0.0       0.0       0.0       0.1       0.6       0.1
 1 C  dxy             0.0       0.0       0.0       0.3       0.0       0.0
 2 C  s               0.0       1.3       0.0       0.5       0.4       0.0
 2 C  pz             11.6       1.1      18.3       0.0       0.3       2.0
 2 C  px              0.0       1.1       0.0       4.1       5.6       0.0
 2 C  py              1.5       8.3       2.3       0.2       1.9       0.3
 2 C  dxz             0.0       0.0       0.2       0.0       0.0       0.2
 2 C  dx2y2           0.0       0.1       0.0       0.0       0.1       0.0
 2 C  dxy             0.0       0.0       0.0       0.3       0.1       0.0
 3 O  s               0.0       9.7       0.0       0.0       1.6       0.0
 3 O  pz              4.1       5.0      16.7       0.0       1.2       8.4
 3 O  px              0.0       2.7       0.0       1.3       0.4       0.0
 3 O  py              0.5      36.7       2.1       0.0       9.7       1.1
 3 O  dz2             0.2       0.1       0.4       0.0       0.0       0.0
 3 O  dxz             0.2       0.0       0.0       0.0       0.0       0.0
 3 O  dyz             0.4       0.1       0.8       0.0       0.1       0.1
 3 O  dx2y2           0.1       0.2       0.1       0.0       0.1       0.0
 3 O  dxy             0.0       0.1       0.0       0.0       0.3       0.0
 4 N  s               0.0       0.1       0.0       0.4       0.1       0.0
 4 N  pz              4.1       0.3      18.6       0.0       0.0       2.9
 4 N  px              0.0       0.1       0.0       3.2       0.1       0.0
 4 N  py              0.5       2.3       2.4       0.1       0.3       0.4
 4 N  dz2             0.0       0.0       0.2       0.2       0.0       0.1
 4 N  dxz             0.5       0.0       0.2       0.0       0.0       0.1
 4 N  dyz             0.1       0.2       0.4       0.0       0.1       0.1
 4 N  dx2y2           0.0       1.1       0.1       1.4       0.5       0.0
 4 N  dxy             0.1       0.0       0.0       0.1       0.2       0.0
 5 H  s               2.9       1.8       6.2       0.6       6.0      10.2
 5 H  pz              0.1       0.1       0.1       0.0       0.2       0.1
 5 H  px              0.0       0.0       0.0       0.2       0.0       0.0
 6 H  s               0.0       4.8       0.0       8.3      12.2       0.0
 6 H  pz              0.1       0.0       0.1       0.0       0.0       0.2
 6 H  px              0.0       0.1       0.0       0.0       0.2       0.0
 6 H  py              0.0       0.0       0.0       0.3       0.0       0.0
 7 H  s               2.8       1.9       6.1       0.6       6.1      10.2
 7 H  pz              0.0       0.1       0.0       0.0       0.2       0.0
 7 H  px              0.0       0.0       0.0       0.2       0.0       0.0
 7 H  py              0.1       0.0       0.2       0.0       0.0       0.1
 8 H  s               8.8       0.0       0.4       1.1       3.3      10.2
 8 H  pz              0.0       0.0       0.0       0.1       0.1       0.0
 8 H  px              0.0       0.0       0.0       0.2       0.0       0.0
 8 H  py              0.3       0.0       0.0       0.0       0.0       0.1
 9 H  s               8.8       0.0       0.4       1.0       3.3      10.3
 9 H  pz              0.1       0.0       0.0       0.0       0.1       0.0
 9 H  px              0.0       0.0       0.0       0.2       0.0       0.0
 9 H  py              0.1       0.0       0.0       0.1       0.1       0.1
10 H  s               0.0       1.4       0.0       0.2       0.3       0.0
10 H  pz              0.0       0.0       0.2       0.0       0.0       0.0
11 H  s               0.0       0.4       0.0       1.4       0.3       0.0
11 H  pz              0.0       0.0       0.2       0.0       0.0       0.0

                     18        19        20        21        22        23   
                  -0.24505  -0.21677   0.00073   0.06401   0.09780   0.12766
                   2.00000   2.00000   0.00000   0.00000   0.00000   0.00000
                  --------  --------  --------  --------  --------  --------
 0 C  s               0.0       0.2       0.0       1.4      24.7       0.3
 0 C  pz              0.3       0.0       0.2       0.2       0.0       0.2
 0 C  px              0.0       0.3       0.0       1.6       1.9       2.2
 0 C  py              0.0       0.0       0.0       1.9       0.1       1.0
 0 C  dz2             0.0       0.0       0.0       0.0       0.1       0.2
 0 C  dx2y2           0.0       0.0       0.0       0.1       0.0       1.0
 0 C  dxy             0.0       0.0       0.0       0.2       0.0       0.0
 1 C  s               0.0       0.9       0.0      12.5       7.7       0.2
 1 C  pz              0.2       0.3       0.2       0.6       0.5       1.5
 1 C  px              0.0       6.5       0.0       2.6       3.0       5.2
 1 C  py              0.0       1.6       0.0       5.5       4.5      10.9
 1 C  dz2             0.0       0.0       0.3       0.0       0.7       0.0
 1 C  dxz             0.0       0.0       1.0       0.0       0.1       0.0
 1 C  dyz             0.0       0.0       0.5       0.0       0.4       0.1
 1 C  dx2y2           0.0       0.0       0.1       0.1       0.0       1.1
 1 C  dxy             0.0       0.0       0.2       0.0       1.2       0.0
 2 C  s               0.0       0.2       0.0      10.2       5.9       4.1
 2 C  pz              0.4       0.0      35.0       0.1       0.3       0.1
 2 C  px              0.0       1.5       0.0       2.6       1.3       7.7
 2 C  py              0.1       0.2       4.5       0.6       2.6       0.8
 2 C  dz2             0.7       0.0       0.2       0.6       0.3       0.5
 2 C  dxz             0.1       0.4       0.6       0.0       0.1       0.0
 2 C  dyz             1.4       0.1       0.2       0.3       0.4       0.0
 2 C  dx2y2           0.2       1.2       0.0       0.0       0.2       1.2
 2 C  dxy             0.0       2.6       0.1       0.0       0.3       0.2
 3 O  s               0.0       0.0       0.0       1.1       1.2       0.2
 3 O  pz             35.4       0.3      20.5       0.0       0.0       0.0
 3 O  px              0.0      69.8       0.0       0.4       1.5       1.3
 3 O  py              4.5       5.1       2.6       0.4       0.2       0.2
 3 O  dz2             0.0       0.0       1.7       0.3       0.9       0.7
 3 O  dxz             0.1       0.1       1.7       0.0       0.0       0.0
 3 O  dyz             0.1       0.0       3.0       0.3       0.3       0.3
 3 O  dx2y2           0.0       0.2       0.4       0.2       0.1       0.0
 3 O  dxy             0.0       0.5       0.3       0.2       0.2       0.0
 4 N  s               0.0       1.7       0.0      12.7       1.9       2.4
 4 N  pz             47.3       0.2       9.1       0.4       0.2       0.8
 4 N  px              0.1       0.9       0.0       1.1       0.5      10.5
 4 N  py              6.1       2.2       1.2       3.8       1.6       5.0
 4 N  dz2             0.2       0.4       0.8       0.1       3.4       0.2
 4 N  dxz             0.1       0.0       4.0       0.4       0.5       0.2
 4 N  dyz             0.5       0.4       2.2       0.1       0.6       1.5
 4 N  dx2y2           0.1       0.1       0.4       0.1       2.2       6.0
 4 N  dxy             0.0       0.0       0.4       3.4       2.2       1.6
 5 H  s               0.1       0.0       0.0       0.2       2.4       0.5
 5 H  pz              0.0       0.0       0.0       0.0       1.4       0.2
 6 H  s               0.0       0.1       0.0       0.3       1.5       2.8
 6 H  px              0.0       0.0       0.0       0.0       1.2       0.5
 6 H  py              0.0       0.0       0.0       0.1       0.2       0.0
 7 H  s               0.1       0.0       0.0       0.2       2.4       0.5
 7 H  pz              0.0       0.0       0.0       0.1       0.7       0.1
 7 H  py              0.0       0.0       0.0       0.0       0.7       0.2
 8 H  s               0.0       0.4       3.5       1.7       3.1       0.3
 8 H  pz              0.0       0.0       0.0       0.3       1.3       0.0
 8 H  px              0.0       0.1       0.1       0.0       0.4       0.1
 8 H  py              0.0       0.0       0.2       0.7       0.1       0.6
 9 H  s               0.0       0.4       3.5       1.7       3.0       0.3
 9 H  pz              0.0       0.0       0.1       0.9       1.2       0.3
 9 H  px              0.0       0.1       0.1       0.0       0.3       0.1
 9 H  py              0.0       0.0       0.1       0.1       0.2       0.3
10 H  s               0.0       0.4       0.0      12.7       2.0       4.4
10 H  pz              0.8       0.0       0.4       0.5       0.1       0.1
10 H  px              0.0       0.0       0.0       0.9       0.4       0.1
10 H  py              0.1       0.0       0.0       3.2       0.5       0.9
11 H  s               0.0       0.2       0.0       7.1       2.3      13.7
11 H  pz              0.8       0.0       0.4       0.1       0.0       0.0
11 H  px              0.0       0.1       0.0       2.1       0.8       4.6
11 H  py              0.1       0.0       0.0       0.3       0.1       0.0

                     24        25        26        27        28        29   
                   0.15059   0.15519   0.16714   0.18292   0.19143   0.20228
                   0.00000   0.00000   0.00000   0.00000   0.00000   0.00000
                  --------  --------  --------  --------  --------  --------
 0 C  s               6.0       6.0       0.0       0.5       6.8       0.0
 0 C  pz              2.6       0.0      14.7       0.1       1.9      31.9
 0 C  px              6.7      11.2       0.0      12.0       0.0       0.1
 0 C  py             21.8       0.6       1.9       1.2      14.7       4.2
 0 C  dz2             0.3       0.1       0.8       0.2       2.3       1.0
 0 C  dxz             0.1       0.0       0.0       0.0       0.0       1.6
 0 C  dyz             0.2       0.1       1.5       0.0       0.8       1.6
 0 C  dx2y2           0.1       0.0       0.3       1.0       0.1       0.3
 0 C  dxy             1.2       0.1       0.0       0.4       0.5       0.2
 1 C  s              13.6       0.2       0.0       0.6       1.7       0.0
 1 C  pz              0.7       1.6      23.3       0.7       1.1       9.1
 1 C  px              3.7      18.3       0.0      10.3       6.0       0.0
 1 C  py              4.8       9.5       3.0       4.4       8.9       1.3
 1 C  dz2             0.1       1.1       0.7       1.0       0.0       0.0
 1 C  dxz             0.0       0.1       0.1       0.1       0.2       0.4
 1 C  dyz             0.1       0.4       1.4       0.0       0.1       0.0
 1 C  dx2y2           0.0       0.2       0.2       2.0       0.0       0.0
 1 C  dxy             0.1       0.2       0.0       0.2       1.4       0.1
 2 C  s               0.1       4.9       0.0       6.7       5.6       0.0
 2 C  pz              0.0       0.4       9.8       0.2       0.2       5.1
 2 C  px              1.6       1.5       0.0       0.9       6.7       0.0
 2 C  py              0.1       3.3       1.3       1.4       1.5       0.6
 2 C  dz2             0.0       0.2       0.0       0.7       0.2       0.0
 2 C  dxz             0.0       0.0       0.0       0.0       0.1       0.3
 2 C  dyz             0.1       0.2       0.0       0.5       0.3       0.0
 2 C  dx2y2           0.7       0.1       0.0       0.1       0.2       0.0
 2 C  dxy             0.0       0.0       0.0       0.1       0.7       0.0
 3 O  s               0.3       0.2       0.0       0.7       1.5       0.0
 3 O  pz              0.1       0.0       1.1       0.1       0.1       0.6
 3 O  px              0.6       0.8       0.0       1.3       0.1       0.0
 3 O  py              0.5       0.4       0.1       0.6       0.4       0.1
 3 O  dz2             0.0       1.5       0.0       0.2       0.0       0.2
 3 O  dxz             0.0       0.0       0.1       0.0       0.1       1.5
 3 O  dyz             0.1       0.3       0.0       0.1       0.0       0.6
 3 O  dx2y2           0.4       0.6       0.0       2.5       0.2       0.1
 3 O  dxy             0.3       0.0       0.0       0.1       0.8       0.1
 4 N  s               1.4       0.1       0.0       1.2       0.2       0.0
 4 N  pz              0.4       0.0       2.6       0.3       0.2       0.2
 4 N  px              0.7       2.4       0.0       5.2       0.6       0.0
 4 N  py              3.4       0.1       0.3       1.9       1.2       0.0
 4 N  dz2             0.1       7.0       0.0       0.0       2.9       0.3
 4 N  dxz             0.0       0.2       1.1       1.4       0.1       0.0
 4 N  dyz             1.4       1.6       0.0       0.6       0.5       0.5
 4 N  dx2y2           5.6       2.7       0.0       4.3       1.6       0.1
 4 N  dxy             0.1       0.5       0.2       9.5       0.4       0.0
 5 H  s               0.6       0.6       6.1       1.0       7.4      12.5
 5 H  pz              0.3       0.2       1.5       0.1       3.0       0.6
 5 H  px              0.2       0.1       0.0       0.0       0.1       0.5
 5 H  py              0.4       0.2       0.5       0.0       0.8       0.8
 6 H  s               0.1       4.0       0.0       2.2       0.9       0.0
 6 H  pz              0.1       0.1       0.3       0.0       0.0       2.8
 6 H  px              0.3       1.6       0.0       1.8       0.1       0.0
 6 H  py              0.5       0.5       0.0       0.3       0.4       0.3
 7 H  s               0.6       0.6       6.1       1.0       7.3      12.7
 7 H  pz              0.0       0.0       0.2       0.0       3.5       0.0
 7 H  px              0.2       0.1       0.1       0.0       0.1       0.5
 7 H  py              0.7       0.4       1.8       0.1       0.2       1.3
 8 H  s               0.9       1.7       6.4       2.5       0.2       1.8
 8 H  pz              0.2       0.9       0.4       0.7       0.0       0.2
 8 H  px              0.0       0.5       0.0       0.4       0.6       0.6
 8 H  py              1.3       0.0       2.6       0.1       0.1       0.3
 9 H  s               1.0       1.7       6.3       2.5       0.2       1.7
 9 H  pz              1.1       0.4       2.2       0.6       0.0       0.5
 9 H  px              0.0       0.6       0.0       0.4       0.6       0.6
 9 H  py              0.4       0.4       0.8       0.1       0.1       0.0
10 H  s               7.9       0.2       0.0       4.3       0.6       0.0
10 H  pz              0.3       0.0       0.0       0.2       0.0       0.0
10 H  px              0.0       0.2       0.0       0.3       0.1       0.0
10 H  py              2.5       0.0       0.0       1.7       0.1       0.0
11 H  s               0.3       4.8       0.0       2.9       0.6       0.0
11 H  px              0.0       1.4       0.0       0.7       0.0       0.0
11 H  py              0.1       0.0       0.0       0.4       0.0       0.0

                     30        31        32        33        34        35   
                   0.20421   0.22422   0.23265   0.24767   0.24903   0.27449
                   0.00000   0.00000   0.00000   0.00000   0.00000   0.00000
                  --------  --------  --------  --------  --------  --------
 0 C  s               0.2       0.4       0.0       1.1       0.0       0.8
 0 C  pz              0.0       2.2      24.7       2.8      25.0       1.1
 0 C  px             12.8      12.4       0.0       2.8       0.0      22.7
 0 C  py              0.7      15.5       2.8      23.4       3.3       5.6
 0 C  dz2             0.2       0.2       0.2       0.3       0.2       0.7
 0 C  dxz             0.2       0.1       0.0       0.0       0.0       0.0
 0 C  dyz             0.0       0.0       0.4       0.1       0.4       0.1
 0 C  dx2y2           0.8       0.5       0.1       0.0       0.1       0.5
 0 C  dxy             1.5       0.3       0.0       0.1       0.0       0.1
 1 C  s               2.0       1.9       0.0       0.2       0.0       1.2
 1 C  pz              1.1       0.9       5.5       0.8      15.9       0.4
 1 C  px              2.9       0.4       0.0       1.2       0.0       0.4
 1 C  py              7.7       6.8       0.7       6.9       2.1       3.4
 1 C  dz2             0.2       0.2       0.5       0.4       0.2       1.0
 1 C  dxz             0.0       0.0       0.0       0.1       0.0       0.0
 1 C  dyz             0.3       0.0       1.0       0.2       0.4       0.3
 1 C  dx2y2           0.3       0.1       0.2       0.0       0.1       0.2
 1 C  dxy             0.1       0.0       0.0       1.3       0.0       0.2
 2 C  s               4.7       0.2       0.0       2.5       0.0       1.7
 2 C  pz              1.6       0.4      24.8       1.2      20.3       0.1
 2 C  px              2.7       2.9       0.0       1.4       0.0      11.1
 2 C  py             11.9       3.7       3.3       7.4       2.6       1.7
 2 C  dxz             0.0       0.0       0.5       0.1       0.1       0.0
 2 C  dx2y2           0.1       0.0       0.0       0.4       0.0       0.2
 2 C  dxy             0.0       0.2       0.1       0.8       0.0       0.0
 3 O  s               4.3       0.6       0.0       1.0       0.0       0.2
 3 O  pz              0.5       0.1       2.7       0.1       0.3       0.2
 3 O  px              0.0       1.1       0.0       3.1       0.0       3.4
 3 O  py              3.8       0.9       0.3       0.7       0.0       1.7
 3 O  dz2             0.5       0.0       0.2       0.1       0.0       0.7
 3 O  dxz             0.2       0.0       0.1       0.2       0.1       0.2
 3 O  dyz             0.9       0.1       0.4       0.0       0.1       0.5
 3 O  dx2y2           1.0       0.1       0.1       0.5       0.0       0.2
 3 O  dxy             1.5       0.1       0.0       1.2       0.0       1.6
 4 N  s               0.5       2.7       0.0       0.9       0.0       0.3
 4 N  pz              0.2       0.6       0.5       0.4       7.7       0.1
 4 N  px              0.9       4.3       0.0       0.6       0.0       2.0
 4 N  py              2.1       5.6       0.1       3.2       1.0       0.6
 4 N  dz2             0.2       0.3       0.0       4.7       0.4       6.5
 4 N  dxz             0.2       1.4       4.1       0.7       0.0       0.1
 4 N  dyz             0.0       0.1       0.1       5.9       0.8       2.4
 4 N  dx2y2           0.3       0.2       0.0       3.8       0.1       0.3
 4 N  dxy             2.0      10.5       0.5       3.6       0.0       2.2
 5 H  s               0.0       1.6       1.8       0.4       5.1       0.9
 5 H  pz              0.0       0.7       0.3       0.0       1.9       0.1
 5 H  px              1.2       0.2       0.0       0.2       0.0       0.5
 5 H  py              0.0       0.0       0.0       0.3       0.7       0.3
 6 H  s              13.3       9.2       0.0       2.0       0.0       4.3
 6 H  px              1.4       3.6       0.0       0.1       0.0       0.0
 6 H  py              0.6       0.3       0.0       0.2       0.0       0.0
 7 H  s               0.0       1.6       1.7       0.4       5.1       0.9
 7 H  pz              0.0       0.4       0.2       0.1       0.3       0.3
 7 H  px              1.3       0.1       0.0       0.2       0.0       0.4
 7 H  py              0.0       0.4       0.1       0.3       2.4       0.1
 8 H  s               2.8       0.5       8.3       0.5       1.2       3.4
 8 H  pz              1.4       0.0       0.1       0.2       0.2       1.2
 8 H  px              0.2       0.0       0.1       0.4       0.1       0.0
 8 H  py              0.2       0.2       2.3       0.2       0.1       0.2
 9 H  s               2.9       0.5       8.3       0.5       1.2       3.4
 9 H  pz              1.5       0.0       1.4       0.0       0.2       1.3
 9 H  px              0.2       0.0       0.1       0.4       0.1       0.0
 9 H  py              0.2       0.2       1.1       0.4       0.0       0.1
10 H  s               0.4       0.3       0.0       4.6       0.0       0.6
10 H  px              0.0       0.4       0.0       0.0       0.0       0.1
10 H  py              0.2       0.5       0.0       0.6       0.0       0.0
11 H  s               0.6       0.7       0.0       0.5       0.0       3.6
11 H  pz              0.0       0.0       0.1       0.1       0.0       0.0
11 H  px              0.2       0.5       0.0       0.0       0.0       1.4
11 H  py              0.1       0.3       0.0       0.6       0.0       0.1

                     36        37        38        39        40        41   
                   0.30595   0.32151   0.34996   0.38529   0.39457   0.41220
                   0.00000   0.00000   0.00000   0.00000   0.00000   0.00000
                  --------  --------  --------  --------  --------  --------
 0 C  s               0.0       3.6       1.2       0.0       3.9       0.2
 0 C  pz              1.6       0.1       0.2       1.9       0.6       0.2
 0 C  px              0.0      11.5       0.2       0.0       4.7       1.9
 0 C  py              0.2       0.8       1.6       0.3       5.6       1.4
 0 C  dz2             0.0       0.1       0.2       0.0       0.0       0.0
 0 C  dxz             0.9       0.0       0.0       0.1       0.1       0.1
 0 C  dyz             0.1       0.1       0.2       0.0       0.0       0.0
 0 C  dxy             0.1       0.2       0.0       0.0       1.1       0.6
 1 C  s               0.0       2.1       1.6       0.0       3.1       5.9
 1 C  pz             30.5       0.1       0.5       2.8       0.9       0.4
 1 C  px              0.0      11.9      16.1       0.0      15.7      15.6
 1 C  py              3.9       1.4       2.9       0.4       9.1       2.0
 1 C  dz2             0.7       0.1       0.0       0.0       0.1       0.2
 1 C  dxz             0.1       0.1       0.0       0.2       0.1       0.1
 1 C  dyz             1.3       0.1       0.0       0.0       0.0       0.0
 1 C  dx2y2           0.2       0.2       0.6       0.0       0.4       0.2
 1 C  dxy             0.0       0.7       0.3       0.0       1.2       0.4
 2 C  s               0.0       2.1       2.5       0.0       1.1      14.8
 2 C  pz              6.9       1.5       0.4       3.5       0.4       0.1
 2 C  px              0.0       4.0      16.2       0.0       4.1      14.9
 2 C  py              0.9      12.7       1.7       0.4       3.5       1.3
 2 C  dz2             0.0       1.5       1.9       0.0       0.0       0.1
 2 C  dxz             0.4       0.0       0.0       0.6       0.2       0.2
 2 C  dyz             0.0       0.5       0.5       0.0       0.0       0.0
 2 C  dx2y2           0.0       0.1       0.6       0.0       0.0       0.4
 2 C  dxy             0.0       0.1       0.0       0.1       1.5       1.4
 3 O  s               0.0       2.4       0.1       0.0       0.1       0.6
 3 O  pz              2.3       0.3       0.5       4.6       0.0       0.2
 3 O  px              0.0       0.5       5.5       0.0       1.7       2.4
 3 O  py              0.3       2.0       3.6       0.6       0.0       1.1
 3 O  dz2             0.1       2.9       1.2       0.0       1.0       7.8
 3 O  dxz            11.6       0.1       0.0       0.3       0.4       0.8
 3 O  dyz             0.6       0.3       0.2       0.0       0.5       2.2
 3 O  dx2y2           0.2       2.6       0.8       0.0       0.0       2.4
 3 O  dxy             1.4       2.3       0.2       0.0       3.3       3.5
 4 N  s               0.0       0.6       0.7       0.0       1.2       0.2
 4 N  pz             10.8       0.3       0.4      34.8       0.4       0.2
 4 N  px              0.0       2.3      11.7       0.1       6.0       0.2
 4 N  py              1.4       2.9       4.6       4.5       4.1       1.2
 4 N  dz2             2.7       7.0       0.2      12.2       0.6       0.2
 4 N  dxz             2.4       0.5       0.8       1.8       0.1       0.1
 4 N  dyz             4.5       2.2       0.0      22.8       0.7       0.1
 4 N  dx2y2           0.7       0.5       1.8       3.7       0.6       0.1
 4 N  dxy             0.5       6.3       4.9       0.5       0.9       0.1
 5 H  s               0.3       0.6       0.4       0.0       3.7       0.3
 5 H  pz              0.2       0.3       0.1       0.0       1.2       0.1
 5 H  px              0.8       0.1       0.0       0.1       0.1       0.2
 5 H  py              0.0       0.6       0.1       0.0       0.0       0.0
 6 H  s               0.0       1.2       1.2       0.0       0.8       2.9
 6 H  pz              0.6       0.1       0.0       0.2       0.0       0.0
 6 H  px              0.0       0.0       0.4       0.0       0.3       1.0
 6 H  py              0.1       0.6       0.0       0.0       0.4       0.0
 7 H  s               0.3       0.6       0.4       0.0       3.6       0.3
 7 H  pz              0.1       0.0       0.2       0.0       1.0       0.0
 7 H  px              0.8       0.1       0.0       0.1       0.1       0.2
 7 H  py              0.0       0.8       0.0       0.0       0.3       0.0
 8 H  s               3.8       0.2       0.7       0.1       2.0       3.0
 8 H  pz              0.2       0.1       0.0       0.1       0.8       0.1
 8 H  px              0.0       0.1       0.0       0.1       0.0       0.1
 8 H  py              0.4       0.3       0.2       0.0       0.0       0.4
 9 H  s               3.8       0.2       0.7       0.1       2.0       2.9
 9 H  pz              0.0       0.0       0.1       0.2       0.7       0.5
 9 H  px              0.0       0.1       0.0       0.1       0.0       0.1
 9 H  py              0.6       0.4       0.1       0.0       0.2       0.1
10 H  s               0.0       0.1       1.7       0.0       2.1       1.0
10 H  pz              0.3       0.0       0.1       2.0       0.0       0.0
10 H  px              0.0       0.5       1.2       0.0       0.0       0.0
10 H  py              0.0       0.0       0.3       0.3       0.3       0.0
11 H  s               0.0       0.1       4.8       0.0       0.9       0.7
11 H  pz              0.1       0.1       0.0       0.3       0.0       0.0
11 H  px              0.0       0.0       0.1       0.0       0.2       0.4
11 H  py              0.0       1.2       0.2       0.0       0.2       0.0

                     42        43        44        45        46        47   
                   0.41870   0.44366   0.46421   0.50724   0.52791   0.54413
                   0.00000   0.00000   0.00000   0.00000   0.00000   0.00000
                  --------  --------  --------  --------  --------  --------
 0 C  s               0.0      16.0       0.9       1.4      20.6       4.0
 0 C  pz              1.4       0.5       0.4       0.4       0.3       0.3
 0 C  px              0.0       0.6       0.2       1.5       1.8       3.0
 0 C  py              0.2       3.8       2.9       3.8       2.4       2.5
 0 C  dz2             0.0       0.0       0.0       0.2       0.2       0.0
 0 C  dxz             0.5       0.0       0.0       0.1       0.0       0.0
 0 C  dyz             0.0       0.0       0.0       0.3       0.0       0.0
 0 C  dx2y2           0.0       0.1       0.2       0.3       0.1       0.0
[...]
 3 O  py              0.1       0.4       0.0       1.4       0.0       0.3
 3 O  dz2             0.9       0.0       0.0       0.1       0.0       0.1
 3 O  dxz             0.0       1.1       0.6       2.0       0.1       0.0
 3 O  dyz             1.8       0.1       0.0       0.6       0.1       0.1
 3 O  dx2y2           0.3       2.0       0.2       3.6       0.0       1.6
 3 O  dxy             0.0       7.4       4.2      14.2       0.1       0.1
 4 N  s               0.0       0.6       0.2       0.8       0.0      23.1
 4 N  pz              0.0       0.2       0.1       0.5       0.0       0.1
 4 N  px              0.0       0.2       0.2       0.4       0.0       0.9
 4 N  py              0.0       1.6       0.7       4.0       0.0       1.2
 4 N  dz2             0.0       0.0       0.2       0.1       0.0      24.9
 4 N  dxz             0.2       0.1       0.0       0.1       0.1       0.1
 4 N  dyz             0.0       0.0       0.1       0.2       0.1      10.2
 4 N  dx2y2           0.0       0.1       0.1       0.7       0.0       0.8
 4 N  dxy             0.0       0.5       0.1       0.6       0.0       0.0
 5 H  s               4.5       0.1       2.6       0.9       3.3       0.0
 5 H  pz              9.0       0.1       6.8       3.4       7.4       0.0
 5 H  px              0.9       0.4       0.0       0.2       0.0       0.0
 5 H  py              1.1       0.0       0.1       0.0       1.1       0.0
 6 H  s               0.0       3.7       7.5       0.1       0.0       0.0
 6 H  pz              0.9       0.4       0.2       0.1       0.0       0.0
 6 H  px              0.0       7.4      16.0       0.2       0.0       0.1
 6 H  py              0.1       2.0       0.8       0.4       0.0       0.0
 7 H  s               4.6       0.1       2.5       0.7       3.7       0.0
 7 H  pz              2.5       0.1       3.3       1.7       2.4       0.0
 7 H  px              1.2       0.4       0.0       0.3       0.1       0.0
 7 H  py              7.3       0.0       3.3       0.9       7.0       0.0
 8 H  s               3.3       1.8       0.5       0.4       4.6       0.0
 8 H  pz              1.7       4.4       0.4       1.0       2.7       0.0
 8 H  px              0.9       0.1       0.1       0.4       0.3       0.0
 8 H  py              5.3       2.1       1.1       0.2       8.1       0.2
 9 H  s               3.4       1.8       0.5       0.6       4.4       0.0
 9 H  pz              6.4       6.4       1.4       1.8       9.1       0.1
 9 H  px              0.6       0.0       0.1       0.4       0.1       0.0
 9 H  py              0.9       0.1       0.2       0.0       1.3       0.1
10 H  s               0.0       0.4       0.2       0.4       0.0       2.2
10 H  pz              0.0       0.2       0.1       0.1       0.0       0.9
10 H  px              0.0       0.0       0.0       0.3       0.0       0.8
10 H  py              0.0       1.3       0.9       1.0       0.0       6.5
11 H  s               0.0       0.0       0.0       0.2       0.0       3.1
11 H  pz              0.0       0.0       0.0       0.0       0.0       0.1
11 H  px              0.0       0.0       0.0       0.1       0.0      10.2
11 H  py              0.0       0.0       0.2       0.2       0.0       0.4

                    132       133       134       135       136       137   
                   4.10671   4.22078   4.46130  21.93610  21.98663  22.15324
                   0.00000   0.00000   0.00000   0.00000   0.00000   0.00000
                  --------  --------  --------  --------  --------  --------
 0 C  s               0.0       0.1       0.0      62.9      36.1       0.6
 1 C  s               0.2       0.2       0.0      36.2      59.5       3.9
 1 C  px              0.2       0.1       0.0       0.0       0.0       0.0
 1 C  py              0.0       0.2       0.0       0.0       0.0       0.0
 1 C  dz2             0.0       0.2       0.0       0.0       0.0       0.0
 1 C  dx2y2           0.4       0.1       0.0       0.0       0.0       0.0
 1 C  dxy             0.1       0.0       0.1       0.0       0.0       0.0
 2 C  s               3.5       0.8       4.4       0.4       4.1      94.7
 2 C  pz              0.2       0.2       0.8       0.0       0.0       0.0
 2 C  px              3.3       0.2       0.4       0.0       0.0       0.1
 2 C  py              2.2       1.4       5.7       0.0       0.0       0.0
 2 C  dz2             0.5       0.3       0.5       0.0       0.0       0.0
 2 C  dxz             1.0       0.1       0.2       0.0       0.0       0.0
 2 C  dyz             0.6       0.0       1.7       0.0       0.0       0.0
 2 C  dx2y2           0.9       0.5       3.2       0.0       0.0       0.0
 2 C  dxy             8.5       0.8       1.6       0.0       0.0       0.0
 3 O  s               1.1       3.7      14.6       0.0       0.0       0.2
 3 O  pz              0.1       0.6       1.9       0.0       0.0       0.0
 3 O  px              0.9       0.1       1.7       0.0       0.0       0.0
 3 O  py              0.7       4.7      13.7       0.0       0.0       0.1
 3 O  dz2             0.6       1.1       2.7       0.0       0.0       0.0
 3 O  dxz             0.3       0.0       0.8       0.0       0.0       0.0
 3 O  dyz             0.2       2.5       6.9       0.0       0.0       0.0
 3 O  dx2y2           0.2       4.0      10.7       0.0       0.0       0.0
 3 O  dxy             1.9       0.2       6.0       0.0       0.0       0.0
 4 N  s               0.9       0.3       0.3       0.0       0.0       0.1
 4 N  pz              0.6       1.0       0.2       0.0       0.0       0.0
 4 N  px             10.0       5.4       2.9       0.0       0.0       0.0
 4 N  py              6.5       6.3       1.2       0.0       0.0       0.1
 4 N  dz2             0.1       0.0       0.7       0.0       0.0       0.0
 4 N  dxz             4.4       0.2       0.1       0.0       0.0       0.0
 4 N  dyz             0.0       4.8       0.4       0.0       0.0       0.0
 4 N  dx2y2           2.0      27.0       8.3       0.0       0.0       0.0
 4 N  dxy            32.2       2.8       0.1       0.0       0.0       0.0
10 H  s               1.8       8.8       1.1       0.0       0.0       0.0
10 H  pz              0.3       1.2       0.1       0.0       0.0       0.0
10 H  px              0.0       1.7       0.3       0.0       0.0       0.0
10 H  py              2.5       8.4       0.6       0.0       0.0       0.0
11 H  s               4.0       4.3       2.7       0.0       0.0       0.0
11 H  pz              0.0       0.2       0.0       0.0       0.0       0.0
11 H  px              6.5       4.5       2.8       0.0       0.0       0.0
11 H  py              0.1       0.9       0.2       0.0       0.0       0.0

                    138       139   
                  31.86921  43.68840
                   0.00000   0.00000
                  --------  --------
 2 C  s               0.1       0.0
 3 O  s               0.0      99.9
 4 N  s              99.7       0.0


                      *****************************
                      * MAYER POPULATION ANALYSIS *
                      *****************************

  NA   - Mulliken gross atomic population
  ZA   - Total nuclear charge
  QA   - Mulliken gross atomic charge
  VA   - Mayer's total valence
  BVA  - Mayer's bonded valence
  FA   - Mayer's free valence

  ATOM       NA         ZA         QA         VA         BVA        FA
  0 C      6.4756     6.0000    -0.4756     3.9267     3.9267    -0.0000
  1 C      6.2751     6.0000    -0.2751     3.6538     3.6538    -0.0000
  2 C      5.7134     6.0000     0.2866     4.0204     4.0204    -0.0000
  3 O      8.4162     8.0000    -0.4162     2.0109     2.0109    -0.0000
  4 N      7.3740     7.0000    -0.3740     2.9864     2.9864    -0.0000
  5 H      0.8412     1.0000     0.1588     0.9615     0.9615    -0.0000
  6 H      0.8601     1.0000     0.1399     0.9606     0.9606    -0.0000
  7 H      0.8409     1.0000     0.1591     0.9615     0.9615    -0.0000
  8 H      0.8501     1.0000     0.1499     0.9605     0.9605    -0.0000
  9 H      0.8499     1.0000     0.1501     0.9605     0.9605    -0.0000
 10 H      0.7479     1.0000     0.2521     0.9315     0.9315    -0.0000
 11 H      0.7556     1.0000     0.2444     0.9441     0.9441     0.0000

  Mayer bond orders larger than 0.100000
B(  0-C ,  1-C ) :   0.9460 B(  0-C ,  5-H ) :   0.9761 B(  0-C ,  6-H ) :   0.9696 
B(  0-C ,  7-H ) :   0.9760 B(  1-C ,  2-C ) :   0.9551 B(  1-C ,  8-H ) :   0.9387 
B(  1-C ,  9-H ) :   0.9383 B(  2-C ,  3-O ) :   1.9526 B(  2-C ,  4-N ) :   1.1347 
B(  4-N , 10-H ) :   0.9212 B(  4-N , 11-H ) :   0.9175 

-------
TIMINGS
-------

Total SCF time: 0 days 0 hours 0 min 9 sec 

Total time                  ....       9.912 sec
Sum of individual times     ....       9.403 sec  ( 94.9%)

SCF preparation             ....       0.139 sec  (  1.4%)
Fock matrix formation       ....       8.462 sec  ( 85.4%)
  Startup                   ....       0.051 sec  (  0.6% of F)
  Split-RI-J                ....       1.177 sec  ( 13.9% of F)
  XC integration            ....       6.697 sec  ( 79.1% of F)
    XC Preparation          ....       0.000 sec  (  0.0% of XC)
    Basis function eval.    ....       1.172 sec  ( 17.5% of XC)
    Density eval.           ....       1.649 sec  ( 24.6% of XC)
    XC-Functional eval.     ....       1.017 sec  ( 15.2% of XC)
    XC-Potential eval.      ....       2.056 sec  ( 30.7% of XC)
Diagonalization             ....       0.000 sec  (  0.0%)
Density matrix formation    ....       0.214 sec  (  2.2%)
Total Energy calculation    ....       0.036 sec  (  0.4%)
Population analysis         ....       0.066 sec  (  0.7%)
Orbital Transformation      ....       0.042 sec  (  0.4%)
Orbital Orthonormalization  ....       0.000 sec  (  0.0%)
DIIS solution               ....       0.373 sec  (  3.8%)
  MO trafo                  ....       0.000 sec  (  0.0 % of DIIS)
  Orb grad                  ....       0.000 sec  (  0.0 % of DIIS)
  Energy W gradient         ....       0.000 sec  (  0.0 % of DIIS)
  DIIS error                ....       0.004 sec  (  1.1 % of DIIS)
  DIIS work                 ....       0.327 sec  ( 87.7 % of DIIS)
  Form Q                    ....       0.000 sec  (  0.0 % of DIIS)
  Form QpQm                 ....       0.000 sec  (  0.0 % of DIIS)
  Exp/Cayley                ....       0.000 sec  (  0.0 % of DIIS)
  Orb update                ....       0.000 sec  (  0.0 % of DIIS)
  Wake-sleep                ....       0.021 sec  (  5.5 % of DIIS)
SOSCF solution              ....       0.071 sec  (  0.7%)
  MO trafo                  ....       0.039 sec  ( 54.6 % of SOSCF)
  Orb grad                  ....       0.003 sec  (  3.9 % of SOSCF)
  Rot update                ....       0.012 sec  ( 16.7 % of SOSCF)
  Step                      ....       0.017 sec  ( 24.7 % of SOSCF)
Finished LeanSCF after  10.0 sec

Maximum memory used throughout the entire LEANSCF-calculation: 14.3 MB


-------------------------------------------------------------------------------
                          DFT DISPERSION CORRECTION                            
                                                                               
                                DFTD4 V3.4.0                                   
-------------------------------------------------------------------------------
The R2SCAN3C composite method is recognized
Using three-body term ABC
Active option DFTDOPT                   ...         5   

-------------------------   ----------------
Dispersion correction           -0.002419488
-------------------------   ----------------

------------------   -----------------
gCP correction             0.008320198
------------------   -----------------

-------------------------   --------------------
FINAL SINGLE POINT ENERGY      -248.472901550236
-------------------------   --------------------


------------------------------------------------------------------------------
                              ORCA PROPERTY CALCULATIONS
------------------------------------------------------------------------------

GBWName                                 ... sp_gas.gbw
Number of atoms                         ...     12
Number of basis functions               ...    140
Max core memory                         ...   1024 MB

Electric properties:
Dipole moment                           ... YES
Quadrupole moment                       ...  NO
Static polarizability (Dipole/Dipole)   ...  NO
Static polarizability (Dipole/Quad.)    ...  NO
Static polarizability (Quad./Quad.)     ...  NO
Static polarizability (Velocity)        ...  NO

Atomic electric properties:
Dipole moment                           ...  NO
Quadrupole moment                       ...  NO
Static polarizability                   ...  NO

Choice of electric origin               ... Center of mass
Position of electric origin             ...    -0.000022     0.000021    -0.000008

General magnetic properties:
Magnetizability                         ...  NO

EPR properties:
g-Tensor (aka g-matrix)                 ...  NO
Zero-Field splitting spin-orbit         ...  NO
Zero-field splitting spin-spin          ...  NO
Hyperfine couplings                     ...  NO (   0 nuclei)
Quadrupole couplings                    ...  NO (   0 nuclei)
Contact density                         ...  NO (   0 nuclei)

NMR properties:
Chemical shifts                         ...  NO (   0 nuclei)
Spin-rotation constants                 ...  NO (   0 nuclei)
Spin-spin couplings                     ...  NO (   0 nuclei,    0 pairs)

Choice of magnetic origin               ... GIAO
Position of magnetic origin             ...     0.000000     0.000000     0.000000

Properties with geometric perturbations:
SCF Hessian                             ...  NO
IR spectrum                             ...  NO
VCD spectrum                            ...  NO
X-ray spectroscopy properties:
SCF XES/XAS/RIXS spectra                ...  NO


-------------
DIPOLE MOMENT
-------------

Method             : SCF
Type of density    : Electron Density
Multiplicity       :   1
Irrep              :   0
Energy             :  -248.4788022608121025 Eh
Relativity type    : 
Basis              : AO
                                X                 Y                 Z
Electronic contribution:      4.720069520      -0.574652441       0.363217844
Nuclear contribution   :     -4.836891609       1.991950267      -0.875130879
                        -----------------------------------------
Total Dipole Moment    :     -0.116822089       1.417297826      -0.511913035
                        -----------------------------------------
Magnitude (a.u.)       :      1.511434908
Magnitude (Debye)      :      3.841762227



--------------------
Rotational spectrum 
--------------------
 
Rotational constants in cm-1:             0.329737             0.128658             0.095841 
Rotational constants in MHz :          9885.255094          3857.058035          2873.246589 

Dipole components along the rotational axes: 
x,y,z [a.u.] :     0.362931     1.467214    -0.000746 
x,y,z [Debye]:     0.922497     3.729361    -0.001896 

 

Dipole moment calculation done in   0.0 sec 

Maximum memory used throughout the entire PROP-calculation: 7.9 MB

--------------------------------
SUGGESTED CITATIONS FOR THIS RUN
--------------------------------

Below you find a list of papers that are relevant to this ORCA run
We neither can nor want to force you to cite these papers, but we appreciate if you do
You receive ORCA, which is the product of decades of hard work by many enthusiastic individuals, for free
The only thing we kindly ask in return is that you cite our papers,
We deeply appreciate it, if you show your appreciation for ORCA by not just citing the generic ORCA reference.

Please note that relegating all ORCA citations to the supporting information does *not* help us.
SI sections are not indexed - citations you put there will not count into any citation statistics
But we need these citations in order to attract the funding resources that allow us to do what we are doing

Therefore, if you are a happy ORCA user, please consider citing a few of the papers listed below in the main body of your paper

In addition to the list printed below, the program has created the file sp_gas.bibtex that contains the list in bibtex format
You can import this file easily into all common literature databanks and citation aid programs


List of essential papers. We consider these as the minimum necessary citations

  1. Neese,F.
     Software update: the ORCA program system, version 5.0
     WIRES Comput. Molec. Sci., 2022 12(1)e1606
     doi.org/10.1002/wcms.1606
  2. Grimme,S.; Hansen,A.; Ehlert,S.; Mewes,J.
     r2SCAN-3c: A 'Swiss army knife' composite electronic-structure method
     J. Chem. Phys., 2021 154 064103
     doi.org/10.1063/5.0040021

List of papers to cite with high priority. The work reported in these papers was absolutely
necessary for this run to complete.
Our perspective: the developers of density functionals and basis sets usually get cited in chemistry papers
Good! But without the algorithms to do something with them, the functionals or basis sets would not do anything.
Hence, in our opinion, the algorithm design and method developments papers are equally worthy of getting cited

  1. Neese,F.
     An improvement of the resolution of the identity approximation for the formation of the Coulomb matrix
     J. Comp. Chem., 2003 24(14)1740-1747
     doi.org/10.1002/jcc.10318
  2. Neese,F.
     The SHARK Integral Generation and Digestion System
     J. Comp. Chem., 2022  1-16
     doi.org/10.1002/jcc.26942
  3. Lehtola,S.; Steigemann,C.; Oliveira,M.; Marques,M.
     Recent developments in Libxc - A comprehensive library of functionals for density functional theory
     Software X, 2018 7 
     doi.org/10.1016/j.softx.2017.11.002
  4. Caldeweyher,E.; Bannwarth,C.; Grimme,S.
     Extension of the D3 dispersion coefficient model
     J. Chem. Phys., 2017 147 034112-XXXX
     doi.org/10.1063/1.4993215
  5. Caldeweyher,E.; Ehlert,S.; Hansen,A.; Neugebauer,H.; Spicher,S.; Bannwarth,C.; Grimme,S.
     A generally applicable atomic-charge dependent London dispersion correction
     J. Chem. Phys., 2019 150 154122-XXXX
     doi.org/10.1063/1.5090222
  6. Caldeweyher,E.; Mewes,J.; Ehlert,S.; Grimme,S.
     Extension and evaluation of the D4 London-dispersion model for periodic systems
     Phys. Chem. Chem. Phys., 2020 22(16)8499-8512
     doi.org/10.1039/D0CP00502A

List of suggested additional citations. These are papers that are important in the 'surrounding' of 
of this run, or papers that preceded the highly important papers. If you like your results we are grateful for a citation.

  1. Neese,F.
     The ORCA program system
     WIRES Comput. Molec. Sci., 2012 2(1)73-78
     doi.org/10.1002/wcms.81
  2. Neese,F.
     Software update: the ORCA program system, version 4.0
     WIRES Comput. Molec. Sci., 2018 8(1)1-6
     doi.org/10.1002/wcms.1327
  3. Neese,F.; Wennmohs,F.; Becker,U.; Riplinger,C.
     The ORCA quantum chemistry program package
     J. Chem. Phys., 2020 152 Art. No. L224108
     doi.org/10.1063/5.0004608

List of optional additional citations

  1. Neese,F.
     Approximate second-order SCF convergence for spin unrestricted wavefunctions
     Chem. Phys. Lett., 2000 325(1-3)93-98
     doi.org/10.1016/s0009-2614(00)00662-x

Timings for individual modules:

Sum of individual times          ...       10.930 sec (=   0.182 min)
Startup calculation              ...        0.627 sec (=   0.010 min)   5.7 %
SCF iterations                   ...       10.216 sec (=   0.170 min)  93.5 %
Property calculations            ...        0.087 sec (=   0.001 min)   0.8 %
                             ****ORCA TERMINATED NORMALLY****
TOTAL RUN TIME: 0 days 0 hours 0 minutes 11 seconds 555 msec
