
                                 *****************
                                 * O   R   C   A *
                                 *****************

                                            #,                                       
                                            ###                                      
                                            ####                                     
                                            #####                                    
                                            ######                                   
                                           ########,                                 
                                     ,,################,,,,,                         
                               ,,#################################,,                 
                          ,,##########################################,,             
                       ,#########################################, ''#####,          
                    ,#############################################,,   '####,        
                  ,##################################################,,,,####,       
                ,###########''''           ''''###############################       
              ,#####''   ,,,,##########,,,,          '''####'''          '####       
            ,##' ,,,,###########################,,,                        '##       
           ' ,,###''''                  '''############,,,                           
         ,,##''                                '''############,,,,        ,,,,,,###''
      ,#''                                            '''#######################'''  
     '                                                          ''''####''''         
             ,#######,   #######,   ,#######,      ##                                
            ,#'     '#,  ##    ##  ,#'     '#,    #''#        ,####,   ,####,        
            ##       ##  ##   ,#'  ##            #'  '#       #'       #'  '#        
            ##       ##  #######   ##           ,######,      #####,   #    #        
            '#,     ,#'  ##    ##  '#,     ,#' ,#      #,     #,   #   #,  ,#        
             '#######'   ##     ##  '#######'  #'      '#     '####' # '####'        



                #########################################################
                #                        -***-                          #
                #          Department of theory and spectroscopy        #
                #                                                       #
                #                      Frank Neese                      #
                #                                                       #
                #     Directorship, Architecture, Infrastructure        #
                #                    SHARK, DRIVERS                     #
                #        Core code/Algorithms in most modules           #
                #                                                       #
                #        Max Planck Institute fuer Kohlenforschung      #
                #                Kaiser Wilhelm Platz 1                 #
                #                 D-45470 Muelheim/Ruhr                 #
                #                      Germany                          #
                #                                                       #
                #                  All rights reserved                  #
                #                        -***-                          #
                #########################################################


                         Program Version 6.0.0  -   RELEASE  -


 With contributions from (in alphabetic order):
   Daniel Aravena         : Magnetic Suceptibility
   Michael Atanasov       : Ab Initio Ligand Field Theory (pilot matlab implementation)
   Alexander A. Auer      : GIAO ZORA, VPT2 properties, NMR spectrum
   Ute Becker             : All parallelization in ORCA, NUMFREQ, NUMCALC
   Giovanni Bistoni       : ED, misc. LED, open-shell LED, HFLD
   Martin Brehm           : Molecular dynamics
   Dmytro Bykov           : pre 5.0 version of the SCF Hessian
   Marcos Casanova-Páez   : Triplet and SCS-CIS(D). UHF-(DLPNO)-IP/EA/STEOM-CCSD. UHF-CVS-IP/STEOM-CCSD
   Vijay G. Chilkuri      : MRCI spin determinant printing, contributions to CSF-ICE
   Pauline Colinet        : FMM embedding
   Dipayan Datta          : RHF DLPNO-CCSD density
   Achintya Kumar Dutta   : EOM-CC, STEOM-CC
   Nicolas Foglia         : Exact transition moments, OPA infrastructure, MCD improvements
   Dmitry Ganyushin       : Spin-Orbit,Spin-Spin,Magnetic field MRCI
   Miquel Garcia          : C-PCM and meta-GGA Hessian, CCSD/C-PCM, Gaussian charge scheme
   Tiago L. C. Gouveia    : GS-ROHF, GS-ROCIS
   Yang Guo               : DLPNO-NEVPT2, F12-NEVPT2, CIM, IAO-localization
   Andreas Hansen         : Spin unrestricted coupled pair/coupled cluster methods
   Ingolf Harden          : AUTO-CI MPn and infrastructure 
   Benjamin Helmich-Paris : MC-RPA, TRAH-(SCF,CASSCF), AVAS, COSX integrals, SCF dyn. polar.
   Lee Huntington         : MR-EOM, pCC
   Robert Izsak           : Overlap fitted RIJCOSX, COSX-SCS-MP3, EOM
   Riya Kayal             : Wick's Theorem for AUTO-CI, AUTO-CI UHF-CCSDT
   Emily Kempfer          : AUTO-CI, RHF CISDT and CCSDT
   Christian Kollmar      : KDIIS, OOCD, Brueckner-CCSD(T), CCSD density, CASPT2, CASPT2-K, improved NEVPT2
   Axel Koslowski         : Symmetry handling
   Simone Kossmann        : Meta GGA functionals, TD-DFT gradient, OOMP2, (MP2 Hessian; deprecated post 5.0)
   Lucas Lang             : DCDCAS
   Marvin Lechner         : AUTO-CI (C++ implementation), FIC-MRCC
   Spencer Leger          : CASSCF response
   Dagmar Lenk            : GEPOL surface, SMD, ORCA-2-JSON
   Dimitrios Liakos       : Extrapolation schemes; Compound Job, initial MDCI parallelization
   Dimitrios Manganas     : Further ROCIS development; embedding schemes. LFT, Crystal Embedding
   Dimitrios Pantazis     : SARC Basis sets
   Anastasios Papadopoulos: AUTO-CI, single reference methods and gradients
   Taras Petrenko         : pre 6.0 DFT Hessian and TD-DFT gradient, (ASA, deprecated), ECA, 1-Electron XAS/XES, NRVS
   Peter Pinski           : DLPNO-MP2, DLPNO-MP2 Gradient
   Christoph Reimann      : Effective Core Potentials
   Marius Retegan         : Local ZFS, SOC
   Christoph Riplinger    : Optimizer, TS searches, QM/MM, DLPNO-CCSD(T), (RO)-DLPNO pert. Triples
   Michael Roemelt        : Original ROCIS implementation
   Masaaki Saitow         : Open-shell DLPNO-CCSD energy and density
   Barbara Sandhoefer     : DKH picture change effects
   Kantharuban Sivalingam : CASSCF convergence/infrastructure, NEVPT2 and variants, FIC-MRCI
   Bernardo de Souza      : ESD, SOC TD-DFT
   Georgi Stoychev        : AutoAux, RI-MP2 NMR, DLPNO-MP2 response, X2C
   Van Anh Tran           : RI-MP2 g-tensors
   Willem Van den Heuvel  : Paramagnetic NMR
   Zikuan Wang            : NOTCH, Electric field optimization 
   Frank Wennmohs         : Technical directorship and infrastructure
   Hang Xu                : AUTO-CI-Response properties 


 We gratefully acknowledge several colleagues who have allowed us to
 interface, adapt or use parts of their codes:
   Stefan Grimme, W. Hujo, H. Kruse, P. Pracht,  : VdW corrections, initial TS optimization,
                  C. Bannwarth, S. Ehlert,         DFT functionals, gCP, sTDA/sTD-DF
                  L. Wittmann, M. Mueller
   Ed Valeev, F. Pavosevic, A. Kumar             : LibInt (2-el integral package), F12 methods
   Garnet Chan, S. Sharma, J. Yang, R. Olivares  : DMRG
   Ulf Ekstrom                                   : XCFun DFT Library
   Mihaly Kallay                                 : mrcc  (arbitrary order and MRCC methods)
   Frank Weinhold                                : gennbo (NPA and NBO analysis)
   Simon Mueller                                 : openCOSMO-RS
   Christopher J. Cramer and Donald G. Truhlar   : smd solvation model
   Lars Goerigk                                  : TD-DFT with DH, B97 family of functionals
   V. Asgeirsson, H. Jonsson                     : NEB implementation
   FAccTs GmbH                                   : IRC, NEB, NEB-TS, DLPNO-Multilevel, CI-OPT
                                                   MM, QMMM, 2- and 3-layer-ONIOM, Crystal-QMMM,
                                                   LR-CPCM, SF, NACMEs, symmetry and pop. for TD-DFT,
                                                   nearIR, NL-DFT gradient (VV10), updates on ESD,
                                                   ML-optimized integration grids, MBIS, APM,
                                                   GOAT, DOCKER, SOLVATOR, interface openCOSMO-RS
   S Lehtola, MJT Oliveira, MAL Marques          : LibXC Library
   Liviu Ungur et al                             : ANISO software


 Your calculation uses the libint2 library for the computation of 2-el integrals
 For citations please refer to: http://libint.valeyev.net

 Your ORCA version has been built with support for libXC version: 6.2.2
 For citations please refer to: https://libxc.gitlab.io

 This ORCA versions uses:
   CBLAS   interface :  Fast vector & matrix operations
   LAPACKE interface :  Fast linear algebra routines
   SCALAPACK package :  Parallel linear algebra routines
   Shared memory     :  Shared parallel matrices
   BLAS/LAPACK       :  OpenBLAS 0.3.27  USE64BITINT DYNAMIC_ARCH NO_AFFINITY SkylakeX SINGLE_THREADED
        Core in use  :  SkylakeX
   Copyright (c) 2011-2014, The OpenBLAS Project


Your calculation utilizes the geometrical counterpoise correction gCP
Please cite in your paper:
H.Kruse, S. Grimme J.Chem.Phys., 136, (2012), 154101 
   

Your calculation utilizes the DFT-NL dispersion correction.
Cite in your paper:
Vydrov, O. A.; Van Voorhis, T. J. Chem. Phys. 2010, 133, 244103
Hujo, W.; Grimme, S. J. Chem. Theory Comput. 2011, 7, 3866 
   

Your calculation utilizes the SMD solvation module
Please cite in your paper:
A.V. Marenich, C.J. Cramer, D.G. Truhlar J. Phys. Chem. B, 113, (2009), 6378 

================================================================================

----- Orbital basis set information -----
Your calculation utilizes the basis: def2-TZVP
   F. Weigend and R. Ahlrichs, Phys. Chem. Chem. Phys. 7, 3297 (2005).

----- AuxJ basis set information -----
Your calculation utilizes the auxiliary basis: def2/J
   F. Weigend, Phys. Chem. Chem. Phys. 8, 1057 (2006).

================================================================================
                                        WARNINGS
                       Please study these warnings very carefully!
================================================================================


================================================================================
                                       INPUT FILE
================================================================================
NAME = sp_solv.inp
|  1> ! wb97x-v def2-tzvp def2/J RIJCOSX DEFGRID2 scfconv7 GCP(DFT/TZ) printgap
|  2> %output
|  3>     printlevel normal
|  4> end
|  5> %cpcm
|  6>     smd true
|  7>     smdsolvent "water"
|  8> end
|  9> * xyz 0 1
| 10> C 1.5886427749837213 1.5150624851722319 1.388867289226706
| 11> C 0.25982060841120924 0.7845479269559772 1.4059076095555783
| 12> H -0.21353621134567166 1.1250307410419271 2.33289893217271
| 13> C 0.2587075389986824 -0.783110188377255 1.406980290092071
| 14> H -0.21471704221493818 -1.121681153583757 2.334636796240687
| 15> C 1.586530876000924 -1.5155431925463174 1.390193102728439
| 16> O 2.384836008484809 -1.2813247693872538 0.19651126247982714
| 17> S 3.4536673740857995 -0.0019280028377484095 0.2093528583237385
| 18> O 4.1221648132993804 -0.0018285853739270406 1.5382252602175817
| 19> O 2.3866962838332317 1.2789802496107243 0.19541704672754237
| 20> C -0.7191303119844691 -1.124945003309492 0.23826735966635085
| 21> C -0.1148938523452272 -0.6701499030012386 -1.0845463546740797
| 22> C -0.113597440736277 0.668028446076501 -1.085614246356601
| 23> C -0.7171190879672327 1.1261517613962637 0.2363924826393099
| 24> C -1.7933613643210327 0.001680387746462822 0.3998647171853862
| 25> Cl -3.043226552178224 0.001716735551589006 -0.8845059004796837
| 26> Cl -2.6383600276001764 0.0036901207677014886 1.9764001326650118
| 27> Cl -1.3357339341910952 2.7871982263785404 0.2596137297231214
| 28> Cl 0.4294775697806332 1.7090543891647774 -2.322084803821302
| 29> Cl 0.42618639582524154 -1.7142826384522165 -2.3192651996081732
| 30> Cl -1.340716920829145 -2.7848416707865282 0.26445751340962376
| 31> H 2.1627615868679473 1.2552881328767171 2.284127839526255
| 32> H 1.4199879265900235 2.59506892921605 1.4015834813210437
| 33> H 2.161138580475718 -1.2560837657438637 2.285224746402122
| 34> H 1.4163426796768863 -2.5953041082110437 1.4035368921543334
| 35> *
| 36> 
| 37>                          ****END OF INPUT****
================================================================================

                       ****************************
                       * Single Point Calculation *
                       ****************************

---------------------------------
CARTESIAN COORDINATES (ANGSTROEM)
---------------------------------
  C      1.588643    1.515062    1.388867
  C      0.259821    0.784548    1.405908
  H     -0.213536    1.125031    2.332899
  C      0.258708   -0.783110    1.406980
  H     -0.214717   -1.121681    2.334637
  C      1.586531   -1.515543    1.390193
  O      2.384836   -1.281325    0.196511
  S      3.453667   -0.001928    0.209353
  O      4.122165   -0.001829    1.538225
  O      2.386696    1.278980    0.195417
  C     -0.719130   -1.124945    0.238267
  C     -0.114894   -0.670150   -1.084546
  C     -0.113597    0.668028   -1.085614
  C     -0.717119    1.126152    0.236392
  C     -1.793361    0.001680    0.399865
  Cl    -3.043227    0.001717   -0.884506
  Cl    -2.638360    0.003690    1.976400
  Cl    -1.335734    2.787198    0.259614
  Cl     0.429478    1.709054   -2.322085
  Cl     0.426186   -1.714283   -2.319265
  Cl    -1.340717   -2.784842    0.264458
  H      2.162762    1.255288    2.284128
  H      1.419988    2.595069    1.401583
  H      2.161139   -1.256084    2.285225
  H      1.416343   -2.595304    1.403537

----------------------------
CARTESIAN COORDINATES (A.U.)
----------------------------
  NO LB      ZA    FRAG     MASS         X           Y           Z
   0 C     6.0000    0    12.011    3.002100    2.863053    2.624579
   1 C     6.0000    0    12.011    0.490990    1.482581    2.656780
   2 H     1.0000    0     1.008   -0.403525    2.126000    4.408540
   3 C     6.0000    0    12.011    0.488886   -1.479864    2.658807
   4 H     1.0000    0     1.008   -0.405756   -2.119670    4.411824
   5 C     6.0000    0    12.011    2.998109   -2.863962    2.627084
   6 O     8.0000    0    15.999    4.506687   -2.421353    0.371352
   7 S    16.0000    0    32.060    6.526485   -0.003643    0.395620
   8 O     8.0000    0    15.999    7.789763   -0.003456    2.906824
   9 O     8.0000    0    15.999    4.510202    2.416922    0.369285
  10 C     6.0000    0    12.011   -1.358959   -2.125838    0.450260
  11 C     6.0000    0    12.011   -0.217118   -1.266400   -2.049496
  12 C     6.0000    0    12.011   -0.214668    1.262391   -2.051514
  13 C     6.0000    0    12.011   -1.355159    2.128118    0.446717
  14 C     6.0000    0    12.011   -3.388962    0.003175    0.755635
  15 Cl   17.0000    0    35.453   -5.750865    0.003244   -1.671474
  16 Cl   17.0000    0    35.453   -4.985778    0.006973    3.734855
  17 Cl   17.0000    0    35.453   -2.524171    5.267041    0.490599
  18 Cl   17.0000    0    35.453    0.811595    3.229645   -4.388104
  19 Cl   17.0000    0    35.453    0.805376   -3.239525   -4.382776
  20 Cl   17.0000    0    35.453   -2.533588   -5.262588    0.499752
  21 H     1.0000    0     1.008    4.087027    2.372151    4.316376
  22 H     1.0000    0     1.008    2.683388    4.903970    2.648609
  23 H     1.0000    0     1.008    4.083960   -2.373654    4.318449
  24 H     1.0000    0     1.008    2.676500   -4.904414    2.652300

--------------------------------
INTERNAL COORDINATES (ANGSTROEM)
--------------------------------
 C      0   0   0     0.000000000000     0.00000000     0.00000000
 C      1   0   0     1.516479555634     0.00000000     0.00000000
 H      2   1   0     1.095129278992   103.79762974     0.00000000
 C      2   1   3     1.567658877479   118.83880034   240.02292173
 H      4   2   1     1.095129091011   108.06207435   117.74467081
 C      4   2   1     1.516527193803   118.83819861   359.96776735
 O      6   4   2     1.455000237126   114.31343375   296.84713354
 S      7   6   4     1.667159704687   117.96730312    89.82403960
 O      8   7   6     1.487545191459   107.16020496    42.24902901
 O      1   2   3     1.454973438334   114.31042147   183.18169580
 C      4   2   1     1.561700296875   102.63965924   230.80753180
 C     11   4   2     1.523737643188   109.63659477    66.06241128
 C     12  11   4     1.338179403150   107.43058251   290.83160103
 C     13  12  11     1.523751010574   107.43229818     0.00000000
 C     11   4   2     1.565046590851   101.24082785   322.76507832
 Cl    15  11   4     1.792141420943   113.87316961   175.47475606
 Cl    15  11   4     1.788712021604   114.58667873   299.94108989
 Cl    14  13  12     1.772653071843   115.55087929   200.26626458
 Cl    13  12  11     1.705146598011   127.69128274   180.85345575
 Cl    12  11   4     1.705142700842   124.86863387   111.65230068
 Cl    11   4   2     1.772656984064   114.42253016   197.74715784
 H      1   2   3     1.094799788634   109.63468485    58.94185792
 H      1   2   3     1.093169739155   109.91325446   300.60950348
 H      6   4   2     1.094794433387   109.63555254    61.08734076
 H      6   4   2     1.093172316646   109.91318676   179.42029034

---------------------------
INTERNAL COORDINATES (A.U.)
---------------------------
 C      0   0   0     0.000000000000     0.00000000     0.00000000
 C      1   0   0     2.865731047840     0.00000000     0.00000000
 H      2   1   0     2.069494418534   103.79762974     0.00000000
 C      2   1   3     2.962445949845   118.83880034   240.02292173
 H      4   2   1     2.069494063300   108.06207435   117.74467081
 C      4   2   1     2.865821070931   118.83819861   359.96776735
 O      6   4   2     2.749551972959   114.31343375   296.84713354
 S      7   6   4     3.150475263368   117.96730312    89.82403960
 O      8   7   6     2.811053023690   107.16020496    42.24902901
 O      1   2   3     2.749501330580   114.31042147   183.18169580
 C      4   2   1     2.951185864357   102.63965924   230.80753180
 C     11   4   2     2.879446845572   109.63659477    66.06241128
 C     12  11   4     2.528792590009   107.43058251   290.83160103
 C     13  12  11     2.879472106271   107.43229818     0.00000000
 C     11   4   2     2.957509443535   101.24082785   322.76507832
 Cl    15  11   4     3.386656478839   113.87316961   175.47475606
 Cl    15  11   4     3.380175853285   114.58667873   299.94108989
 Cl    14  13  12     3.349828836238   115.55087929   200.26626458
 Cl    13  12  11     3.222260088428   127.69128274   180.85345575
 Cl    12  11   4     3.222252723847   124.86863387   111.65230068
 Cl    11   4   2     3.349836229263   114.42253016   197.74715784
 H      1   2   3     2.068871771993   109.63468485    58.94185792
 H      1   2   3     2.065791424893   109.91325446   300.60950348
 H      6   4   2     2.068861652043   109.63555254    61.08734076
 H      6   4   2     2.065796295645   109.91318676   179.42029034

---------------------
BASIS SET INFORMATION
---------------------
There are 5 groups of distinct atoms

 Group   1 Type C   : 11s6p2d1f contracted to 5s3p2d1f pattern {62111/411/11/1}
 Group   2 Type H   : 5s1p contracted to 3s1p pattern {311/1}
 Group   3 Type O   : 11s6p2d1f contracted to 5s3p2d1f pattern {62111/411/11/1}
 Group   4 Type S   : 14s9p3d1f contracted to 5s5p2d1f pattern {73211/51111/21/1}
 Group   5 Type Cl  : 14s9p3d1f contracted to 5s5p2d1f pattern {73211/51111/21/1}

Atom   0C    basis set group =>   1
Atom   1C    basis set group =>   1
Atom   2H    basis set group =>   2
Atom   3C    basis set group =>   1
Atom   4H    basis set group =>   2
Atom   5C    basis set group =>   1
Atom   6O    basis set group =>   3
Atom   7S    basis set group =>   4
Atom   8O    basis set group =>   3
Atom   9O    basis set group =>   3
Atom  10C    basis set group =>   1
Atom  11C    basis set group =>   1
Atom  12C    basis set group =>   1
Atom  13C    basis set group =>   1
Atom  14C    basis set group =>   1
Atom  15Cl   basis set group =>   5
Atom  16Cl   basis set group =>   5
Atom  17Cl   basis set group =>   5
Atom  18Cl   basis set group =>   5
Atom  19Cl   basis set group =>   5
Atom  20Cl   basis set group =>   5
Atom  21H    basis set group =>   2
Atom  22H    basis set group =>   2
Atom  23H    basis set group =>   2
Atom  24H    basis set group =>   2
---------------------------------
AUXILIARY/J BASIS SET INFORMATION
---------------------------------
There are 5 groups of distinct atoms

 Group   1 Type C   : 12s5p4d2f1g contracted to 6s4p3d1f1g pattern {711111/2111/211/2/1}
 Group   2 Type H   : 5s2p1d contracted to 3s1p1d pattern {311/2/1}
 Group   3 Type O   : 12s5p4d2f1g contracted to 6s4p3d1f1g pattern {711111/2111/211/2/1}
 Group   4 Type S   : 14s5p5d2f1g contracted to 8s4p3d1f1g pattern {71111111/2111/311/2/1}
 Group   5 Type Cl  : 14s5p5d2f1g contracted to 8s4p3d1f1g pattern {71111111/2111/311/2/1}

Atom   0C    basis set group =>   1
Atom   1C    basis set group =>   1
Atom   2H    basis set group =>   2
Atom   3C    basis set group =>   1
Atom   4H    basis set group =>   2
Atom   5C    basis set group =>   1
Atom   6O    basis set group =>   3
Atom   7S    basis set group =>   4
Atom   8O    basis set group =>   3
Atom   9O    basis set group =>   3
Atom  10C    basis set group =>   1
Atom  11C    basis set group =>   1
Atom  12C    basis set group =>   1
Atom  13C    basis set group =>   1
Atom  14C    basis set group =>   1
Atom  15Cl   basis set group =>   5
Atom  16Cl   basis set group =>   5
Atom  17Cl   basis set group =>   5
Atom  18Cl   basis set group =>   5
Atom  19Cl   basis set group =>   5
Atom  20Cl   basis set group =>   5
Atom  21H    basis set group =>   2
Atom  22H    basis set group =>   2
Atom  23H    basis set group =>   2
Atom  24H    basis set group =>   2

Checking for AutoStart:
The File: sp_solv.gbw exists
Trying to determine its content:
     ... Fine, the file contains calculation information
     ... Fine, the calculation information was read
     ... Fine, the file contains a basis set
     ... Fine, the basis set was read
     ... Fine, the file contains a geometry
     ... Fine, the geometry was read
     ... Fine, the file contains a set of orbitals
     ... Fine, the orbitals can be read
     => possible old guess file was deleted
     => GBW file was renamed to GES file
     => GES file is set as startup file
     => Guess is set to MORead
     ... now leaving AutoStart

------------------------------------------------------------------------------
                             ORCA STARTUP CALCULATIONS
                           -- RI-GTO INTEGRALS CHOSEN --
------------------------------------------------------------------------------
------------------------------------------------------------------------------
                   ___                                                        
                  /   \      - P O W E R E D   B Y -                         
                 /     \                                                     
                 |  |  |   _    _      __       _____    __    __             
                 |  |  |  | |  | |    /  \     |  _  \  |  |  /  |          
                  \  \/   | |  | |   /    \    | | | |  |  | /  /          
                 / \  \   | |__| |  /  /\  \   | |_| |  |  |/  /          
                |  |  |   |  __  | /  /__\  \  |    /   |      \           
                |  |  |   | |  | | |   __   |  |    \   |  |\   \          
                \     /   | |  | | |  |  |  |  | |\  \  |  | \   \       
                 \___/    |_|  |_| |__|  |__|  |_| \__\ |__|  \__/        
                                                                              
                      - O R C A' S   B I G   F R I E N D -                    
                                      &                                       
                       - I N T E G R A L  F E E D E R -                       
                                                                              
 v1 FN, 2020, v2 2021, v3 2022-2024                                           
------------------------------------------------------------------------------


----------------------
SHARK INTEGRAL PACKAGE
----------------------

Number of atoms                             ...     25
Number of basis functions                   ...    667
Number of shells                            ...    247
Maximum angular momentum                    ...      3
Integral batch strategy                     ... SHARK/LIBINT Hybrid
RI-J (if used) integral strategy            ... SPLIT-RIJ (Revised 2003 algorithm where possible)
Printlevel                                  ...      1
Contraction scheme used                     ... SEGMENTED contraction
Prescreening option                         ... SCHWARTZ
   Thresh                                   ... 3.000e-11
   Tcut                                     ... 1.000e-12
   Tpresel                                  ... 1.000e-12 
Coulomb Range Separation                    ... NOT USED
Exchange Range Separation                   ... Long Range
   Mu parameter                             ... 3.000e-01
   Scaling (regular/separated)              ... 1.670e-01 8.330e-01
Multipole approximations                    ... NOT USED
Finite Nucleus Model                        ... NOT USED
CABS basis                                  ... NOT available
Auxiliary Coulomb fitting basis             ... AVAILABLE
   # of basis functions in Aux-J            ...   1011
   # of shells in Aux-J                     ...    329
   Maximum angular momentum in Aux-J        ...      4
Auxiliary J/K fitting basis                 ... NOT available
Auxiliary Correlation fitting basis         ... NOT available
Auxiliary 'external' fitting basis          ... NOT available

Checking pre-screening integrals            ... done (  0.0 sec) Dimension = 247
Check shell pair data                       ... done (  0.0 sec)
Shell pair information
Shell pair cut-off parameter TPreSel        ...   1.0e-12
Total number of shell pairs                 ...     30628
Shell pairs after pre-screening             ...     24442
Total number of primitive shell pairs       ...    108879
Primitive shell pairs kept                  ...     55676
          la=0 lb=0:   4804 shell pairs
          la=1 lb=0:   6864 shell pairs
          la=1 lb=1:   2489 shell pairs
          la=2 lb=0:   3434 shell pairs
          la=2 lb=1:   2495 shell pairs
          la=2 lb=2:    664 shell pairs
          la=3 lb=0:   1686 shell pairs
          la=3 lb=1:   1213 shell pairs
          la=3 lb=2:    631 shell pairs
          la=3 lb=3:    162 shell pairs

Calculating one electron integrals          ... done (  0.2 sec)
Calculating RI/J V-Matrix + Cholesky decomp.... done (  0.1 sec)
Calculating Nuclear repulsion               ... done (  0.0 sec) ENN=   2905.200933881953 Eh

Diagonalization of the overlap matrix:
Smallest eigenvalue                        ... 1.109e-05
Time for diagonalization                   ...    0.069 sec
Threshold for overlap eigenvalues          ... 1.000e-07
Number of eigenvalues below threshold      ... 0
Time for construction of square roots      ...    0.073 sec
Total time needed                          ...    0.151 sec

-------------------
DFT GRID GENERATION
-------------------

General Integration Accuracy     IntAcc      ... 4.388
Radial Grid Type                 RadialGrid  ... OptM3 with GC (2021)
Angular Grid (max. ang.)         AngularGrid ... 4 (Lebedev-302)
Angular grid pruning method      GridPruning ... 4 (adaptive)
Weight generation scheme         WeightScheme... mBecke (2022)
Basis function cutoff            BFCut       ... 1.0000e-11
Integration weight cutoff        WCut        ... 1.0000e-14
Partially contracted basis set               ... off
Rotationally invariant grid construction     ... off
Angular grids for H and He will be reduced by one unit

Total number of grid points                  ...   140959
Total number of batches                      ...     2217
Average number of points per batch           ...       63
Average number of grid points per atom       ...     5638

--------------------
COSX GRID GENERATION
--------------------

GRIDX 1
-------
General Integration Accuracy     IntAcc      ... 3.816
Radial Grid Type                 RadialGrid  ... OptM3 with GC (2021)
Angular Grid (max. ang.)         AngularGrid ... 1 (Lebedev-50)
Angular grid pruning method      GridPruning ... 4 (adaptive)
Weight generation scheme         WeightScheme... mBecke (2022)
Basis function cutoff            BFCut       ... 1.0000e-11
Integration weight cutoff        WCut        ... 1.0000e-14
Partially contracted basis set               ... on
Rotationally invariant grid construction     ... off
Angular grids for H and He will be reduced by one unit

Total number of grid points                  ...    24943
Total number of batches                      ...      207
Average number of points per batch           ...      120
Average number of grid points per atom       ...      998
UseSFitting                                  ... on

GRIDX 2
-------
General Integration Accuracy     IntAcc      ... 4.020
Radial Grid Type                 RadialGrid  ... OptM3 with GC (2021)
Angular Grid (max. ang.)         AngularGrid ... 2 (Lebedev-110)
Angular grid pruning method      GridPruning ... 4 (adaptive)
Weight generation scheme         WeightScheme... mBecke (2022)
Basis function cutoff            BFCut       ... 1.0000e-11
Integration weight cutoff        WCut        ... 1.0000e-14
Partially contracted basis set               ... on
Rotationally invariant grid construction     ... off
Angular grids for H and He will be reduced by one unit

Total number of grid points                  ...    38729
Total number of batches                      ...      315
Average number of points per batch           ...      122
Average number of grid points per atom       ...     1549
UseSFitting                                  ... on

GRIDX 3
-------
General Integration Accuracy     IntAcc      ... 4.338
Radial Grid Type                 RadialGrid  ... OptM3 with GC (2021)
Angular Grid (max. ang.)         AngularGrid ... 3 (Lebedev-194)
Angular grid pruning method      GridPruning ... 4 (adaptive)
Weight generation scheme         WeightScheme... mBecke (2022)
Basis function cutoff            BFCut       ... 1.0000e-11
Integration weight cutoff        WCut        ... 1.0000e-14
Partially contracted basis set               ... on
Rotationally invariant grid construction     ... off
Angular grids for H and He will be reduced by one unit

Total number of grid points                  ...    88921
Total number of batches                      ...      709
Average number of points per batch           ...      125
Average number of grid points per atom       ...     3557
UseSFitting                                  ... on
Initializing property integral containers    ... done (  0.0 sec)

SHARK setup successfully completed in   7.5 seconds

Maximum memory used throughout the entire STARTUP-calculation: 125.4 MB
-------------------------------------------------------------------------------
                                 ORCA GUESS
                   Start orbitals & Density for SCF / CASSCF
-------------------------------------------------------------------------------

------------
SCF SETTINGS
------------
Hamiltonian:
 Density Functional     Method          .... DFT(GTOs)
 Exchange Functional    Exchange        .... WB97X-V
 Correlation Functional Correlation     .... WB97X-V
 Gradients option       PostSCFGGA      .... off
 Hybrid DFT is turned on
   Fraction HF Exchange ScalHFX         ....  0.167000
   Scaling of DF-GGA-X  ScalDFX         ....  0.000000
   Scaling of DF-GGA-C  ScalDFC         ....  1.000000
   Scaling of DF-LDA-C  ScalLDAC        ....  1.000000
   Perturbative correction              ....  0.000000
 Long-range corrected/Screened/Range-Separated Hybrid DFT is turned on
   Amount of maximum screened exact exchange              ....  0.833000
   Range separation parameter mu (erf(mu*r12)/r12)        ....  0.300000
   NL short-range parameter             ....  6.000000
   NL long-range parameter              ....  0.010000
 RI-approximation to the Coulomb term is turned on
   Number of AuxJ basis functions       .... 1011
   RIJ-COSX (HFX calculated with COS-X)).... on


General Settings:
 Integral files         IntName         .... sp_solv
 Hartree-Fock type      HFTyp           .... RHF
 Total Charge           Charge          ....    0
 Multiplicity           Mult            ....    1
 Number of Electrons    NEL             ....  202
 Basis Dimension        Dim             ....  667
 Nuclear Repulsion      ENuc            ....   2905.2009338820 Eh

Convergence Acceleration:
 AO-DIIS                CNVDIIS         .... on
   Start iteration      DIISMaxIt       ....    12
   Startup error        DIISStart       ....  0.200000
   # of expansion vecs  DIISMaxEq       ....     5
   Bias factor          DIISBfac        ....   1.050
   Max. coefficient     DIISMaxC        ....  10.000
 MO-DIIS                CNVKDIIS        .... off
 Trust-Rad. Augm. Hess. CNVTRAH         .... auto
   Auto Start mean grad. ratio tolernc. ....  1.125000
   Auto Start start iteration           ....     1
   Auto Start num. interpolation iter.  ....    10
   Max. Number of Micro iterations      ....    24
   Max. Number of Macro iterations      .... Maxiter - #DIIS iter
   Number of Davidson start vectors     ....     2
   Converg. threshold    (grad. norm)   ....   1.000e-04
   Grad. Scal. Fac. for Micro threshold ....   0.100
   Minimum threshold for Micro iter.    ....   1.000e-02
   NR start threshold (gradient norm)   ....   1.000e-04
   Initial trust radius                 ....   0.400
   Minimum AH scaling param. (alpha)    ....   1.000
   Maximum AH scaling param. (alpha)    .... 1000.000
   Quad. conv. algorithm                .... NR
   White noise on init. David. guess    .... on
   Maximum white noise                  ....   0.010
   Pseudo random numbers                .... off
   Inactive MOs                         .... canonical
   Orbital update algorithm             .... Taylor
   Preconditioner                       .... Diag
   Full preconditioner red. dimension   ....   250
 SOSCF                  CNVSOSCF        .... on
   Start iteration      SOSCFMaxIt      ....   150
   Startup grad/error   SOSCFStart      ....  0.003300
   Hessian update       SOSCFHessUp     .... L-BFGS
 Level Shifting         CNVShift        .... on
   Level shift para.    LevelShift      ....    0.2500
   Turn off err/grad.   ShiftErr        ....    0.0010
 Zerner damping         CNVZerner       .... off
 Static damping         CNVDamp         .... on
   Fraction old density DampFac         ....    0.7000
   Max. Damping (<1)    DampMax         ....    0.9800
   Min. Damping (>=0)   DampMin         ....    0.0000
   Turn off err/grad.   DampErr         ....    0.1000

SCF Procedure:
 Maximum # iterations   MaxIter         ....   125
 SCF integral mode      SCFMode         .... Direct
   Integral package                     .... SHARK and LIBINT hybrid scheme
 Reset frequency        DirectResetFreq ....    20
 Integral Threshold     Thresh          ....  3.000e-11 Eh
 Primitive CutOff       TCut            ....  1.000e-12 Eh

Convergence Tolerance:
 Convergence Check Mode ConvCheckMode   .... Total+1el-Energy
 Convergence forced     ConvForced      .... 0
 Energy Change          TolE            ....  1.000e-07 Eh
 1-El. energy change                    ....  1.000e-04 Eh
 Orbital Gradient       TolG            ....  1.000e-04
 Orbital Rotation angle TolX            ....  1.000e-04
 DIIS Error             TolErr          ....  1.000e-07

---------------------
INITIAL GUESS: MOREAD
---------------------
Guess MOs are being read from file: sp_solv.ges
Input Geometry matches current geometry (good)
Atom 0: N(Shells)= 11 and 9 - projection required
Input basis set needs projection
NBasis(read)= 462
NBasis(calc)= 667
Basis set overlap was calculated
Using GuessMode=FMatrix for the initial guess
C*T matrix was formed
Effective Fockian was calculated
Effective Fockian was diagonalized
Initial density was built
                      ------------------
                      INITIAL GUESS DONE (   0.3 sec)
                      ------------------
             **** ENERGY FILE WAS UPDATED (sp_solv.en.tmp) ****
Finished Guess after   0.8 sec
Maximum memory used throughout the entire GUESS-calculation: 108.4 MB

-------------------------------------------------------------------------------------------
                                      ORCA LEAN-SCF
                              memory conserving SCF solver
-------------------------------------------------------------------------------------------

--------------------
CPCM SOLVATION MODEL
--------------------
CPCM parameters:
  Epsilon                                         ...      78.3550
  Refrac                                          ...       1.3328
  Rsolv                                           ...       1.3000
  Surface type                                    ... GAUSSIAN VDW
  Discretization scheme                           ... Constant charge density
    Threshold for H atoms                         ...       5.0000 (charges/Ang^2)
    Threshold for non-H atoms                     ...       5.0000 (charges/Ang^2)
  Epsilon function type                           ...         CPCM
Solvent:                                          ... WATER
SMD-CDS solvent descriptors:
  Soln                                            ...       1.3328
  Soln25                                          ...       1.3323
  Sola                                            ...       0.0000
  Solb                                            ...       0.0000
  Solg                                            ...       0.0000
  Solc                                            ...       0.0000
  Solh                                            ...       0.0000
Radii:
  Scheme                                          ... Element-dependent radii
  Radius for C  used is    3.4960 Bohr (=   1.8500 Ang.)
  Radius for H  used is    2.2677 Bohr (=   1.2000 Ang.)
  Radius for O  used is    2.8724 Bohr (=   1.5200 Ang.)
  Radius for S  used is    4.7054 Bohr (=   2.4900 Ang.)
  Radius for Cl used is    4.4975 Bohr (=   2.3800 Ang.)
Calculating surface                               ...        done! (  0.0s)
Cavity surface points                             ...         2056
Cavity Volume                                     ...    2685.8271
Cavity Surface-area                               ...    1160.5363
Calculating surface distance matrix               ...        done! (  0.0s)
Performing Cholesky decomposition & store         ...        done! (  0.2s)
Overall time for CPCM initialization              ...                 0.2s

----------------------------------------D-I-I-S--------------------------------------------
Iteration    Energy (Eh)           Delta-E    RMSDP     MaxDP     DIISErr   Damp  Time(sec)
-------------------------------------------------------------------------------------------
               ***  Starting incremental Fock matrix formation  ***
    1    -3731.9862535145616675     0.00e+00  2.34e-03  3.24e-01  5.52e-02  0.700 118.9
    2    -3732.0076066439783062    -2.14e-02  1.83e-03  2.42e-01  4.11e-02  0.700  68.9
                               ***Turning on AO-DIIS***
    3    -3732.0237003415827530    -1.61e-02  1.40e-03  1.77e-01  2.99e-02  0.700  61.1
    4    -3732.0355787780549690    -1.19e-02  3.38e-03  4.16e-01  2.15e-02  0.000  56.6
                              *** Initializing SOSCF ***
---------------------------------------S-O-S-C-F--------------------------------------
Iteration    Energy (Eh)           Delta-E    RMSDP     MaxDP     MaxGrad    Time(sec)
--------------------------------------------------------------------------------------
    5    -3732.0660594616224444    -3.05e-02  1.23e-04  7.17e-03  1.49e-03    61.6
               *** Restarting incremental Fock matrix formation ***
    6    -3732.0662116827065802    -1.52e-04  7.09e-05  3.52e-03  8.75e-04   104.2
    7    -3732.0662557937152997    -4.41e-05  5.05e-05  3.12e-03  3.07e-04    73.9
    8    -3732.0662610924787259    -5.30e-06  1.09e-05  7.11e-04  1.67e-04    72.2
    9    -3732.0662637233194801    -2.63e-06  3.98e-06  1.97e-04  3.53e-05    62.2
   10    -3732.0662638019707629    -7.87e-08  1.32e-06  6.58e-05  2.41e-05    56.4
                 **** Energy Check signals convergence ****

               *****************************************************
               *                     SUCCESS                       *
               *           SCF CONVERGED AFTER  10 CYCLES          *
               *****************************************************


------------------
NL GRID GENERATION
------------------

General Integration Accuracy     IntAcc      ... 4.004
Radial Grid Type                 RadialGrid  ... OptM3 with GC (2021)
Angular Grid (max. ang.)         AngularGrid ... 2 (Lebedev-110)
Angular grid pruning method      GridPruning ... 4 (adaptive)
Weight generation scheme         WeightScheme... mBecke (2022)
Basis function cutoff            BFCut       ... 1.0000e-10
Integration weight cutoff        WCut        ... 1.0000e-14
Partially contracted basis set               ... off
Rotationally invariant grid construction     ... off
Angular grids for H and He will be reduced by one unit

Total number of grid points                  ...    45304
Total number of batches                      ...      720
Average number of points per batch           ...       62
Average number of grid points per atom       ...     1812
Final grid set up in    0.5 sec

-------------------------------------------------------------------------------
                    post-SCF DFT-NL dispersion correction                      
-------------------------------------------------------------------------------

SCF Energy:    -3732.066263802 
NL    Energy:      0.766887031 
SC+NL Energy:  -3731.299376771 
NL done in  :              8.2 sec
-------------------------------------------------------------------------------
Recomputing exchange energy using gridx3       ... done (  181.114 sec)
Old exchange energy                            :    -70.901290101 Eh
New exchange energy                            :    -70.901261353 Eh
Exchange energy change after final integration :      0.000028748 Eh
Total energy after final integration           :  -3731.299348023 Eh

SMD CDS free energy correction energy :                 2.87227     Kcal/mol
Total Energy after SMD CDS correction =             -3731.294770762 Eh
             **** ENERGY FILE WAS UPDATED (sp_solv.en.tmp) ****

----------------
TOTAL SCF ENERGY
----------------

Total Energy       :      -3731.29477076242665 Eh         -101533.69259 eV

Components:
Nuclear Repulsion  :       2905.20093388195301 Eh           79054.53647 eV
Electronic Energy  :      -6637.24583973180779 Eh         -180608.64126 eV
One Electron Energy:     -10933.31533589035462 Eh         -297510.63544 eV
Two Electron Energy:       4296.06949615854683 Eh          116901.99417 eV
CPCM Dielectric    :         -0.02135795211601 Eh              -0.58118 eV
SMD CDS (Gcds)     :          0.00457726020386 Eh               0.12455 eV

Virial components:
Potential Energy   :      -7455.20344901100088 Eh         -202866.39938 eV
Kinetic Energy     :       3723.90867824857423 Eh          101332.70679 eV
Virial Ratio       :          2.00198342471635

DFT components:
N(Alpha)           :      101.000066319147 electrons
N(Beta)            :      101.000066319147 electrons
N(Total)           :      202.000132638293 electrons
E(X)               :     -191.688114620079 Eh       
E(C)               :       -9.875071728291 Eh       
NL Energy, E(C,NL) :        0.766887031326 Eh       
E(XC)              :     -200.796299317045 Eh       

CPCM Solvation Model Properties:
Surface-charge          :         -0.01695980415287
Corrected charge        :         -0.00000000000000
Outlying charge corr.   :          0.00001573938393 Eh               0.00043 eV
Free-energy (cav+disp)  :          0.00457726020386 Eh               0.12455 eV

---------------
SCF CONVERGENCE
---------------

  Last Energy change         ...    7.8651e-08  Tolerance :   1.0000e-07
  Last MAX-Density change    ...    6.5797e-05  Tolerance :   1.0000e-05
  Last RMS-Density change    ...    1.3181e-06  Tolerance :   1.0000e-06
  Last DIIS Error            ...    1.4918e-03  Tolerance :   1.0000e-07
  Last Orbital Gradient      ...    2.4126e-05  Tolerance :   1.0000e-04
  Last Orbital Rotation      ...    3.4092e-05  Tolerance :   1.0000e-04


----------------
ORBITAL ENERGIES
----------------

  NO   OCC          E(Eh)            E(eV) 
   0   2.0000    -107.173350     -2916.3351 
   1   2.0000    -107.173321     -2916.3343 
   2   2.0000    -107.168953     -2916.2155 
   3   2.0000    -107.165788     -2916.1293 
   4   2.0000    -107.162848     -2916.0494 
   5   2.0000    -107.162834     -2916.0490 
   6   2.0000     -94.320645     -2566.5952 
   7   2.0000     -21.731165      -591.3351 
   8   2.0000     -21.731048      -591.3319 
   9   2.0000     -21.689354      -590.1973 
  10   2.0000     -12.217028      -332.4422 
  11   2.0000     -12.174502      -331.2850 
  12   2.0000     -12.173978      -331.2708 
  13   2.0000     -12.146255      -330.5164 
  14   2.0000     -12.143693      -330.4467 
  15   2.0000     -12.119647      -329.7924 
  16   2.0000     -12.119505      -329.7885 
  17   2.0000     -12.095841      -329.1446 
  18   2.0000     -12.094731      -329.1144 
  19   2.0000     -11.326078      -308.1983 
  20   2.0000     -11.326064      -308.1979 
  21   2.0000     -11.322298      -308.0954 
  22   2.0000     -11.319028      -308.0064 
  23   2.0000     -11.316046      -307.9253 
  24   2.0000     -11.316013      -307.9244 
  25   2.0000      -9.808270      -266.8966 
  26   2.0000      -9.118149      -248.1175 
  27   2.0000      -9.117606      -248.1027 
  28   2.0000      -9.115235      -248.0382 
  29   2.0000      -9.115174      -248.0365 
  30   2.0000      -9.114679      -248.0230 
  31   2.0000      -9.114642      -248.0220 
  32   2.0000      -9.114001      -248.0046 
  33   2.0000      -9.111403      -247.9339 
  34   2.0000      -9.110971      -247.9221 
  35   2.0000      -9.110165      -247.9002 
  36   2.0000      -9.107911      -247.8389 
  37   2.0000      -9.107695      -247.8330 
  38   2.0000      -9.107559      -247.8293 
  39   2.0000      -9.107410      -247.8252 
  40   2.0000      -9.104867      -247.7560 
  41   2.0000      -9.104788      -247.7539 
  42   2.0000      -9.104787      -247.7539 
  43   2.0000      -9.104697      -247.7514 
  44   2.0000      -7.787141      -211.8989 
  45   2.0000      -7.786772      -211.8888 
  46   2.0000      -7.782294      -211.7670 
  47   2.0000      -1.760896       -47.9164 
  48   2.0000      -1.709100       -46.5070 
  49   2.0000      -1.695207       -46.1289 
  50   2.0000      -1.521490       -41.4018 
  51   2.0000      -1.466782       -39.9132 
  52   2.0000      -1.451279       -39.4913 
  53   2.0000      -1.434176       -39.0259 
  54   2.0000      -1.432019       -38.9672 
  55   2.0000      -1.407636       -38.3037 
  56   2.0000      -1.393705       -37.9246 
  57   2.0000      -1.346454       -36.6389 
  58   2.0000      -1.297231       -35.2995 
  59   2.0000      -1.295950       -35.2646 
  60   2.0000      -1.242988       -33.8234 
  61   2.0000      -1.232580       -33.5402 
  62   2.0000      -1.161843       -31.6154 
  63   2.0000      -1.134476       -30.8707 
  64   2.0000      -1.095230       -29.8027 
  65   2.0000      -1.071736       -29.1634 
  66   2.0000      -1.068976       -29.0883 
  67   2.0000      -1.041346       -28.3365 
  68   2.0000      -1.031626       -28.0720 
  69   2.0000      -1.012935       -27.5634 
  70   2.0000      -1.005543       -27.3622 
  71   2.0000      -0.984066       -26.7778 
  72   2.0000      -0.980258       -26.6742 
  73   2.0000      -0.963226       -26.2107 
  74   2.0000      -0.959369       -26.1058 
  75   2.0000      -0.954229       -25.9659 
  76   2.0000      -0.943631       -25.6775 
  77   2.0000      -0.940194       -25.5840 
  78   2.0000      -0.921395       -25.0724 
  79   2.0000      -0.920701       -25.0536 
  80   2.0000      -0.919942       -25.0329 
  81   2.0000      -0.892970       -24.2989 
  82   2.0000      -0.874013       -23.7831 
  83   2.0000      -0.869772       -23.6677 
  84   2.0000      -0.854476       -23.2515 
  85   2.0000      -0.849003       -23.1025 
  86   2.0000      -0.843238       -22.9457 
  87   2.0000      -0.831630       -22.6298 
  88   2.0000      -0.828940       -22.5566 
  89   2.0000      -0.827452       -22.5161 
  90   2.0000      -0.819124       -22.2895 
  91   2.0000      -0.819044       -22.2873 
  92   2.0000      -0.814554       -22.1651 
  93   2.0000      -0.813923       -22.1480 
  94   2.0000      -0.813512       -22.1368 
  95   2.0000      -0.805975       -21.9317 
  96   2.0000      -0.803844       -21.8737 
  97   2.0000      -0.796679       -21.6787 
  98   2.0000      -0.792297       -21.5595 
  99   2.0000      -0.780706       -21.2441 
 100   2.0000      -0.705748       -19.2044 
 101   0.0000      -0.368673       -10.0321 
 102   0.0000      -0.359766        -9.7897 
 103   0.0000      -0.354702        -9.6519 
 104   0.0000      -0.316966        -8.6251 
 105   0.0000      -0.301842        -8.2135 
 106   0.0000      -0.294556        -8.0153 
 107   0.0000      -0.268574        -7.3083 
 108   0.0000      -0.266735        -7.2582 
 109   0.0000      -0.262400        -7.1403 
 110   0.0000      -0.259582        -7.0636 
 111   0.0000      -0.184901        -5.0314 
*Only the first 10 virtual orbitals were printed.

                    ********************************
                    * MULLIKEN POPULATION ANALYSIS *
                    ********************************

-----------------------
MULLIKEN ATOMIC CHARGES
-----------------------
   0 C :   -0.147758
   1 C :   -0.132675
   2 H :    0.179495
   3 C :   -0.132642
   4 H :    0.179480
   5 C :   -0.147669
   6 O :   -0.312857
   7 S :    0.689648
   8 O :   -0.531233
   9 O :   -0.312834
  10 C :    0.241576
  11 C :   -0.146589
  12 C :   -0.147016
  13 C :    0.241913
  14 C :    0.053189
  15 Cl:   -0.066057
  16 Cl:   -0.061802
  17 Cl:   -0.074988
  18 Cl:   -0.010791
  19 Cl:   -0.010796
  20 Cl:   -0.074963
  21 H :    0.194652
  22 H :    0.168045
  23 H :    0.194629
  24 H :    0.168042
Sum of atomic charges:   -0.0000000

--------------------------------
MULLIKEN REDUCED ORBITAL CHARGES
--------------------------------
  0 C s       :     3.235108  s :     3.235108
      pz      :     0.815035  p :     2.776057
      px      :     0.883899
      py      :     1.077124
      dz2     :     0.028360  d :     0.127129
      dxz     :     0.038009
      dyz     :     0.017203
      dx2y2   :     0.027316
      dxy     :     0.016242
      f0      :     0.001774  f :     0.009464
      f+1     :     0.001856
      f-1     :     0.001071
      f+2     :     0.001245
      f-2     :     0.001502
      f+3     :     0.001070
      f-3     :     0.000947

  1 C s       :     3.160167  s :     3.160167
      pz      :     0.976298  p :     2.838151
      px      :     0.954163
      py      :     0.907691
      dz2     :     0.019518  d :     0.126692
      dxz     :     0.025859
      dyz     :     0.020970
      dx2y2   :     0.034502
      dxy     :     0.025843
      f0      :     0.001067  f :     0.007664
      f+1     :     0.001133
      f-1     :     0.000635
      f+2     :     0.001145
      f-2     :     0.000733
      f+3     :     0.001778
      f-3     :     0.001172

  2 H s       :     0.797831  s :     0.797831
      pz      :     0.011728  p :     0.022674
      px      :     0.006068
      py      :     0.004877

  3 C s       :     3.160151  s :     3.160151
      pz      :     0.976568  p :     2.838135
      px      :     0.954078
      py      :     0.907489
      dz2     :     0.019530  d :     0.126691
      dxz     :     0.025856
      dyz     :     0.020954
      dx2y2   :     0.034517
      dxy     :     0.025834
      f0      :     0.001067  f :     0.007664
      f+1     :     0.001134
      f-1     :     0.000633
      f+2     :     0.001145
      f-2     :     0.000733
      f+3     :     0.001777
      f-3     :     0.001174

  4 H s       :     0.797847  s :     0.797847
      pz      :     0.011738  p :     0.022673
      px      :     0.006067
      py      :     0.004867

  5 C s       :     3.235041  s :     3.235041
      pz      :     0.814866  p :     2.776039
      px      :     0.884036
      py      :     1.077137
      dz2     :     0.028353  d :     0.127124
      dxz     :     0.038010
      dyz     :     0.017219
      dx2y2   :     0.027309
      dxy     :     0.016234
      f0      :     0.001775  f :     0.009463
      f+1     :     0.001857
      f-1     :     0.001069
      f+2     :     0.001242
      f-2     :     0.001504
      f+3     :     0.001070
      f-3     :     0.000945

  6 O s       :     3.770220  s :     3.770220
      pz      :     1.509337  p :     4.508151
      px      :     1.500277
      py      :     1.498537
      dz2     :     0.008785  d :     0.032839
      dxz     :     0.006481
      dyz     :     0.004787
      dx2y2   :     0.005184
      dxy     :     0.007602
      f0      :     0.000182  f :     0.001647
      f+1     :     0.000320
      f-1     :     0.000135
      f+2     :     0.000145
      f-2     :     0.000281
      f+3     :     0.000320
      f-3     :     0.000263

  7 S s       :     5.756642  s :     5.756642
      pz      :     3.134171  p :     8.819395
      px      :     2.919319
      py      :     2.765905
      dz2     :     0.143470  d :     0.652110
      dxz     :     0.117584
      dyz     :     0.106479
      dx2y2   :     0.121989
      dxy     :     0.162590
      f0      :     0.015769  f :     0.082204
      f+1     :     0.009635
      f-1     :     0.013226
      f+2     :     0.003734
      f-2     :     0.012946
      f+3     :     0.011808
      f-3     :     0.015085

  8 O s       :     3.857614  s :     3.857614
      pz      :     1.375546  p :     4.640952
      px      :     1.611429
      py      :     1.653977
      dz2     :     0.009395  d :     0.030883
      dxz     :     0.010137
      dyz     :     0.007290
      dx2y2   :     0.002205
      dxy     :     0.001856
      f0      :     0.000446  f :     0.001783
      f+1     :     0.000539
      f-1     :     0.000285
      f+2     :     0.000245
      f-2     :     0.000220
      f+3     :     0.000024
      f-3     :     0.000024

  9 O s       :     3.770218  s :     3.770218
      pz      :     1.509393  p :     4.508127
      px      :     1.501020
      py      :     1.497715
      dz2     :     0.008785  d :     0.032842
      dxz     :     0.006481
      dyz     :     0.004791
      dx2y2   :     0.005193
      dxy     :     0.007592
      f0      :     0.000182  f :     0.001647
      f+1     :     0.000319
      f-1     :     0.000135
      f+2     :     0.000145
      f-2     :     0.000282
      f+3     :     0.000320
      f-3     :     0.000263

 10 C s       :     2.869926  s :     2.869926
      pz      :     0.934749  p :     2.674533
      px      :     0.940940
      py      :     0.798845
      dz2     :     0.045807  d :     0.202833
      dxz     :     0.034124
      dyz     :     0.038377
      dx2y2   :     0.039004
      dxy     :     0.045521
      f0      :     0.001895  f :     0.011132
      f+1     :     0.001383
      f-1     :     0.001429
      f+2     :     0.001184
      f-2     :     0.001556
      f+3     :     0.001783
      f-3     :     0.001901

 11 C s       :     3.206390  s :     3.206390
      pz      :     0.880265  p :     2.765369
      px      :     0.989854
      py      :     0.895250
      dz2     :     0.036669  d :     0.163535
      dxz     :     0.022792
      dyz     :     0.042822
      dx2y2   :     0.027370
      dxy     :     0.033882
      f0      :     0.001774  f :     0.011294
      f+1     :     0.001357
      f-1     :     0.001412
      f+2     :     0.002505
      f-2     :     0.001262
      f+3     :     0.002234
      f-3     :     0.000751

 12 C s       :     3.206661  s :     3.206661
      pz      :     0.880126  p :     2.765524
      px      :     0.989822
      py      :     0.895575
      dz2     :     0.036658  d :     0.163538
      dxz     :     0.022804
      dyz     :     0.042852
      dx2y2   :     0.027385
      dxy     :     0.033840
      f0      :     0.001776  f :     0.011294
      f+1     :     0.001359
      f-1     :     0.001410
      f+2     :     0.002507
      f-2     :     0.001261
      f+3     :     0.002232
      f-3     :     0.000748

 13 C s       :     2.869628  s :     2.869628
      pz      :     0.934737  p :     2.674499
      px      :     0.941103
      py      :     0.798660
      dz2     :     0.045780  d :     0.202828
      dxz     :     0.034088
      dyz     :     0.038439
      dx2y2   :     0.038989
      dxy     :     0.045532
      f0      :     0.001894  f :     0.011132
      f+1     :     0.001381
      f-1     :     0.001430
      f+2     :     0.001189
      f-2     :     0.001554
      f+3     :     0.001785
      f-3     :     0.001899

 14 C s       :     3.121815  s :     3.121815
      pz      :     0.723147  p :     2.590307
      px      :     0.895367
      py      :     0.971792
      dz2     :     0.051454  d :     0.222873
      dxz     :     0.057681
      dyz     :     0.038302
      dx2y2   :     0.031792
      dxy     :     0.043643
      f0      :     0.002007  f :     0.011817
      f+1     :     0.002256
      f-1     :     0.001009
      f+2     :     0.001339
      f-2     :     0.002380
      f+3     :     0.001127
      f-3     :     0.001699

 15 Cls       :     5.891677  s :     5.891677
      pz      :     3.575078  p :    11.112197
      px      :     3.593543
      py      :     3.943576
      dz2     :     0.009746  d :     0.056775
      dxz     :     0.026291
      dyz     :     0.004826
      dx2y2   :     0.009377
      dxy     :     0.006536
      f0      :     0.000686  f :     0.005408
      f+1     :     0.001648
      f-1     :     0.000162
      f+2     :     0.001478
      f-2     :     0.000704
      f+3     :     0.000351
      f-3     :     0.000379

 16 Cls       :     5.896705  s :     5.896705
      pz      :     3.386676  p :    11.102986
      px      :     3.779166
      py      :     3.937143
      dz2     :     0.018961  d :     0.056743
      dxz     :     0.022056
      dyz     :     0.007853
      dx2y2   :     0.003941
      dxy     :     0.003932
      f0      :     0.001142  f :     0.005367
      f+1     :     0.002186
      f-1     :     0.000550
      f+2     :     0.000667
      f-2     :     0.000596
      f+3     :     0.000079
      f-3     :     0.000147

 17 Cls       :     5.874297  s :     5.874297
      pz      :     3.947886  p :    11.139753
      px      :     3.856017
      py      :     3.335850
      dz2     :     0.008840  d :     0.055535
      dxz     :     0.002273
      dyz     :     0.009230
      dx2y2   :     0.018418
      dxy     :     0.016774
      f0      :     0.000449  f :     0.005403
      f+1     :     0.000220
      f-1     :     0.001021
      f+2     :     0.000407
      f-2     :     0.000392
      f+3     :     0.001678
      f-3     :     0.001237

 18 Cls       :     5.859357  s :     5.859357
      pz      :     3.553188  p :    11.078549
      px      :     3.843894
      py      :     3.681467
      dz2     :     0.013141  d :     0.066484
      dxz     :     0.012438
      dyz     :     0.022997
      dx2y2   :     0.007065
      dxy     :     0.010843
      f0      :     0.000709  f :     0.006401
      f+1     :     0.000615
      f-1     :     0.001723
      f+2     :     0.001137
      f-2     :     0.001464
      f+3     :     0.000417
      f-3     :     0.000337

 19 Cls       :     5.859353  s :     5.859353
      pz      :     3.554260  p :    11.078556
      px      :     3.844417
      py      :     3.679880
      dz2     :     0.013092  d :     0.066485
      dxz     :     0.012376
      dyz     :     0.023048
      dx2y2   :     0.007094
      dxy     :     0.010875
      f0      :     0.000707  f :     0.006401
      f+1     :     0.000608
      f-1     :     0.001723
      f+2     :     0.001142
      f-2     :     0.001463
      f+3     :     0.000420
      f-3     :     0.000338

 20 Cls       :     5.874271  s :     5.874271
      pz      :     3.947838  p :    11.139753
      px      :     3.855205
      py      :     3.336710
      dz2     :     0.008840  d :     0.055535
      dxz     :     0.002285
      dyz     :     0.009221
      dx2y2   :     0.018366
      dxy     :     0.016823
      f0      :     0.000448  f :     0.005403
      f+1     :     0.000221
      f-1     :     0.001020
      f+2     :     0.000405
      f-2     :     0.000394
      f+3     :     0.001680
      f-3     :     0.001234

 21 H s       :     0.783969  s :     0.783969
      pz      :     0.010283  p :     0.021378
      px      :     0.006572
      py      :     0.004523

 22 H s       :     0.810521  s :     0.810521
      pz      :     0.003003  p :     0.021434
      px      :     0.003830
      py      :     0.014601

 23 H s       :     0.783993  s :     0.783993
      pz      :     0.010280  p :     0.021378
      px      :     0.006576
      py      :     0.004522

 24 H s       :     0.810524  s :     0.810524
      pz      :     0.003003  p :     0.021435
      px      :     0.003835
      py      :     0.014597


------------------------
MULLIKEN OVERLAP CHARGES
------------------------
B(  0-C ,  1-C ) :   0.2603 B(  0-C ,  5-C ) :   0.0555 B(  0-C ,  7-S ) :  -0.0804 
B(  0-C ,  9-O ) :   0.4022 B(  0-C , 12-C ) :  -0.0542 B(  0-C , 13-C ) :   0.1070 
B(  0-C , 21-H ) :   0.9195 B(  0-C , 22-H ) :   0.8225 B(  1-C ,  2-H ) :   0.8586 
B(  1-C ,  3-C ) :   0.1261 B(  1-C ,  4-H ) :  -0.0648 B(  1-C ,  9-O ) :  -0.0663 
B(  1-C , 10-C ) :   0.1550 B(  1-C , 11-C ) :  -0.1083 B(  1-C , 12-C ) :   0.2158 
B(  1-C , 13-C ) :  -0.0651 B(  1-C , 14-C ) :   0.0835 B(  1-C , 17-Cl) :  -0.1086 
B(  1-C , 21-H ) :  -0.1392 B(  1-C , 22-H ) :  -0.0616 B(  2-H ,  3-C ) :  -0.0649 
B(  2-H , 13-C ) :  -0.0944 B(  3-C ,  4-H ) :   0.8585 B(  3-C ,  5-C ) :   0.2602 
B(  3-C ,  6-O ) :  -0.0662 B(  3-C , 10-C ) :  -0.0629 B(  3-C , 11-C ) :   0.2156 
B(  3-C , 12-C ) :  -0.1080 B(  3-C , 13-C ) :   0.1551 B(  3-C , 14-C ) :   0.0830 
B(  3-C , 20-Cl) :  -0.1085 B(  3-C , 23-H ) :  -0.1391 B(  3-C , 24-H ) :  -0.0617 
B(  4-H , 10-C ) :  -0.0945 B(  5-C ,  6-O ) :   0.4022 B(  5-C ,  7-S ) :  -0.0804 
B(  5-C , 10-C ) :   0.1070 B(  5-C , 11-C ) :  -0.0541 B(  5-C , 23-H ) :   0.9194 
B(  5-C , 24-H ) :   0.8225 B(  6-O ,  7-S ) :   0.4942 B(  6-O ,  8-O ) :  -0.0974 
B(  6-O ,  9-O ) :  -0.0794 B(  6-O , 23-H ) :  -0.0657 B(  7-S ,  8-O ) :   0.8932 
B(  7-S ,  9-O ) :   0.4942 B(  8-O ,  9-O ) :  -0.0974 B(  9-O , 21-H ) :  -0.0658 
B( 10-C , 11-C ) :  -0.1050 B( 10-C , 12-C ) :   0.1958 B( 10-C , 13-C ) :  -0.3301 
B( 10-C , 14-C ) :   0.4289 B( 10-C , 15-Cl) :  -0.0617 B( 10-C , 16-Cl) :  -0.0906 
B( 10-C , 19-Cl) :  -0.0512 B( 10-C , 20-Cl) :   0.7029 B( 11-C , 12-C ) :   0.2680 
B( 11-C , 13-C ) :   0.1963 B( 11-C , 14-C ) :   0.0675 B( 11-C , 18-Cl) :  -0.0924 
B( 11-C , 19-Cl) :   0.7359 B( 11-C , 20-Cl) :  -0.0850 B( 12-C , 13-C ) :  -0.1061 
B( 12-C , 14-C ) :   0.0686 B( 12-C , 17-Cl) :  -0.0850 B( 12-C , 18-Cl) :   0.7360 
B( 12-C , 19-Cl) :  -0.0924 B( 13-C , 14-C ) :   0.4274 B( 13-C , 15-Cl) :  -0.0618 
B( 13-C , 16-Cl) :  -0.0911 B( 13-C , 17-Cl) :   0.7028 B( 13-C , 18-Cl) :  -0.0513 
B( 14-C , 15-Cl) :   0.7578 B( 14-C , 16-Cl) :   0.7572 B( 15-Cl, 16-Cl) :  -0.1463 



                     *******************************
                     * LOEWDIN POPULATION ANALYSIS *
                     *******************************

----------------------
LOEWDIN ATOMIC CHARGES
----------------------
   0 C :   -0.283392
   1 C :   -0.193560
   2 H :    0.181606
   3 C :   -0.193509
   4 H :    0.181609
   5 C :   -0.283349
   6 O :   -0.064117
   7 S :    0.642071
   8 O :   -0.404594
   9 O :   -0.064090
  10 C :   -0.476680
  11 C :   -0.483474
  12 C :   -0.483479
  13 C :   -0.476652
  14 C :   -0.689563
  15 Cl:    0.383363
  16 Cl:    0.394885
  17 Cl:    0.399434
  18 Cl:    0.463959
  19 Cl:    0.463977
  20 Cl:    0.399422
  21 H :    0.143957
  22 H :    0.149113
  23 H :    0.143949
  24 H :    0.149114

-------------------------------
LOEWDIN REDUCED ORBITAL CHARGES
-------------------------------
  0 C s       :     2.803718  s :     2.803718
      pz      :     0.891925  p :     2.919084
      px      :     0.969564
      py      :     1.057595
      dz2     :     0.120100  d :     0.495931
      dxz     :     0.149409
      dyz     :     0.050264
      dx2y2   :     0.106964
      dxy     :     0.069194
      f0      :     0.010513  f :     0.064659
      f+1     :     0.013497
      f-1     :     0.008565
      f+2     :     0.009305
      f-2     :     0.010664
      f+3     :     0.006754
      f-3     :     0.005360

  1 C s       :     2.729448  s :     2.729448
      pz      :     0.962037  p :     2.933704
      px      :     1.001510
      py      :     0.970156
      dz2     :     0.086055  d :     0.481102
      dxz     :     0.099651
      dyz     :     0.070913
      dx2y2   :     0.119552
      dxy     :     0.104931
      f0      :     0.006200  f :     0.049306
      f+1     :     0.006349
      f-1     :     0.005180
      f+2     :     0.007742
      f-2     :     0.006578
      f+3     :     0.010796
      f-3     :     0.006462

  2 H s       :     0.758101  s :     0.758101
      pz      :     0.029529  p :     0.060293
      px      :     0.016788
      py      :     0.013976

  3 C s       :     2.729460  s :     2.729460
      pz      :     0.962085  p :     2.933679
      px      :     1.001421
      py      :     0.970173
      dz2     :     0.086096  d :     0.481067
      dxz     :     0.099638
      dyz     :     0.070817
      dx2y2   :     0.119564
      dxy     :     0.104952
      f0      :     0.006196  f :     0.049303
      f+1     :     0.006350
      f-1     :     0.005173
      f+2     :     0.007749
      f-2     :     0.006575
      f+3     :     0.010792
      f-3     :     0.006468

  4 H s       :     0.758101  s :     0.758101
      pz      :     0.029555  p :     0.060290
      px      :     0.016784
      py      :     0.013951

  5 C s       :     2.803731  s :     2.803731
      pz      :     0.891826  p :     2.919072
      px      :     0.969546
      py      :     1.057700
      dz2     :     0.120094  d :     0.495894
      dxz     :     0.149409
      dyz     :     0.050287
      dx2y2   :     0.106813
      dxy     :     0.069292
      f0      :     0.010521  f :     0.064651
      f+1     :     0.013501
      f-1     :     0.008561
      f+2     :     0.009297
      f-2     :     0.010662
      f+3     :     0.006759
      f-3     :     0.005350

  6 O s       :     3.407410  s :     3.407410
      pz      :     1.535136  p :     4.558665
      px      :     1.501975
      py      :     1.521555
      dz2     :     0.023516  d :     0.093005
      dxz     :     0.016730
      dyz     :     0.012583
      dx2y2   :     0.011321
      dxy     :     0.028855
      f0      :     0.000864  f :     0.005037
      f+1     :     0.000805
      f-1     :     0.000654
      f+2     :     0.000435
      f-2     :     0.000845
      f+3     :     0.000799
      f-3     :     0.000634

  7 S s       :     5.166985  s :     5.166985
      pz      :     3.187678  p :     8.862645
      px      :     2.920910
      py      :     2.754057
      dz2     :     0.268365  d :     1.089188
      dxz     :     0.209335
      dyz     :     0.149031
      dx2y2   :     0.181628
      dxy     :     0.280828
      f0      :     0.042040  f :     0.239112
      f+1     :     0.034714
      f-1     :     0.037942
      f+2     :     0.012014
      f-2     :     0.032343
      f+3     :     0.041100
      f-3     :     0.038958

  8 O s       :     3.604874  s :     3.604874
      pz      :     1.542147  p :     4.728278
      px      :     1.591115
      py      :     1.595016
      dz2     :     0.029216  d :     0.067231
      dxz     :     0.022971
      dyz     :     0.008989
      dx2y2   :     0.003536
      dxy     :     0.002519
      f0      :     0.001277  f :     0.004210
      f+1     :     0.001550
      f-1     :     0.000397
      f+2     :     0.000508
      f-2     :     0.000385
      f+3     :     0.000048
      f-3     :     0.000044

  9 O s       :     3.407397  s :     3.407397
      pz      :     1.535197  p :     4.558645
      px      :     1.502395
      py      :     1.521052
      dz2     :     0.023517  d :     0.093011
      dxz     :     0.016713
      dyz     :     0.012596
      dx2y2   :     0.011339
      dxy     :     0.028845
      f0      :     0.000864  f :     0.005038
      f+1     :     0.000804
      f-1     :     0.000655
      f+2     :     0.000436
      f-2     :     0.000845
      f+3     :     0.000802
      f-3     :     0.000632

 10 C s       :     2.753786  s :     2.753786
      pz      :     1.022050  p :     2.951769
      px      :     0.995387
      py      :     0.934332
      dz2     :     0.158091  d :     0.699761
      dxz     :     0.117198
      dyz     :     0.115570
      dx2y2   :     0.144278
      dxy     :     0.164625
      f0      :     0.011461  f :     0.071363
      f+1     :     0.007020
      f-1     :     0.011024
      f+2     :     0.008699
      f-2     :     0.010628
      f+3     :     0.011052
      f-3     :     0.011479

 11 C s       :     2.785526  s :     2.785526
      pz      :     0.964393  p :     3.010881
      px      :     0.956762
      py      :     1.089726
      dz2     :     0.132813  d :     0.621943
      dxz     :     0.089828
      dyz     :     0.186191
      dx2y2   :     0.097090
      dxy     :     0.116022
      f0      :     0.012668  f :     0.065125
      f+1     :     0.007908
      f-1     :     0.009642
      f+2     :     0.012540
      f-2     :     0.006369
      f+3     :     0.009052
      f-3     :     0.006945

 12 C s       :     2.785528  s :     2.785528
      pz      :     0.964335  p :     3.010907
      px      :     0.956758
      py      :     1.089814
      dz2     :     0.132832  d :     0.621922
      dxz     :     0.089931
      dyz     :     0.186218
      dx2y2   :     0.096967
      dxy     :     0.115973
      f0      :     0.012678  f :     0.065122
      f+1     :     0.007921
      f-1     :     0.009623
      f+2     :     0.012556
      f-2     :     0.006363
      f+3     :     0.009056
      f-3     :     0.006926

 13 C s       :     2.753789  s :     2.753789
      pz      :     1.022057  p :     2.951746
      px      :     0.995404
      py      :     0.934285
      dz2     :     0.158023  d :     0.699756
      dxz     :     0.117094
      dyz     :     0.115759
      dx2y2   :     0.144420
      dxy     :     0.164461
      f0      :     0.011459  f :     0.071361
      f+1     :     0.007013
      f-1     :     0.011023
      f+2     :     0.008713
      f-2     :     0.010627
      f+3     :     0.011059
      f-3     :     0.011468

 14 C s       :     2.845841  s :     2.845841
      pz      :     0.955131  p :     3.005722
      px      :     0.995238
      py      :     1.055354
      dz2     :     0.169462  d :     0.765499
      dxz     :     0.227412
      dyz     :     0.109815
      dx2y2   :     0.099864
      dxy     :     0.158946
      f0      :     0.012075  f :     0.072501
      f+1     :     0.011663
      f-1     :     0.007922
      f+2     :     0.009000
      f-2     :     0.013989
      f+3     :     0.006963
      f-3     :     0.010889

 15 Cls       :     5.569431  s :     5.569431
      pz      :     3.543512  p :    10.942440
      px      :     3.534454
      py      :     3.864474
      dz2     :     0.018000  d :     0.093795
      dxz     :     0.042353
      dyz     :     0.008754
      dx2y2   :     0.013685
      dxy     :     0.011002
      f0      :     0.001336  f :     0.010971
      f+1     :     0.003338
      f-1     :     0.000364
      f+2     :     0.002911
      f-2     :     0.001612
      f+3     :     0.000652
      f-3     :     0.000759

 16 Cls       :     5.567020  s :     5.567020
      pz      :     3.374984  p :    10.934631
      px      :     3.701652
      py      :     3.857996
      dz2     :     0.033220  d :     0.092507
      dxz     :     0.033373
      dyz     :     0.014324
      dx2y2   :     0.005314
      dxy     :     0.006275
      f0      :     0.002474  f :     0.010958
      f+1     :     0.004161
      f-1     :     0.001295
      f+2     :     0.001332
      f-2     :     0.001303
      f+3     :     0.000133
      f-3     :     0.000260

 17 Cls       :     5.550816  s :     5.550816
      pz      :     3.860409  p :    10.947519
      px      :     3.777253
      py      :     3.309858
      dz2     :     0.013399  d :     0.091262
      dxz     :     0.003614
      dyz     :     0.017211
      dx2y2   :     0.029390
      dxy     :     0.027648
      f0      :     0.001015  f :     0.010968
      f+1     :     0.000437
      f-1     :     0.001858
      f+2     :     0.000957
      f-2     :     0.000824
      f+3     :     0.003258
      f-3     :     0.002619

 18 Cls       :     5.516530  s :     5.516530
      pz      :     3.512000  p :    10.894588
      px      :     3.765644
      py      :     3.616945
      dz2     :     0.023514  d :     0.111516
      dxz     :     0.021211
      dyz     :     0.036218
      dx2y2   :     0.012213
      dxy     :     0.018360
      f0      :     0.001653  f :     0.013407
      f+1     :     0.001300
      f-1     :     0.003467
      f+2     :     0.002389
      f-2     :     0.002984
      f+3     :     0.000837
      f-3     :     0.000777

 19 Cls       :     5.516527  s :     5.516527
      pz      :     3.512903  p :    10.894575
      px      :     3.766084
      py      :     3.615589
      dz2     :     0.023435  d :     0.111514
      dxz     :     0.021112
      dyz     :     0.036292
      dx2y2   :     0.012254
      dxy     :     0.018420
      f0      :     0.001648  f :     0.013407
      f+1     :     0.001287
      f-1     :     0.003469
      f+2     :     0.002395
      f-2     :     0.002984
      f+3     :     0.000844
      f-3     :     0.000780

 20 Cls       :     5.550820  s :     5.550820
      pz      :     3.860375  p :    10.947528
      px      :     3.776526
      py      :     3.310627
      dz2     :     0.013400  d :     0.091261
      dxz     :     0.003635
      dyz     :     0.017191
      dx2y2   :     0.029320
      dxy     :     0.027715
      f0      :     0.001015  f :     0.010968
      f+1     :     0.000439
      f-1     :     0.001857
      f+2     :     0.000951
      f-2     :     0.000830
      f+3     :     0.003261
      f-3     :     0.002615

 21 H s       :     0.793254  s :     0.793254
      pz      :     0.029809  p :     0.062789
      px      :     0.018226
      py      :     0.014755

 22 H s       :     0.790303  s :     0.790303
      pz      :     0.009867  p :     0.060584
      px      :     0.011686
      py      :     0.039031

 23 H s       :     0.793261  s :     0.793261
      pz      :     0.029798  p :     0.062790
      px      :     0.018239
      py      :     0.014752

 24 H s       :     0.790301  s :     0.790301
      pz      :     0.009866  p :     0.060585
      px      :     0.011700
      py      :     0.039019


---------------------------------
LOEWDIN BOND ORDERS (THRESH 0.050000)
---------------------------------
B(  0-C ,  1-C ) :   1.1957 B(  0-C ,  2-H ) :   0.0885 B(  0-C ,  3-C ) :   0.1102 
B(  0-C ,  7-S ) :   0.1498 B(  0-C ,  9-O ) :   1.4048 B(  0-C , 13-C ) :   0.1208 
B(  0-C , 21-H ) :   0.8564 B(  0-C , 22-H ) :   0.8554 B(  1-C ,  2-H ) :   0.7628 
B(  1-C ,  3-C ) :   1.0148 B(  1-C ,  4-H ) :   0.0651 B(  1-C ,  5-C ) :   0.1102 
B(  1-C ,  9-O ) :   0.0983 B(  1-C , 10-C ) :   0.1364 B(  1-C , 12-C ) :   0.1205 
B(  1-C , 13-C ) :   1.0161 B(  1-C , 14-C ) :   0.1405 B(  1-C , 17-Cl) :   0.1092 
B(  1-C , 21-H ) :   0.0823 B(  1-C , 22-H ) :   0.0827 B(  2-H ,  3-C ) :   0.0651 
B(  2-H , 13-C ) :   0.0691 B(  3-C ,  4-H ) :   0.7628 B(  3-C ,  5-C ) :   1.1956 
B(  3-C ,  6-O ) :   0.0983 B(  3-C , 10-C ) :   1.0161 B(  3-C , 11-C ) :   0.1206 
B(  3-C , 13-C ) :   0.1364 B(  3-C , 14-C ) :   0.1404 B(  3-C , 20-Cl) :   0.1092 
B(  3-C , 23-H ) :   0.0823 B(  3-C , 24-H ) :   0.0827 B(  4-H ,  5-C ) :   0.0885 
B(  4-H , 10-C ) :   0.0691 B(  5-C ,  6-O ) :   1.4047 B(  5-C ,  7-S ) :   0.1498 
B(  5-C , 10-C ) :   0.1208 B(  5-C , 23-H ) :   0.8564 B(  5-C , 24-H ) :   0.8554 
B(  6-O ,  7-S ) :   1.4616 B(  6-O ,  8-O ) :   0.1192 B(  6-O ,  9-O ) :   0.0888 
B(  7-S ,  8-O ) :   2.3767 B(  7-S ,  9-O ) :   1.4617 B(  8-O ,  9-O ) :   0.1192 
B( 10-C , 11-C ) :   1.0561 B( 10-C , 12-C ) :   0.2346 B( 10-C , 13-C ) :   0.1839 
B( 10-C , 14-C ) :   1.0224 B( 10-C , 15-Cl) :   0.1062 B( 10-C , 16-Cl) :   0.1029 
B( 10-C , 19-Cl) :   0.1037 B( 10-C , 20-Cl) :   1.5746 B( 11-C , 12-C ) :   1.8112 
B( 11-C , 13-C ) :   0.2346 B( 11-C , 14-C ) :   0.1751 B( 11-C , 15-Cl) :   0.0526 
B( 11-C , 18-Cl) :   0.1927 B( 11-C , 19-Cl) :   1.7508 B( 11-C , 20-Cl) :   0.1131 
B( 12-C , 13-C ) :   1.0561 B( 12-C , 14-C ) :   0.1751 B( 12-C , 15-Cl) :   0.0526 
B( 12-C , 17-Cl) :   0.1131 B( 12-C , 18-Cl) :   1.7508 B( 12-C , 19-Cl) :   0.1927 
B( 13-C , 14-C ) :   1.0224 B( 13-C , 15-Cl) :   0.1062 B( 13-C , 16-Cl) :   0.1029 
B( 13-C , 17-Cl) :   1.5746 B( 13-C , 18-Cl) :   0.1036 B( 14-C , 15-Cl) :   1.5576 
B( 14-C , 16-Cl) :   1.5658 B( 14-C , 17-Cl) :   0.1076 B( 14-C , 20-Cl) :   0.1076 
B( 15-Cl, 16-Cl) :   0.1048 

------------------------------------------
LOEWDIN REDUCED ORBITAL POPULATIONS PER MO
-------------------------------------------
THRESHOLD FOR PRINTING IS 0.1%%
                      0         1         2         3         4         5   
                 -107.17335 -107.17332 -107.16895 -107.16579 -107.16285 -107.16283
                   2.00000   2.00000   2.00000   2.00000   2.00000   2.00000
                  --------  --------  --------  --------  --------  --------
15 Cl s               0.0       0.0       0.0     100.0       0.0       0.0
[...]
12 C  s               0.0      16.9       1.3       5.9       0.1      22.1
13 C  s               0.0       4.2       3.2      26.1       0.1      15.9
14 C  s               0.0      55.5       1.0      28.2       0.0       7.1
15 Cl s               0.0       0.4       0.0       0.2       0.0       0.0
16 Cl s               0.0       0.3       0.0       0.4       0.0       0.0
18 Cl s               0.0       0.0       0.0       0.0       0.0       0.2
19 Cl s               0.0       0.0       0.0       0.0       0.0       0.2
21 H  s               0.0       0.0       0.1       0.0       0.1       0.0
22 H  s               0.0       0.0       0.1       0.0       0.1       0.0
23 H  s               0.0       0.0       0.1       0.0       0.1       0.0
24 H  s               0.0       0.0       0.1       0.0       0.1       0.0

                    654       655       656       657       658       659   
                  21.18353  21.25298  21.33384  21.39463  24.37097  24.61705
                   0.00000   0.00000   0.00000   0.00000   0.00000   0.00000
                  --------  --------  --------  --------  --------  --------
 0 C  s               0.0       1.7       0.3       0.1       0.0       0.0
 1 C  s              43.1      26.4      13.6       7.5       0.0       0.0
 2 H  s               0.2       0.1       0.0       0.0       0.0       0.0
 3 C  s              43.3      26.2      13.5       7.5       0.0       0.0
 4 H  s               0.2       0.1       0.0       0.0       0.0       0.0
 5 C  s               0.0       1.7       0.3       0.1       0.0       0.0
10 C  s               0.1      11.0      35.2       2.6       0.0       0.4
10 C  py              0.0       0.1       0.0       0.0       0.2       0.1
11 C  s               2.8       9.9       0.0      38.4       0.0       0.1
11 C  py              0.0       0.3       0.1       0.4       0.0       0.0
12 C  s               2.8       9.9       0.0      38.3       0.0       0.1
12 C  py              0.0       0.3       0.1       0.4       0.0       0.0
13 C  s               0.1      11.0      35.2       2.6       0.0       0.4
13 C  py              0.0       0.1       0.0       0.0       0.2       0.1
14 C  s               6.2       0.0       0.0       0.0       1.3       0.2
14 C  px              0.0       0.0       0.0       0.0       0.1       0.0
15 Cl s               0.1       0.0       0.0       0.0      39.5      11.9
16 Cl s               0.0       0.0       0.0       0.0      32.3       7.8
17 Cl s               0.0       0.0       0.4       0.0      12.6      22.1
18 Cl s               0.0       0.1       0.0       0.5       0.3      16.9
19 Cl s               0.0       0.1       0.0       0.5       0.3      16.9
20 Cl s               0.0       0.0       0.4       0.0      12.6      22.0

                    660       661       662       663       664       665   
                  24.76409  24.88660  24.91546  25.32580  41.10834  41.53955
                   0.00000   0.00000   0.00000   0.00000   0.00000   0.00000
                  --------  --------  --------  --------  --------  --------
 6 O  s               0.0       0.0       0.0       0.0       0.8      49.0
 8 O  s               0.0       0.0       0.0       0.0      98.2       1.7
 9 O  s               0.0       0.0       0.0       0.0       0.8      49.0
10 C  s               0.0       0.0       0.4       0.0       0.0       0.0
10 C  py              0.0       0.1       0.4       0.0       0.0       0.0
10 C  dx2y2           0.0       0.0       0.1       0.0       0.0       0.0
11 C  s               0.0       0.2       0.0       0.8       0.0       0.0
11 C  pz              0.0       0.3       0.0       0.1       0.0       0.0
11 C  py              0.0       0.1       0.1       0.3       0.0       0.0
11 C  dyz             0.0       0.1       0.0       0.5       0.0       0.0
11 C  dxy             0.0       0.0       0.0       0.1       0.0       0.0
12 C  s               0.0       0.2       0.0       0.8       0.0       0.0
12 C  pz              0.0       0.3       0.0       0.1       0.0       0.0
12 C  py              0.0       0.1       0.1       0.3       0.0       0.0
12 C  dyz             0.0       0.1       0.0       0.5       0.0       0.0
12 C  dxy             0.0       0.0       0.0       0.1       0.0       0.0
13 C  s               0.0       0.0       0.4       0.0       0.0       0.0
13 C  py              0.0       0.1       0.4       0.0       0.0       0.0
13 C  dx2y2           0.0       0.0       0.1       0.0       0.0       0.0
14 C  pz              0.9       0.0       0.0       0.0       0.0       0.0
14 C  dxz             0.3       0.0       0.0       0.0       0.0       0.0
15 Cl s              45.8       0.6       0.0       0.0       0.0       0.0
16 Cl s              49.9       7.6       0.0       0.0       0.0       0.0
16 Cl pz              0.1       0.0       0.0       0.0       0.0       0.0
17 Cl s               0.2      13.9      47.2       1.1       0.0       0.0
17 Cl py              0.0       0.0       0.1       0.0       0.0       0.0
18 Cl s               0.9      30.4       1.1      46.4       0.0       0.0
18 Cl pz              0.0       0.1       0.0       0.2       0.0       0.0
18 Cl py              0.0       0.1       0.0       0.1       0.0       0.0
19 Cl s               0.9      30.4       1.1      46.4       0.0       0.0
19 Cl pz              0.0       0.1       0.0       0.2       0.0       0.0
19 Cl py              0.0       0.1       0.0       0.1       0.0       0.0
20 Cl s               0.2      14.0      47.1       1.1       0.0       0.0
20 Cl py              0.0       0.0       0.1       0.0       0.0       0.0

                    666   
                  41.81505
                   0.00000
                  --------
 6 O  s              49.8
 9 O  s              49.8


                      *****************************
                      * MAYER POPULATION ANALYSIS *
                      *****************************

  NA   - Mulliken gross atomic population
  ZA   - Total nuclear charge
  QA   - Mulliken gross atomic charge
  VA   - Mayer's total valence
  BVA  - Mayer's bonded valence
  FA   - Mayer's free valence

  ATOM       NA         ZA         QA         VA         BVA        FA
  0 C      6.1478     6.0000    -0.1478     3.9253     3.9253    -0.0000
  1 C      6.1327     6.0000    -0.1327     3.9164     3.9164    -0.0000
  2 H      0.8205     1.0000     0.1795     0.9754     0.9754     0.0000
  3 C      6.1326     6.0000    -0.1326     3.9165     3.9165    -0.0000
  4 H      0.8205     1.0000     0.1795     0.9754     0.9754    -0.0000
  5 C      6.1477     6.0000    -0.1477     3.9252     3.9252    -0.0000
  6 O      8.3129     8.0000    -0.3129     2.0100     2.0100     0.0000
  7 S     15.3104    16.0000     0.6896     3.9957     3.9957     0.0000
  8 O      8.5312     8.0000    -0.5312     1.9192     1.9192    -0.0000
  9 O      8.3128     8.0000    -0.3128     2.0100     2.0100    -0.0000
 10 C      5.7584     6.0000     0.2416     4.0007     4.0007     0.0000
 11 C      6.1466     6.0000    -0.1466     4.0894     4.0894     0.0000
 12 C      6.1470     6.0000    -0.1470     4.0898     4.0898     0.0000
 13 C      5.7581     6.0000     0.2419     3.9997     3.9997    -0.0000
 14 C      5.9468     6.0000     0.0532     4.6510     4.6510    -0.0000
 15 Cl    17.0661    17.0000    -0.0661     1.2457     1.2457     0.0000
 16 Cl    17.0618    17.0000    -0.0618     1.2710     1.2710     0.0000
 17 Cl    17.0750    17.0000    -0.0750     1.2620     1.2620     0.0000
 18 Cl    17.0108    17.0000    -0.0108     1.3276     1.3276    -0.0000
 19 Cl    17.0108    17.0000    -0.0108     1.3276     1.3276     0.0000
 20 Cl    17.0750    17.0000    -0.0750     1.2621     1.2621    -0.0000
 21 H      0.8053     1.0000     0.1947     0.9627     0.9627    -0.0000
 22 H      0.8320     1.0000     0.1680     0.9765     0.9765    -0.0000
 23 H      0.8054     1.0000     0.1946     0.9627     0.9627    -0.0000
 24 H      0.8320     1.0000     0.1680     0.9765     0.9765    -0.0000

  Mayer bond orders larger than 0.100000
B(  0-C ,  1-C ) :   0.9379 B(  0-C ,  9-O ) :   0.8673 B(  0-C , 21-H ) :   0.9782 
B(  0-C , 22-H ) :   0.9526 B(  1-C ,  2-H ) :   0.9390 B(  1-C ,  3-C ) :   0.9452 
B(  1-C , 13-C ) :   0.9184 B(  3-C ,  4-H ) :   0.9390 B(  3-C ,  5-C ) :   0.9380 
B(  3-C , 10-C ) :   0.9185 B(  5-C ,  6-O ) :   0.8672 B(  5-C , 23-H ) :   0.9782 
B(  5-C , 24-H ) :   0.9526 B(  6-O ,  7-S ) :   1.0526 B(  7-S ,  8-O ) :   1.7666 
B(  7-S ,  9-O ) :   1.0526 B( 10-C , 11-C ) :   0.8988 B( 10-C , 14-C ) :   1.0330 
B( 10-C , 20-Cl) :   1.1025 B( 11-C , 12-C ) :   1.7083 B( 11-C , 19-Cl) :   1.2016 
B( 12-C , 13-C ) :   0.8987 B( 12-C , 18-Cl) :   1.2017 B( 13-C , 14-C ) :   1.0330 
B( 13-C , 17-Cl) :   1.1024 B( 14-C , 15-Cl) :   1.1239 B( 14-C , 16-Cl) :   1.1327 


-------
TIMINGS
-------

Total SCF time: 0 days 0 hours 15 min 27 sec 

Total time                  ....     927.458 sec
Sum of individual times     ....     918.590 sec  ( 99.0%)

SCF preparation             ....       0.665 sec  (  0.1%)
Fock matrix formation       ....     913.637 sec  ( 98.5%)
  Startup                   ....       0.142 sec  (  0.0% of F)
  Split-RI-J                ....      42.707 sec  (  4.7% of F)
  Chain of spheres X        ....     785.062 sec  ( 85.9% of F)
  XC integration            ....      58.413 sec  (  6.4% of F)
    XC Preparation          ....       0.000 sec  (  0.0% of XC)
    Basis function eval.    ....      11.834 sec  ( 20.3% of XC)
    Density eval.           ....      15.703 sec  ( 26.9% of XC)
    XC-Functional eval.     ....       9.551 sec  ( 16.4% of XC)
    XC-Potential eval.      ....      20.169 sec  ( 34.5% of XC)
  CPCM terms                ....      34.029 sec  (  3.7% of F)
Diagonalization             ....       0.000 sec  (  0.0%)
Density matrix formation    ....       0.609 sec  (  0.1%)
Total Energy calculation    ....       0.125 sec  (  0.0%)
Population analysis         ....       0.536 sec  (  0.1%)
Orbital Transformation      ....       0.328 sec  (  0.0%)
Orbital Orthonormalization  ....       0.000 sec  (  0.0%)
DIIS solution               ....       1.231 sec  (  0.1%)
  MO trafo                  ....       0.000 sec  (  0.0 % of DIIS)
  Orb grad                  ....       0.000 sec  (  0.0 % of DIIS)
  Energy W gradient         ....       0.000 sec  (  0.0 % of DIIS)
  DIIS error                ....       0.124 sec  ( 10.0 % of DIIS)
  DIIS work                 ....       0.911 sec  ( 74.0 % of DIIS)
  Form Q                    ....       0.000 sec  (  0.0 % of DIIS)
  Form QpQm                 ....       0.000 sec  (  0.0 % of DIIS)
  Exp/Cayley                ....       0.000 sec  (  0.0 % of DIIS)
  Orb update                ....       0.000 sec  (  0.0 % of DIIS)
  Wake-sleep                ....       0.017 sec  (  1.4 % of DIIS)
SOSCF solution              ....       0.963 sec  (  0.1%)
  MO trafo                  ....       0.387 sec  ( 40.2 % of SOSCF)
  Orb grad                  ....       0.020 sec  (  2.1 % of SOSCF)
  Rot update                ....       0.181 sec  ( 18.8 % of SOSCF)
  Step                      ....       0.374 sec  ( 38.8 % of SOSCF)
Grid generation             ....       0.496 sec  (  0.1%)
Finished LeanSCF after 927.6 sec

Maximum memory used throughout the entire LEANSCF-calculation: 140.3 MB
------------------   -----------------
gCP correction             0.019133572
------------------   -----------------

-------------------------   --------------------
FINAL SINGLE POINT ENERGY     -3731.275637190927
-------------------------   --------------------


------------------------------------------------------------------------------
                              ORCA PROPERTY CALCULATIONS
------------------------------------------------------------------------------

GBWName                                 ... sp_solv.gbw
Number of atoms                         ...     25
Number of basis functions               ...    667
Max core memory                         ...   1024 MB

Electric properties:
Dipole moment                           ... YES
Quadrupole moment                       ...  NO
Static polarizability (Dipole/Dipole)   ...  NO
Static polarizability (Dipole/Quad.)    ...  NO
Static polarizability (Quad./Quad.)     ...  NO
Static polarizability (Velocity)        ...  NO

Atomic electric properties:
Dipole moment                           ...  NO
Quadrupole moment                       ...  NO
Static polarizability                   ...  NO

Choice of electric origin               ... Center of mass
Position of electric origin             ...    -0.015563    -0.000073    -0.027516

General magnetic properties:
Magnetizability                         ...  NO

EPR properties:
g-Tensor (aka g-matrix)                 ...  NO
Zero-Field splitting spin-orbit         ...  NO
Zero-field splitting spin-spin          ...  NO
Hyperfine couplings                     ...  NO (   0 nuclei)
Quadrupole couplings                    ...  NO (   0 nuclei)
Contact density                         ...  NO (   0 nuclei)

NMR properties:
Chemical shifts                         ...  NO (   0 nuclei)
Spin-rotation constants                 ...  NO (   0 nuclei)
Spin-spin couplings                     ...  NO (   0 nuclei,    0 pairs)

Choice of magnetic origin               ... GIAO
Position of magnetic origin             ...     0.000000     0.000000     0.000000

Properties with geometric perturbations:
SCF Hessian                             ...  NO
IR spectrum                             ...  NO
VCD spectrum                            ...  NO
X-ray spectroscopy properties:
SCF XES/XAS/RIXS spectra                ...  NO


-------------
DIPOLE MOMENT
-------------

Method             : SCF
Type of density    : Electron Density
Multiplicity       :   1
Irrep              :   0
Energy             : -3731.2947707624266513 Eh
Relativity type    : 
Basis              : AO
                                X                 Y                 Z
Electronic contribution:    -16.568943624       0.002141303     -13.847946963
Nuclear contribution   :     16.397237192      -0.001325950      15.345632930
                        -----------------------------------------
Total Dipole Moment    :     -0.171706432       0.000815353       1.497685968
                        -----------------------------------------
Magnitude (a.u.)       :      1.507496939
Magnitude (Debye)      :      3.831752704



--------------------
Rotational spectrum 
--------------------
 
Rotational constants in cm-1:             0.010006             0.006958             0.006435 
Rotational constants in MHz :           299.961273           208.593226           192.901501 

Dipole components along the rotational axes: 
x,y,z [a.u.] :     0.139917     0.000072     1.500990 
x,y,z [Debye]:     0.355640     0.000184     3.815213 

 

Dipole moment calculation done in   0.4 sec 

Maximum memory used throughout the entire PROP-calculation: 96.6 MB

--------------------------------
SUGGESTED CITATIONS FOR THIS RUN
--------------------------------

Below you find a list of papers that are relevant to this ORCA run
We neither can nor want to force you to cite these papers, but we appreciate if you do
You receive ORCA, which is the product of decades of hard work by many enthusiastic individuals, for free
The only thing we kindly ask in return is that you cite our papers,
We deeply appreciate it, if you show your appreciation for ORCA by not just citing the generic ORCA reference.

Please note that relegating all ORCA citations to the supporting information does *not* help us.
SI sections are not indexed - citations you put there will not count into any citation statistics
But we need these citations in order to attract the funding resources that allow us to do what we are doing

Therefore, if you are a happy ORCA user, please consider citing a few of the papers listed below in the main body of your paper

In addition to the list printed below, the program has created the file sp_solv.bibtex that contains the list in bibtex format
You can import this file easily into all common literature databanks and citation aid programs


List of essential papers. We consider these as the minimum necessary citations

  1. Neese,F.
     Software update: the ORCA program system, version 5.0
     WIRES Comput. Molec. Sci., 2022 12(1)e1606
     doi.org/10.1002/wcms.1606

List of papers to cite with high priority. The work reported in these papers was absolutely
necessary for this run to complete.
Our perspective: the developers of density functionals and basis sets usually get cited in chemistry papers
Good! But without the algorithms to do something with them, the functionals or basis sets would not do anything.
Hence, in our opinion, the algorithm design and method developments papers are equally worthy of getting cited

  1. Neese,F.
     An improvement of the resolution of the identity approximation for the formation of the Coulomb matrix
     J. Comp. Chem., 2003 24(14)1740-1747
     doi.org/10.1002/jcc.10318
  2. Neese,F.; Wennmohs,F.; Hansen,A.; Becker,U.
     Efficient, approximate and parallel Hartree-Fock and hybrid DFT calculations. A 'chain-of-spheres' algorithm for the Hartree-Fock exchange
     Chem. Phys., 2009 356(1-3)98-109
     doi.org/10.1016/j.chemphys.2008.10.036
  3. Garcia-Rates,M.; Neese,F.
     Effect of the Solute Cavity on the Solvation Energy and its Derivatives within the Framework of the Gaussian Charge Scheme
     J. Comput. Chem., 2020 41 922-939
     doi.org/10.1002/jcc.26139
  4. Helmich-Paris,B.; de Souza,B.; Neese,F.; Izsák,R.
     An improved chain of spheres for exchange algorithm
     J. Chem. Phys., 2021 155 104109
     doi.org/doi: 10.1063/5.0058766.
  5. Neese,F.
     The SHARK Integral Generation and Digestion System
     J. Comp. Chem., 2022  1-16
     doi.org/10.1002/jcc.26942

List of suggested additional citations. These are papers that are important in the 'surrounding' of 
of this run, or papers that preceded the highly important papers. If you like your results we are grateful for a citation.

  1. Izsak,R.; Neese,F.
     An overlap fitted chain of spheres exchange method
     J. Chem. Phys., 2011 135 144105
     doi.org/10.1063/1.3646921
  2. Izsak,R.; Hansen,A.; Neese,F.
     The resolution of identity and chain of spheres approximations for the LPNO-CCSD singles Fock term
     Molec. Phys., 2012 110 2413-2417
     doi.org/10.1080/00268976.2012.687466
  3. Neese,F.
     The ORCA program system
     WIRES Comput. Molec. Sci., 2012 2(1)73-78
     doi.org/10.1002/wcms.81
  4. Izsak,R.; Neese,F.; Klopper,W.
     Robust fitting techniques in the chain of spheres approximation to the Fock exchange: The role of the complementary space
     J. Chem. Phys., 2013 139 
     doi.org/10.1063/1.4819264
  5. Neese,F.
     Software update: the ORCA program system, version 4.0
     WIRES Comput. Molec. Sci., 2018 8(1)1-6
     doi.org/10.1002/wcms.1327
  6. Neese,F.; Wennmohs,F.; Becker,U.; Riplinger,C.
     The ORCA quantum chemistry program package
     J. Chem. Phys., 2020 152 Art. No. L224108
     doi.org/10.1063/5.0004608

List of optional additional citations

  1. Neese,F.
     Approximate second-order SCF convergence for spin unrestricted wavefunctions
     Chem. Phys. Lett., 2000 325(1-3)93-98
     doi.org/10.1016/s0009-2614(00)00662-x

Timings for individual modules:

Sum of individual times          ...      936.638 sec (=  15.611 min)
Startup calculation              ...        7.533 sec (=   0.126 min)   0.8 %
SCF iterations                   ...      928.543 sec (=  15.476 min)  99.1 %
Property calculations            ...        0.563 sec (=   0.009 min)   0.1 %
                             ****ORCA TERMINATED NORMALLY****
TOTAL RUN TIME: 0 days 0 hours 15 minutes 37 seconds 335 msec
