18
 energy: -460.031724795065 gnorm: 0.023958286636 xtb: 6.7.1 (edcfbbe)
C           -3.37453649939535        0.61777274497375        0.00071982350032
O           -1.95405208476589        0.76074450433711        0.00059570740026
C           -1.23162390074577       -0.35934167265923       -0.00034962490015
O           -1.74070467657135       -1.46653182244986       -0.00105551410047
C            0.22396220029924       -0.11346661665028       -0.00021381180009
C            1.08421941678045       -1.21074939363652        0.00044697320020
C            2.45218920028663       -1.01720430915075        0.00071111560032
C            2.96833644541535        0.26979695391955        0.00025528790011
C            2.11617647183773        1.36398325660442       -0.00047960630021
C            0.74638608733074        1.17909951122249       -0.00069652340031
H           -3.76984687757052        1.62858928262167        0.00789776500350
H           -3.69432138563705        0.06412275672841        0.88464044459201
H           -3.69560774583762        0.07641140453386       -0.89031176679452
H            0.65525811839036       -2.20159211667558        0.00078391420035
H            3.11540273448052       -1.86796666082775        0.00128340980057
H            4.03679704768881        0.42022131578621        0.00046557180021
H            2.52170916311744        2.36363507924739       -0.00087964470039
H            0.07432564423294        2.02224331609611       -0.00127160220056
18
 energy: -460.032527863254 gnorm: 0.009834243239 xtb: 6.7.1 (edcfbbe)
C           -3.38443036566805        0.61310302983035        0.00075139864664
O           -1.95466179857353        0.76687740874250        0.00072742075375
C           -1.23494753399331       -0.36195698765337       -0.00035566268063
O           -1.74487161911215       -1.47381718389578       -0.00136813272639
C            0.22295974982970       -0.11251156098923       -0.00018022027707
C            1.08321046274578       -1.21449039929900        0.00041438132919
C            2.45650720090421       -1.02142018014373        0.00068506421509
C            2.97742920132517        0.26996793578739        0.00024210255568
C            2.12381088877680        1.36946375009827       -0.00045539258114
C            0.74888343910916        1.18379505743919       -0.00062134519564
H           -3.78511623993905        1.62466609375260        0.00754028818736
H           -3.70922306331618        0.06700486003597        0.89011875204087
H           -3.71020824677656        0.07868193415254       -0.89534980358840
H            0.65933087243915       -2.21169830785150        0.00076643045005
H            3.12198543989081       -1.87671054231006        0.00124353691279
H            4.05094728661183        0.41992987605151        0.00043617631742
H            2.53155367607452        2.37355753067690       -0.00085907849037
H            0.08091007571060        2.03532553884756       -0.00119408785800
18
 energy: -460.032660073355 gnorm: 0.003939521199 xtb: 6.7.1 (edcfbbe)
C           -3.39476906772336        0.60959527459061        0.00081086870401
O           -1.95841028571075        0.77215555594419        0.00090649936029
C           -1.23745961983532       -0.36114732152721       -0.00047189212831
O           -1.74578975575506       -1.47407647626737       -0.00172125804813
C            0.22248177255840       -0.11057739832355       -0.00015358888746
C            1.08284740073533       -1.21450339380176        0.00041169671783
C            2.45858430228679       -1.02323332865326        0.00065841314355
C            2.98306314891765        0.26884099247816        0.00023470437673
C            2.12929918763278        1.37068276753601       -0.00040560161732
C            0.75192897617937        1.18619534007242       -0.00054770758201
H           -3.79935941100472        1.62117540700020        0.00705804251221
H           -3.71606030386765        0.06620998306246        0.89336773626247
H           -3.71678956982875        0.07702424966837       -0.89801313513167
H            0.66398585828588       -2.21515949788243        0.00071750243253
H            3.12405871360736       -1.88077443491554        0.00117437171298
H            4.05862093179683        0.41745465372451        0.00039617152172
H            2.53835315962467        2.37611849188049       -0.00080312031572
H            0.08948404606079        2.04378729907844       -0.00107789840783
18
 energy: -460.032676293718 gnorm: 0.001443576434 xtb: 6.7.1 (edcfbbe)
C           -3.39884150513526        0.60783698859879        0.00083775224859
O           -1.96012568021805        0.77489544208663        0.00108632794393
C           -1.23809622728897       -0.35943832238744       -0.00044540866113
O           -1.74551705569260       -1.47201123366925       -0.00197203901015
C            0.22251840823533       -0.10885310733365       -0.00015023754599
C            1.08243690804096       -1.21317565490608        0.00036167028199
C            2.45843060728645       -1.02332916182950        0.00061982879843
C            2.98452495676625        0.26792430495831        0.00022745961904
C            2.13142455775686        1.37018416749406       -0.00036524639519
C            0.75368322384601        1.18709374425015       -0.00049902913850
H           -3.80523931863849        1.61875115455573        0.00663509819094
H           -3.71689842632224        0.06419080699167        0.89393942559752
H           -3.71745358988590        0.07426947320386       -0.89815645154330
H            0.66528619361742       -2.21442246931613        0.00065751604258
H            3.12278027570585       -1.88163428971698        0.00111407993478
H            4.06016798803543        0.41540045323256        0.00037268373224
H            2.54095700596651        2.37532019714603       -0.00073233522168
H            0.09403118350244        2.04676582461337       -0.00098929448664
18
 energy: -460.032680197619 gnorm: 0.000855176694 xtb: 6.7.1 (edcfbbe)
C           -3.40152487619920        0.60587737662281        0.00090857046685
O           -1.96135252585857        0.77763913546534        0.00126459935534
C           -1.23821452634711       -0.35685034523735       -0.00064523517227
O           -1.74496406105412       -1.46895807909139       -0.00227547317688
C            0.22268015076746       -0.10645813325152       -0.00016076056152
C            1.08159747166061       -1.21120472337945        0.00033580092740
C            2.45745088571833       -1.02315607044401        0.00057348101061
C            2.98519077767364        0.26686217106317        0.00023754695190
C            2.13328407011480        1.36945696383504       -0.00028532902995
C            0.75547634297057        1.18828059604883       -0.00042899760855
H           -3.81006419752231        1.61557103596503        0.00600917512353
H           -3.71602314284451        0.06114161970425        0.89411933206147
H           -3.71640548424787        0.07005845592622       -0.89757242109210
H            0.66485880083541       -2.21224190313865        0.00054627490588
H            3.11991431616064       -1.88236895534676        0.00100492803359
H            4.06059029306199        0.41286747033626        0.00037668205155
H            2.54339571477687        2.37389439542949       -0.00059651855012
H            0.09817950333587        2.04935746981851       -0.00086979678402
18
 energy: -460.032680197619 gnorm: 0.000855176694 xtb: 6.7.1 (edcfbbe)
C           -3.40152487619920        0.60587737662281        0.00090857046685
O           -1.96135252585857        0.77763913546534        0.00126459935534
C           -1.23821452634711       -0.35685034523735       -0.00064523517227
O           -1.74496406105412       -1.46895807909139       -0.00227547317688
C            0.22268015076746       -0.10645813325152       -0.00016076056152
C            1.08159747166061       -1.21120472337945        0.00033580092740
C            2.45745088571833       -1.02315607044401        0.00057348101061
C            2.98519077767364        0.26686217106317        0.00023754695190
C            2.13328407011480        1.36945696383504       -0.00028532902995
C            0.75547634297057        1.18828059604883       -0.00042899760855
H           -3.81006419752231        1.61557103596503        0.00600917512353
H           -3.71602314284451        0.06114161970425        0.89411933206147
H           -3.71640548424787        0.07005845592622       -0.89757242109210
H            0.66485880083541       -2.21224190313865        0.00054627490588
H            3.11991431616064       -1.88236895534676        0.00100492803359
H            4.06059029306199        0.41286747033626        0.00037668205155
H            2.54339571477687        2.37389439542949       -0.00059651855012
H            0.09817950333587        2.04935746981851       -0.00086979678402
