
                                 *****************
                                 * O   R   C   A *
                                 *****************

                                            #,                                       
                                            ###                                      
                                            ####                                     
                                            #####                                    
                                            ######                                   
                                           ########,                                 
                                     ,,################,,,,,                         
                               ,,#################################,,                 
                          ,,##########################################,,             
                       ,#########################################, ''#####,          
                    ,#############################################,,   '####,        
                  ,##################################################,,,,####,       
                ,###########''''           ''''###############################       
              ,#####''   ,,,,##########,,,,          '''####'''          '####       
            ,##' ,,,,###########################,,,                        '##       
           ' ,,###''''                  '''############,,,                           
         ,,##''                                '''############,,,,        ,,,,,,###''
      ,#''                                            '''#######################'''  
     '                                                          ''''####''''         
             ,#######,   #######,   ,#######,      ##                                
            ,#'     '#,  ##    ##  ,#'     '#,    #''#        ,####,   ,####,        
            ##       ##  ##   ,#'  ##            #'  '#       #'       #'  '#        
            ##       ##  #######   ##           ,######,      #####,   #    #        
            '#,     ,#'  ##    ##  '#,     ,#' ,#      #,     #,   #   #,  ,#        
             '#######'   ##     ##  '#######'  #'      '#     '####' # '####'        



                #########################################################
                #                        -***-                          #
                #          Department of theory and spectroscopy        #
                #                                                       #
                #                      Frank Neese                      #
                #                                                       #
                #     Directorship, Architecture, Infrastructure        #
                #                    SHARK, DRIVERS                     #
                #        Core code/Algorithms in most modules           #
                #                                                       #
                #        Max Planck Institute fuer Kohlenforschung      #
                #                Kaiser Wilhelm Platz 1                 #
                #                 D-45470 Muelheim/Ruhr                 #
                #                      Germany                          #
                #                                                       #
                #                  All rights reserved                  #
                #                        -***-                          #
                #########################################################


                         Program Version 6.0.0  -   RELEASE  -


 With contributions from (in alphabetic order):
   Daniel Aravena         : Magnetic Suceptibility
   Michael Atanasov       : Ab Initio Ligand Field Theory (pilot matlab implementation)
   Alexander A. Auer      : GIAO ZORA, VPT2 properties, NMR spectrum
   Ute Becker             : All parallelization in ORCA, NUMFREQ, NUMCALC
   Giovanni Bistoni       : ED, misc. LED, open-shell LED, HFLD
   Martin Brehm           : Molecular dynamics
   Dmytro Bykov           : pre 5.0 version of the SCF Hessian
   Marcos Casanova-Páez   : Triplet and SCS-CIS(D). UHF-(DLPNO)-IP/EA/STEOM-CCSD. UHF-CVS-IP/STEOM-CCSD
   Vijay G. Chilkuri      : MRCI spin determinant printing, contributions to CSF-ICE
   Pauline Colinet        : FMM embedding
   Dipayan Datta          : RHF DLPNO-CCSD density
   Achintya Kumar Dutta   : EOM-CC, STEOM-CC
   Nicolas Foglia         : Exact transition moments, OPA infrastructure, MCD improvements
   Dmitry Ganyushin       : Spin-Orbit,Spin-Spin,Magnetic field MRCI
   Miquel Garcia          : C-PCM and meta-GGA Hessian, CCSD/C-PCM, Gaussian charge scheme
   Tiago L. C. Gouveia    : GS-ROHF, GS-ROCIS
   Yang Guo               : DLPNO-NEVPT2, F12-NEVPT2, CIM, IAO-localization
   Andreas Hansen         : Spin unrestricted coupled pair/coupled cluster methods
   Ingolf Harden          : AUTO-CI MPn and infrastructure 
   Benjamin Helmich-Paris : MC-RPA, TRAH-(SCF,CASSCF), AVAS, COSX integrals, SCF dyn. polar.
   Lee Huntington         : MR-EOM, pCC
   Robert Izsak           : Overlap fitted RIJCOSX, COSX-SCS-MP3, EOM
   Riya Kayal             : Wick's Theorem for AUTO-CI, AUTO-CI UHF-CCSDT
   Emily Kempfer          : AUTO-CI, RHF CISDT and CCSDT
   Christian Kollmar      : KDIIS, OOCD, Brueckner-CCSD(T), CCSD density, CASPT2, CASPT2-K, improved NEVPT2
   Axel Koslowski         : Symmetry handling
   Simone Kossmann        : Meta GGA functionals, TD-DFT gradient, OOMP2, (MP2 Hessian; deprecated post 5.0)
   Lucas Lang             : DCDCAS
   Marvin Lechner         : AUTO-CI (C++ implementation), FIC-MRCC
   Spencer Leger          : CASSCF response
   Dagmar Lenk            : GEPOL surface, SMD, ORCA-2-JSON
   Dimitrios Liakos       : Extrapolation schemes; Compound Job, initial MDCI parallelization
   Dimitrios Manganas     : Further ROCIS development; embedding schemes. LFT, Crystal Embedding
   Dimitrios Pantazis     : SARC Basis sets
   Anastasios Papadopoulos: AUTO-CI, single reference methods and gradients
   Taras Petrenko         : pre 6.0 DFT Hessian and TD-DFT gradient, (ASA, deprecated), ECA, 1-Electron XAS/XES, NRVS
   Peter Pinski           : DLPNO-MP2, DLPNO-MP2 Gradient
   Christoph Reimann      : Effective Core Potentials
   Marius Retegan         : Local ZFS, SOC
   Christoph Riplinger    : Optimizer, TS searches, QM/MM, DLPNO-CCSD(T), (RO)-DLPNO pert. Triples
   Michael Roemelt        : Original ROCIS implementation
   Masaaki Saitow         : Open-shell DLPNO-CCSD energy and density
   Barbara Sandhoefer     : DKH picture change effects
   Kantharuban Sivalingam : CASSCF convergence/infrastructure, NEVPT2 and variants, FIC-MRCI
   Bernardo de Souza      : ESD, SOC TD-DFT
   Georgi Stoychev        : AutoAux, RI-MP2 NMR, DLPNO-MP2 response, X2C
   Van Anh Tran           : RI-MP2 g-tensors
   Willem Van den Heuvel  : Paramagnetic NMR
   Zikuan Wang            : NOTCH, Electric field optimization 
   Frank Wennmohs         : Technical directorship and infrastructure
   Hang Xu                : AUTO-CI-Response properties 


 We gratefully acknowledge several colleagues who have allowed us to
 interface, adapt or use parts of their codes:
   Stefan Grimme, W. Hujo, H. Kruse, P. Pracht,  : VdW corrections, initial TS optimization,
                  C. Bannwarth, S. Ehlert,         DFT functionals, gCP, sTDA/sTD-DF
                  L. Wittmann, M. Mueller
   Ed Valeev, F. Pavosevic, A. Kumar             : LibInt (2-el integral package), F12 methods
   Garnet Chan, S. Sharma, J. Yang, R. Olivares  : DMRG
   Ulf Ekstrom                                   : XCFun DFT Library
   Mihaly Kallay                                 : mrcc  (arbitrary order and MRCC methods)
   Frank Weinhold                                : gennbo (NPA and NBO analysis)
   Simon Mueller                                 : openCOSMO-RS
   Christopher J. Cramer and Donald G. Truhlar   : smd solvation model
   Lars Goerigk                                  : TD-DFT with DH, B97 family of functionals
   V. Asgeirsson, H. Jonsson                     : NEB implementation
   FAccTs GmbH                                   : IRC, NEB, NEB-TS, DLPNO-Multilevel, CI-OPT
                                                   MM, QMMM, 2- and 3-layer-ONIOM, Crystal-QMMM,
                                                   LR-CPCM, SF, NACMEs, symmetry and pop. for TD-DFT,
                                                   nearIR, NL-DFT gradient (VV10), updates on ESD,
                                                   ML-optimized integration grids, MBIS, APM,
                                                   GOAT, DOCKER, SOLVATOR, interface openCOSMO-RS
   S Lehtola, MJT Oliveira, MAL Marques          : LibXC Library
   Liviu Ungur et al                             : ANISO software


 Your calculation uses the libint2 library for the computation of 2-el integrals
 For citations please refer to: http://libint.valeyev.net

 Your ORCA version has been built with support for libXC version: 6.2.2
 For citations please refer to: https://libxc.gitlab.io

 This ORCA versions uses:
   CBLAS   interface :  Fast vector & matrix operations
   LAPACKE interface :  Fast linear algebra routines
   SCALAPACK package :  Parallel linear algebra routines
   Shared memory     :  Shared parallel matrices
   BLAS/LAPACK       :  OpenBLAS 0.3.27  USE64BITINT DYNAMIC_ARCH NO_AFFINITY SkylakeX SINGLE_THREADED
        Core in use  :  SkylakeX
   Copyright (c) 2011-2014, The OpenBLAS Project


Your calculation utilizes the geometrical counterpoise correction gCP
Please cite in your paper:
H.Kruse, S. Grimme J.Chem.Phys., 136, (2012), 154101 
   

Your calculation utilizes the DFT-NL dispersion correction.
Cite in your paper:
Vydrov, O. A.; Van Voorhis, T. J. Chem. Phys. 2010, 133, 244103
Hujo, W.; Grimme, S. J. Chem. Theory Comput. 2011, 7, 3866 
   

Your calculation utilizes the SMD solvation module
Please cite in your paper:
A.V. Marenich, C.J. Cramer, D.G. Truhlar J. Phys. Chem. B, 113, (2009), 6378 

================================================================================

----- Orbital basis set information -----
Your calculation utilizes the basis: def2-TZVP
   F. Weigend and R. Ahlrichs, Phys. Chem. Chem. Phys. 7, 3297 (2005).

----- AuxJ basis set information -----
Your calculation utilizes the auxiliary basis: def2/J
   F. Weigend, Phys. Chem. Chem. Phys. 8, 1057 (2006).

================================================================================
                                        WARNINGS
                       Please study these warnings very carefully!
================================================================================


================================================================================
                                       INPUT FILE
================================================================================
NAME = sp_solv.inp
|  1> ! wb97x-v def2-tzvp def2/J RIJCOSX DEFGRID2 scfconv7 GCP(DFT/TZ) printgap
|  2> %output
|  3>     printlevel normal
|  4> end
|  5> %cpcm
|  6>     smd true
|  7>     smdsolvent "water"
|  8> end
|  9> * xyz 0 1
| 10> C -2.5748142568561185 -0.8693543075659099 0.328023003614157
| 11> C -1.1456126253497905 -0.42563848919482483 0.5784741884360456
| 12> H -0.9901228158180826 -0.36913322074460414 1.668772649475145
| 13> C -0.8062253554766818 0.9253107471890386 -0.04971626409340057
| 14> H -0.9997214305425286 0.8789874463861554 -1.1314635229774337
| 15> C 0.6645910860030692 1.2375603340844166 0.17609406651744797
| 16> H 0.8331216495133672 1.371555218313682 1.2582067034464253
| 17> C 1.5522082618471422 0.09634141764296252 -0.31597583953149155
| 18> H 1.4681499748240658 0.0020987353598708068 -1.4052165584275247
| 19> C 1.0969294396110256 -1.2154682964616126 0.3172604132120517
| 20> H 1.2237621005271213 -1.186936066390164 1.4133738514932885
| 21> O -0.287551550736248 -1.4316052304471267 0.012390899058209877
| 22> O 1.8272675121229303 -2.2690655588398547 -0.250308627890172
| 23> O 2.929152551252442 0.36886197062080334 -0.04271706425154223
| 24> O 0.9564930444927571 2.4563125644586306 -0.5170997217948803
| 25> O -1.6459303314311415 1.907610276898438 0.5663217067638
| 26> O -2.916868634634188 -0.9097243689557144 -1.0617397560969295
| 27> H -3.258880655561489 -0.16068581889189024 0.8009408927864172
| 28> H -2.7219682450415434 -1.8536894087890639 0.7925143113256132
| 29> H 1.7464930765958881 -3.03796560388629 0.33027832980111826
| 30> H 3.027566139670554 0.463639967867689 0.9160686451514756
| 31> H 1.8791911662019984 2.678032548075003 -0.3327451044568482
| 32> H -1.4128375975382745 2.7640549557354976 0.18361012712319788
| 33> H -2.3519886970941797 -1.5731809544654856 -1.479480007378499
| 34> *
| 35> 
| 36>                          ****END OF INPUT****
================================================================================

                       ****************************
                       * Single Point Calculation *
                       ****************************

---------------------------------
CARTESIAN COORDINATES (ANGSTROEM)
---------------------------------
  C     -2.574814   -0.869354    0.328023
  C     -1.145613   -0.425638    0.578474
  H     -0.990123   -0.369133    1.668773
  C     -0.806225    0.925311   -0.049716
  H     -0.999721    0.878987   -1.131464
  C      0.664591    1.237560    0.176094
  H      0.833122    1.371555    1.258207
  C      1.552208    0.096341   -0.315976
  H      1.468150    0.002099   -1.405217
  C      1.096929   -1.215468    0.317260
  H      1.223762   -1.186936    1.413374
  O     -0.287552   -1.431605    0.012391
  O      1.827268   -2.269066   -0.250309
  O      2.929153    0.368862   -0.042717
  O      0.956493    2.456313   -0.517100
  O     -1.645930    1.907610    0.566322
  O     -2.916869   -0.909724   -1.061740
  H     -3.258881   -0.160686    0.800941
  H     -2.721968   -1.853689    0.792514
  H      1.746493   -3.037966    0.330278
  H      3.027566    0.463640    0.916069
  H      1.879191    2.678033   -0.332745
  H     -1.412838    2.764055    0.183610
  H     -2.351989   -1.573181   -1.479480

----------------------------
CARTESIAN COORDINATES (A.U.)
----------------------------
  NO LB      ZA    FRAG     MASS         X           Y           Z
   0 C     6.0000    0    12.011   -4.865694   -1.642842    0.619874
   1 C     6.0000    0    12.011   -2.164894   -0.804340    1.093158
   2 H     1.0000    0     1.008   -1.871061   -0.697561    3.153523
   3 C     6.0000    0    12.011   -1.523545    1.748584   -0.093950
   4 H     1.0000    0     1.008   -1.889200    1.661046   -2.138156
   5 C     6.0000    0    12.011    1.255895    2.338650    0.332770
   6 H     1.0000    0     1.008    1.574372    2.591864    2.377666
   7 C     6.0000    0    12.011    2.933249    0.182059   -0.597108
   8 H     1.0000    0     1.008    2.774401    0.003966   -2.655474
   9 C     6.0000    0    12.011    2.072896   -2.296902    0.599535
  10 H     1.0000    0     1.008    2.312575   -2.242984    2.670890
  11 O     8.0000    0    15.999   -0.543394   -2.705342    0.023415
  12 O     8.0000    0    15.999    3.453035   -4.287912   -0.473015
  13 O     8.0000    0    15.999    5.535296    0.697048   -0.080724
  14 O     8.0000    0    15.999    1.807510    4.641758   -0.977177
  15 O     8.0000    0    15.999   -3.110358    3.604861    1.070193
  16 O     8.0000    0    15.999   -5.512083   -1.719130   -2.006397
  17 H     1.0000    0     1.008   -6.158392   -0.303652    1.513559
  18 H     1.0000    0     1.008   -5.143775   -3.502965    1.497635
  19 H     1.0000    0     1.008    3.300394   -5.740923    0.624136
  20 H     1.0000    0     1.008    5.721271    0.876153    1.731119
  21 H     1.0000    0     1.008    3.551157    5.060748   -0.628797
  22 H     1.0000    0     1.008   -2.669876    5.223307    0.346973
  23 H     1.0000    0     1.008   -4.444615   -2.972881   -2.795812

--------------------------------
INTERNAL COORDINATES (ANGSTROEM)
--------------------------------
 C      0   0   0     0.000000000000     0.00000000     0.00000000
 C      1   0   0     1.517309074300     0.00000000     0.00000000
 H      2   1   0     1.102778608958   108.11887493     0.00000000
 C      2   1   3     1.528028403822   113.57178281   238.57315609
 H      4   2   1     1.099892590832   109.14865376   302.99711691
 C      4   2   1     1.520457534578   109.59482781   183.74378153
 H      6   4   2     1.103324493899   108.56385306   294.38206931
 C      6   4   2     1.527212381608   111.15628035    53.69922828
 H      8   6   4     1.096536740142   109.86026353    65.62891080
 C      8   6   4     1.526142746857   109.58696596   306.64954325
 H     10   8   6     1.103795851418   110.82657125   296.41067373
 O     10   8   6     1.434032150102   109.22949600    56.54490964
 O     10   8   6     1.401996971419   108.81899263   173.83980219
 O      8   6   4     1.430004680478   110.83384579   182.75825239
 O      6   4   2     1.432159691015   107.46028870   175.57422561
 O      4   2   1     1.431614331532   107.42461004    62.73963599
 O      1   2   3     1.431807063641   113.17156378   176.83281987
 H      1   2   3     1.092615757976   109.18432466    58.04437765
 H      1   2   3     1.098326937974   108.57095412   300.13895623
 H     13  10   8     0.966857282203   108.12061814   162.36531707
 H     14   8   6     0.968472064493   107.79879095    60.23589268
 H     15   6   4     0.966704815274   107.30248630   176.98960214
 H     16   4   2     0.966590846063   107.22578063   178.54895821
 H     17   1   2     0.966318219963   107.41635005    63.14443027

---------------------------
INTERNAL COORDINATES (A.U.)
---------------------------
 C      0   0   0     0.000000000000     0.00000000     0.00000000
 C      1   0   0     2.867298610940     0.00000000     0.00000000
 H      2   1   0     2.083949557277   108.11887493     0.00000000
 C      2   1   3     2.887555208077   113.57178281   238.57315609
 H      4   2   1     2.078495773401   109.14865376   302.99711691
 C      4   2   1     2.873248338609   109.59482781   183.74378153
 H      6   4   2     2.084981130317   108.56385306   294.38206931
 C      6   4   2     2.886013149572   111.15628035    53.69922828
 H      8   6   4     2.072154134652   109.86026353    65.62891080
 C      8   6   4     2.883991832830   109.58696596   306.64954325
 H     10   8   6     2.085871866939   110.82657125   296.41067373
 O     10   8   6     2.709928030931   109.22949600    56.54490964
 O     10   8   6     2.649390316570   108.81899263   173.83980219
 O      8   6   4     2.702317216329   110.83384579   182.75825239
 O      6   4   2     2.706389596059   107.46028870   175.57422561
 O      4   2   1     2.705359015992   107.42461004    62.73963599
 O      1   2   3     2.705723226896   113.17156378   176.83281987
 H      1   2   3     2.064744552181   109.18432466    58.04437765
 H      1   2   3     2.075537118278   108.57095412   300.13895623
 H     13  10   8     1.827095473950   108.12061814   162.36531707
 H     14   8   6     1.830146970245   107.79879095    60.23589268
 H     15   6   4     1.826807353211   107.30248630   176.98960214
 H     16   4   2     1.826591982614   107.22578063   178.54895821
 H     17   1   2     1.826076793948   107.41635005    63.14443027

---------------------
BASIS SET INFORMATION
---------------------
There are 3 groups of distinct atoms

 Group   1 Type C   : 11s6p2d1f contracted to 5s3p2d1f pattern {62111/411/11/1}
 Group   2 Type H   : 5s1p contracted to 3s1p pattern {311/1}
 Group   3 Type O   : 11s6p2d1f contracted to 5s3p2d1f pattern {62111/411/11/1}

Atom   0C    basis set group =>   1
Atom   1C    basis set group =>   1
Atom   2H    basis set group =>   2
Atom   3C    basis set group =>   1
Atom   4H    basis set group =>   2
Atom   5C    basis set group =>   1
Atom   6H    basis set group =>   2
Atom   7C    basis set group =>   1
Atom   8H    basis set group =>   2
Atom   9C    basis set group =>   1
Atom  10H    basis set group =>   2
Atom  11O    basis set group =>   3
Atom  12O    basis set group =>   3
Atom  13O    basis set group =>   3
Atom  14O    basis set group =>   3
Atom  15O    basis set group =>   3
Atom  16O    basis set group =>   3
Atom  17H    basis set group =>   2
Atom  18H    basis set group =>   2
Atom  19H    basis set group =>   2
Atom  20H    basis set group =>   2
Atom  21H    basis set group =>   2
Atom  22H    basis set group =>   2
Atom  23H    basis set group =>   2
---------------------------------
AUXILIARY/J BASIS SET INFORMATION
---------------------------------
There are 3 groups of distinct atoms

 Group   1 Type C   : 12s5p4d2f1g contracted to 6s4p3d1f1g pattern {711111/2111/211/2/1}
 Group   2 Type H   : 5s2p1d contracted to 3s1p1d pattern {311/2/1}
 Group   3 Type O   : 12s5p4d2f1g contracted to 6s4p3d1f1g pattern {711111/2111/211/2/1}

Atom   0C    basis set group =>   1
Atom   1C    basis set group =>   1
Atom   2H    basis set group =>   2
Atom   3C    basis set group =>   1
Atom   4H    basis set group =>   2
Atom   5C    basis set group =>   1
Atom   6H    basis set group =>   2
Atom   7C    basis set group =>   1
Atom   8H    basis set group =>   2
Atom   9C    basis set group =>   1
Atom  10H    basis set group =>   2
Atom  11O    basis set group =>   3
Atom  12O    basis set group =>   3
Atom  13O    basis set group =>   3
Atom  14O    basis set group =>   3
Atom  15O    basis set group =>   3
Atom  16O    basis set group =>   3
Atom  17H    basis set group =>   2
Atom  18H    basis set group =>   2
Atom  19H    basis set group =>   2
Atom  20H    basis set group =>   2
Atom  21H    basis set group =>   2
Atom  22H    basis set group =>   2
Atom  23H    basis set group =>   2

Checking for AutoStart:
The File: sp_solv.gbw exists
Trying to determine its content:
     ... Fine, the file contains calculation information
     ... Fine, the calculation information was read
     ... Fine, the file contains a basis set
     ... Fine, the basis set was read
     ... Fine, the file contains a geometry
     ... Fine, the geometry was read
     ... Fine, the file contains a set of orbitals
     ... Fine, the orbitals can be read
     => possible old guess file was deleted
     => GBW file was renamed to GES file
     => GES file is set as startup file
     => Guess is set to MORead
     ... now leaving AutoStart

------------------------------------------------------------------------------
                             ORCA STARTUP CALCULATIONS
                           -- RI-GTO INTEGRALS CHOSEN --
------------------------------------------------------------------------------
------------------------------------------------------------------------------
                   ___                                                        
                  /   \      - P O W E R E D   B Y -                         
                 /     \                                                     
                 |  |  |   _    _      __       _____    __    __             
                 |  |  |  | |  | |    /  \     |  _  \  |  |  /  |          
                  \  \/   | |  | |   /    \    | | | |  |  | /  /          
                 / \  \   | |__| |  /  /\  \   | |_| |  |  |/  /          
                |  |  |   |  __  | /  /__\  \  |    /   |      \           
                |  |  |   | |  | | |   __   |  |    \   |  |\   \          
                \     /   | |  | | |  |  |  |  | |\  \  |  | \   \       
                 \___/    |_|  |_| |__|  |__|  |_| \__\ |__|  \__/        
                                                                              
                      - O R C A' S   B I G   F R I E N D -                    
                                      &                                       
                       - I N T E G R A L  F E E D E R -                       
                                                                              
 v1 FN, 2020, v2 2021, v3 2022-2024                                           
------------------------------------------------------------------------------


----------------------
SHARK INTEGRAL PACKAGE
----------------------

Number of atoms                             ...     24
Number of basis functions                   ...    444
Number of shells                            ...    180
Maximum angular momentum                    ...      3
Integral batch strategy                     ... SHARK/LIBINT Hybrid
RI-J (if used) integral strategy            ... SPLIT-RIJ (Revised 2003 algorithm where possible)
Printlevel                                  ...      1
Contraction scheme used                     ... SEGMENTED contraction
Prescreening option                         ... SCHWARTZ
   Thresh                                   ... 3.000e-11
   Tcut                                     ... 1.000e-12
   Tpresel                                  ... 1.000e-12 
Coulomb Range Separation                    ... NOT USED
Exchange Range Separation                   ... Long Range
   Mu parameter                             ... 3.000e-01
   Scaling (regular/separated)              ... 1.670e-01 8.330e-01
Multipole approximations                    ... NOT USED
Finite Nucleus Model                        ... NOT USED
CABS basis                                  ... NOT available
Auxiliary Coulomb fitting basis             ... AVAILABLE
   # of basis functions in Aux-J            ...    720
   # of shells in Aux-J                     ...    240
   Maximum angular momentum in Aux-J        ...      4
Auxiliary J/K fitting basis                 ... NOT available
Auxiliary Correlation fitting basis         ... NOT available
Auxiliary 'external' fitting basis          ... NOT available

Checking pre-screening integrals            ... done (  0.0 sec) Dimension = 180
Check shell pair data                       ... done (  0.0 sec)
Shell pair information
Shell pair cut-off parameter TPreSel        ...   1.0e-12
Total number of shell pairs                 ...     16290
Shell pairs after pre-screening             ...     13969
Total number of primitive shell pairs       ...     49128
Primitive shell pairs kept                  ...     30179
          la=0 lb=0:   3884 shell pairs
          la=1 lb=0:   4036 shell pairs
          la=1 lb=1:   1072 shell pairs
          la=2 lb=0:   1939 shell pairs
          la=2 lb=1:   1026 shell pairs
          la=2 lb=2:    257 shell pairs
          la=3 lb=0:    939 shell pairs
          la=3 lb=1:    510 shell pairs
          la=3 lb=2:    239 shell pairs
          la=3 lb=3:     67 shell pairs

Calculating one electron integrals          ... done (  0.1 sec)
Calculating RI/J V-Matrix + Cholesky decomp.... done (  0.1 sec)
Calculating Nuclear repulsion               ... done (  0.0 sec) ENN=    827.200932668271 Eh

Diagonalization of the overlap matrix:
Smallest eigenvalue                        ... 4.919e-05
Time for diagonalization                   ...    0.020 sec
Threshold for overlap eigenvalues          ... 1.000e-07
Number of eigenvalues below threshold      ... 0
Time for construction of square roots      ...    0.029 sec
Total time needed                          ...    0.059 sec

-------------------
DFT GRID GENERATION
-------------------

General Integration Accuracy     IntAcc      ... 4.388
Radial Grid Type                 RadialGrid  ... OptM3 with GC (2021)
Angular Grid (max. ang.)         AngularGrid ... 4 (Lebedev-302)
Angular grid pruning method      GridPruning ... 4 (adaptive)
Weight generation scheme         WeightScheme... mBecke (2022)
Basis function cutoff            BFCut       ... 1.0000e-11
Integration weight cutoff        WCut        ... 1.0000e-14
Partially contracted basis set               ... off
Rotationally invariant grid construction     ... off
Angular grids for H and He will be reduced by one unit

Total number of grid points                  ...   110330
Total number of batches                      ...     1736
Average number of points per batch           ...       63
Average number of grid points per atom       ...     4597

--------------------
COSX GRID GENERATION
--------------------

GRIDX 1
-------
General Integration Accuracy     IntAcc      ... 3.816
Radial Grid Type                 RadialGrid  ... OptM3 with GC (2021)
Angular Grid (max. ang.)         AngularGrid ... 1 (Lebedev-50)
Angular grid pruning method      GridPruning ... 4 (adaptive)
Weight generation scheme         WeightScheme... mBecke (2022)
Basis function cutoff            BFCut       ... 1.0000e-11
Integration weight cutoff        WCut        ... 1.0000e-14
Partially contracted basis set               ... on
Rotationally invariant grid construction     ... off
Angular grids for H and He will be reduced by one unit

Total number of grid points                  ...    14051
Total number of batches                      ...      125
Average number of points per batch           ...      112
Average number of grid points per atom       ...      585
UseSFitting                                  ... on

GRIDX 2
-------
General Integration Accuracy     IntAcc      ... 4.020
Radial Grid Type                 RadialGrid  ... OptM3 with GC (2021)
Angular Grid (max. ang.)         AngularGrid ... 2 (Lebedev-110)
Angular grid pruning method      GridPruning ... 4 (adaptive)
Weight generation scheme         WeightScheme... mBecke (2022)
Basis function cutoff            BFCut       ... 1.0000e-11
Integration weight cutoff        WCut        ... 1.0000e-14
Partially contracted basis set               ... on
Rotationally invariant grid construction     ... off
Angular grids for H and He will be reduced by one unit

Total number of grid points                  ...    30281
Total number of batches                      ...      250
Average number of points per batch           ...      121
Average number of grid points per atom       ...     1262
UseSFitting                                  ... on

GRIDX 3
-------
General Integration Accuracy     IntAcc      ... 4.338
Radial Grid Type                 RadialGrid  ... OptM3 with GC (2021)
Angular Grid (max. ang.)         AngularGrid ... 3 (Lebedev-194)
Angular grid pruning method      GridPruning ... 4 (adaptive)
Weight generation scheme         WeightScheme... mBecke (2022)
Basis function cutoff            BFCut       ... 1.0000e-11
Integration weight cutoff        WCut        ... 1.0000e-14
Partially contracted basis set               ... on
Rotationally invariant grid construction     ... off
Angular grids for H and He will be reduced by one unit

Total number of grid points                  ...    66327
Total number of batches                      ...      531
Average number of points per batch           ...      124
Average number of grid points per atom       ...     2764
UseSFitting                                  ... on
Initializing property integral containers    ... done (  0.0 sec)

SHARK setup successfully completed in   3.8 seconds

Maximum memory used throughout the entire STARTUP-calculation: 72.4 MB
-------------------------------------------------------------------------------
                                 ORCA GUESS
                   Start orbitals & Density for SCF / CASSCF
-------------------------------------------------------------------------------

------------
SCF SETTINGS
------------
Hamiltonian:
 Density Functional     Method          .... DFT(GTOs)
 Exchange Functional    Exchange        .... WB97X-V
 Correlation Functional Correlation     .... WB97X-V
 Gradients option       PostSCFGGA      .... off
 Hybrid DFT is turned on
   Fraction HF Exchange ScalHFX         ....  0.167000
   Scaling of DF-GGA-X  ScalDFX         ....  0.000000
   Scaling of DF-GGA-C  ScalDFC         ....  1.000000
   Scaling of DF-LDA-C  ScalLDAC        ....  1.000000
   Perturbative correction              ....  0.000000
 Long-range corrected/Screened/Range-Separated Hybrid DFT is turned on
   Amount of maximum screened exact exchange              ....  0.833000
   Range separation parameter mu (erf(mu*r12)/r12)        ....  0.300000
   NL short-range parameter             ....  6.000000
   NL long-range parameter              ....  0.010000
 RI-approximation to the Coulomb term is turned on
   Number of AuxJ basis functions       .... 720
   RIJ-COSX (HFX calculated with COS-X)).... on


General Settings:
 Integral files         IntName         .... sp_solv
 Hartree-Fock type      HFTyp           .... RHF
 Total Charge           Charge          ....    0
 Multiplicity           Mult            ....    1
 Number of Electrons    NEL             ....   96
 Basis Dimension        Dim             ....  444
 Nuclear Repulsion      ENuc            ....    827.2009326683 Eh

Convergence Acceleration:
 AO-DIIS                CNVDIIS         .... on
   Start iteration      DIISMaxIt       ....    12
   Startup error        DIISStart       ....  0.200000
   # of expansion vecs  DIISMaxEq       ....     5
   Bias factor          DIISBfac        ....   1.050
   Max. coefficient     DIISMaxC        ....  10.000
 MO-DIIS                CNVKDIIS        .... off
 Trust-Rad. Augm. Hess. CNVTRAH         .... auto
   Auto Start mean grad. ratio tolernc. ....  1.125000
   Auto Start start iteration           ....     1
   Auto Start num. interpolation iter.  ....    10
   Max. Number of Micro iterations      ....    24
   Max. Number of Macro iterations      .... Maxiter - #DIIS iter
   Number of Davidson start vectors     ....     2
   Converg. threshold    (grad. norm)   ....   1.000e-04
   Grad. Scal. Fac. for Micro threshold ....   0.100
   Minimum threshold for Micro iter.    ....   1.000e-02
   NR start threshold (gradient norm)   ....   1.000e-04
   Initial trust radius                 ....   0.400
   Minimum AH scaling param. (alpha)    ....   1.000
   Maximum AH scaling param. (alpha)    .... 1000.000
   Quad. conv. algorithm                .... NR
   White noise on init. David. guess    .... on
   Maximum white noise                  ....   0.010
   Pseudo random numbers                .... off
   Inactive MOs                         .... canonical
   Orbital update algorithm             .... Taylor
   Preconditioner                       .... Diag
   Full preconditioner red. dimension   ....   250
 SOSCF                  CNVSOSCF        .... on
   Start iteration      SOSCFMaxIt      ....   150
   Startup grad/error   SOSCFStart      ....  0.003300
   Hessian update       SOSCFHessUp     .... L-BFGS
 Level Shifting         CNVShift        .... on
   Level shift para.    LevelShift      ....    0.2500
   Turn off err/grad.   ShiftErr        ....    0.0010
 Zerner damping         CNVZerner       .... off
 Static damping         CNVDamp         .... on
   Fraction old density DampFac         ....    0.7000
   Max. Damping (<1)    DampMax         ....    0.9800
   Min. Damping (>=0)   DampMin         ....    0.0000
   Turn off err/grad.   DampErr         ....    0.1000

SCF Procedure:
 Maximum # iterations   MaxIter         ....   125
 SCF integral mode      SCFMode         .... Direct
   Integral package                     .... SHARK and LIBINT hybrid scheme
 Reset frequency        DirectResetFreq ....    20
 Integral Threshold     Thresh          ....  3.000e-11 Eh
 Primitive CutOff       TCut            ....  1.000e-12 Eh

Convergence Tolerance:
 Convergence Check Mode ConvCheckMode   .... Total+1el-Energy
 Convergence forced     ConvForced      .... 0
 Energy Change          TolE            ....  1.000e-07 Eh
 1-El. energy change                    ....  1.000e-04 Eh
 Orbital Gradient       TolG            ....  1.000e-04
 Orbital Rotation angle TolX            ....  1.000e-04
 DIIS Error             TolErr          ....  1.000e-07

---------------------
INITIAL GUESS: MOREAD
---------------------
Guess MOs are being read from file: sp_solv.ges
Input Geometry matches current geometry (good)
Atom 0: N(Shells)= 11 and 9 - projection required
Input basis set needs projection
NBasis(read)= 318
NBasis(calc)= 444
Basis set overlap was calculated
Using GuessMode=FMatrix for the initial guess
C*T matrix was formed
Effective Fockian was calculated
Effective Fockian was diagonalized
Initial density was built
                      ------------------
                      INITIAL GUESS DONE (   0.1 sec)
                      ------------------
             **** ENERGY FILE WAS UPDATED (sp_solv.en.tmp) ****
Finished Guess after   0.5 sec
Maximum memory used throughout the entire GUESS-calculation: 50.5 MB

-------------------------------------------------------------------------------------------
                                      ORCA LEAN-SCF
                              memory conserving SCF solver
-------------------------------------------------------------------------------------------

--------------------
CPCM SOLVATION MODEL
--------------------
CPCM parameters:
  Epsilon                                         ...      78.3550
  Refrac                                          ...       1.3328
  Rsolv                                           ...       1.3000
  Surface type                                    ... GAUSSIAN VDW
  Discretization scheme                           ... Constant charge density
    Threshold for H atoms                         ...       5.0000 (charges/Ang^2)
    Threshold for non-H atoms                     ...       5.0000 (charges/Ang^2)
  Epsilon function type                           ...         CPCM
Solvent:                                          ... WATER
SMD-CDS solvent descriptors:
  Soln                                            ...       1.3328
  Soln25                                          ...       1.3323
  Sola                                            ...       0.0000
  Solb                                            ...       0.0000
  Solg                                            ...       0.0000
  Solc                                            ...       0.0000
  Solh                                            ...       0.0000
Radii:
  Scheme                                          ... Element-dependent radii
  Radius for C  used is    3.4960 Bohr (=   1.8500 Ang.)
  Radius for H  used is    2.2677 Bohr (=   1.2000 Ang.)
  Radius for O  used is    2.8724 Bohr (=   1.5200 Ang.)
Calculating surface                               ...        done! (  0.0s)
Cavity surface points                             ...         1651
Cavity Volume                                     ...    1047.0845
Cavity Surface-area                               ...     673.5065
Calculating surface distance matrix               ...        done! (  0.0s)
Performing Cholesky decomposition & store         ...        done! (  0.1s)
Overall time for CPCM initialization              ...                 0.1s

----------------------------------------D-I-I-S--------------------------------------------
Iteration    Energy (Eh)           Delta-E    RMSDP     MaxDP     DIISErr   Damp  Time(sec)
-------------------------------------------------------------------------------------------
               ***  Starting incremental Fock matrix formation  ***
    1    -687.6439037204110036     0.00e+00  1.02e-03  4.44e-02  4.88e-02  0.700  40.5
    2    -687.6528528220520684    -8.95e-03  8.59e-04  3.59e-02  3.41e-02  0.700  19.4
                               ***Turning on AO-DIIS***
    3    -687.6595539864930515    -6.70e-03  7.00e-04  2.85e-02  2.38e-02  0.700  19.2
    4    -687.6644652677822478    -4.91e-03  1.74e-03  7.00e-02  1.65e-02  0.000  19.0
                              *** Initializing SOSCF ***
---------------------------------------S-O-S-C-F--------------------------------------
Iteration    Energy (Eh)           Delta-E    RMSDP     MaxDP     MaxGrad    Time(sec)
--------------------------------------------------------------------------------------
    5    -687.6768665348537297    -1.24e-02  7.41e-05  3.10e-03  7.45e-04    19.9
               *** Restarting incremental Fock matrix formation ***
    6    -687.6769034141037764    -3.69e-05  3.31e-05  1.19e-03  1.66e-04    40.2
    7    -687.6769095986225011    -6.18e-06  2.01e-05  7.30e-04  6.45e-05    29.3
    8    -687.6769101820531205    -5.83e-07  6.82e-06  2.77e-04  5.35e-05    28.1
    9    -687.6769106189975673    -4.37e-07  9.15e-07  5.90e-05  4.11e-06    25.7
                  *** Gradient check signals convergence ***

               *****************************************************
               *                     SUCCESS                       *
               *           SCF CONVERGED AFTER   9 CYCLES          *
               *****************************************************


------------------
NL GRID GENERATION
------------------

General Integration Accuracy     IntAcc      ... 4.004
Radial Grid Type                 RadialGrid  ... OptM3 with GC (2021)
Angular Grid (max. ang.)         AngularGrid ... 2 (Lebedev-110)
Angular grid pruning method      GridPruning ... 4 (adaptive)
Weight generation scheme         WeightScheme... mBecke (2022)
Basis function cutoff            BFCut       ... 1.0000e-10
Integration weight cutoff        WCut        ... 1.0000e-14
Partially contracted basis set               ... off
Rotationally invariant grid construction     ... off
Angular grids for H and He will be reduced by one unit

Total number of grid points                  ...    34498
Total number of batches                      ...      552
Average number of points per batch           ...       62
Average number of grid points per atom       ...     1437
Final grid set up in    0.3 sec

-------------------------------------------------------------------------------
                    post-SCF DFT-NL dispersion correction                      
-------------------------------------------------------------------------------

SCF Energy:     -687.676910619 
NL    Energy:      0.364108183 
SC+NL Energy:   -687.312802436 
NL done in  :              4.6 sec
-------------------------------------------------------------------------------
Recomputing exchange energy using gridx3       ... done (   72.141 sec)
Old exchange energy                            :    -26.829253908 Eh
New exchange energy                            :    -26.829235947 Eh
Exchange energy change after final integration :      0.000017961 Eh
Total energy after final integration           :   -687.312784475 Eh

SMD CDS free energy correction energy :                 4.04909     Kcal/mol
Total Energy after SMD CDS correction =              -687.306331836 Eh
             **** ENERGY FILE WAS UPDATED (sp_solv.en.tmp) ****

----------------
TOTAL SCF ENERGY
----------------

Total Energy       :       -687.30633183565976 Eh          -18702.55611 eV

Components:
Nuclear Repulsion  :        827.20093266827132 Eh           22509.28173 eV
Electronic Energy  :      -1514.81900515045868 Eh          -41220.32073 eV
One Electron Energy:      -2584.50236641126776 Eh          -70327.88479 eV
Two Electron Energy:       1069.68336126080908 Eh           29107.56406 eV
CPCM Dielectric    :         -0.05883813681015 Eh              -1.60107 eV
SMD CDS (Gcds)     :          0.00645263956125 Eh               0.17559 eV

Virial components:
Potential Energy   :      -1371.93296974587201 Eh          -37332.19404 eV
Kinetic Energy     :        684.62663791021214 Eh           18629.63793 eV
Virial Ratio       :          2.00391409532885

DFT components:
N(Alpha)           :       47.999983570276 electrons
N(Beta)            :       47.999983570276 electrons
N(Total)           :       95.999967140552 electrons
E(X)               :      -58.013248003992 Eh       
E(C)               :       -4.112939794577 Eh       
NL Energy, E(C,NL) :        0.364108182724 Eh       
E(XC)              :      -61.762079615845 Eh       

CPCM Solvation Model Properties:
Surface-charge          :         -0.05411221230889
Corrected charge        :         -0.00000000000000
Outlying charge corr.   :          0.00021171326129 Eh               0.00576 eV
Free-energy (cav+disp)  :          0.00645263956125 Eh               0.17559 eV

---------------
SCF CONVERGENCE
---------------

  Last Energy change         ...    4.3694e-07  Tolerance :   1.0000e-07
  Last MAX-Density change    ...    5.9027e-05  Tolerance :   1.0000e-05
  Last RMS-Density change    ...    9.1549e-07  Tolerance :   1.0000e-06
  Last DIIS Error            ...    7.4509e-04  Tolerance :   1.0000e-07
  Last Orbital Gradient      ...    4.1149e-06  Tolerance :   1.0000e-04
  Last Orbital Rotation      ...    5.3252e-06  Tolerance :   1.0000e-04


----------------
ORBITAL ENERGIES
----------------

  NO   OCC          E(Eh)            E(eV) 
   0   2.0000     -21.691185      -590.2472 
   1   2.0000     -21.690952      -590.2408 
   2   2.0000     -21.684785      -590.0730 
   3   2.0000     -21.681359      -589.9798 
   4   2.0000     -21.681078      -589.9721 
   5   2.0000     -21.677301      -589.8694 
   6   2.0000     -12.152537      -330.6873 
   7   2.0000     -12.103760      -329.3600 
   8   2.0000     -12.102648      -329.3298 
   9   2.0000     -12.101520      -329.2991 
  10   2.0000     -12.100239      -329.2642 
  11   2.0000     -12.091101      -329.0156 
  12   2.0000      -1.722597       -46.8743 
  13   2.0000      -1.690614       -46.0040 
  14   2.0000      -1.686414       -45.8896 
  15   2.0000      -1.681159       -45.7467 
  16   2.0000      -1.678101       -45.6634 
  17   2.0000      -1.675818       -45.6013 
  18   2.0000      -1.332219       -36.2515 
  19   2.0000      -1.318918       -35.8896 
  20   2.0000      -1.233833       -33.5743 
  21   2.0000      -1.194905       -32.5150 
  22   2.0000      -1.168620       -31.7998 
  23   2.0000      -1.122364       -30.5411 
  24   2.0000      -1.093393       -29.7527 
  25   2.0000      -1.064372       -28.9630 
  26   2.0000      -1.050993       -28.5990 
  27   2.0000      -1.037425       -28.2298 
  28   2.0000      -1.028345       -27.9827 
  29   2.0000      -1.021601       -27.7992 
  30   2.0000      -0.995923       -27.1005 
  31   2.0000      -0.983502       -26.7625 
  32   2.0000      -0.973956       -26.5027 
  33   2.0000      -0.971560       -26.4375 
  34   2.0000      -0.963730       -26.2244 
  35   2.0000      -0.944829       -25.7101 
  36   2.0000      -0.943892       -25.6846 
  37   2.0000      -0.929884       -25.3034 
  38   2.0000      -0.925822       -25.1929 
  39   2.0000      -0.910496       -24.7759 
  40   2.0000      -0.897388       -24.4192 
  41   2.0000      -0.886830       -24.1319 
  42   2.0000      -0.840026       -22.8583 
  43   2.0000      -0.834916       -22.7192 
  44   2.0000      -0.807764       -21.9804 
  45   2.0000      -0.802987       -21.8504 
  46   2.0000      -0.798256       -21.7216 
  47   2.0000      -0.770216       -20.9587 
  48   0.0000      -0.235431        -6.4064 
  49   0.0000      -0.189775        -5.1640 
  50   0.0000      -0.171905        -4.6778 
  51   0.0000      -0.149565        -4.0699 
  52   0.0000      -0.124413        -3.3855 
  53   0.0000      -0.102653        -2.7933 
  54   0.0000      -0.055038        -1.4977 
  55   0.0000      -0.048701        -1.3252 
  56   0.0000      -0.036902        -1.0042 
  57   0.0000      -0.026829        -0.7301 
  58   0.0000      -0.022471        -0.6115 
*Only the first 10 virtual orbitals were printed.

                    ********************************
                    * MULLIKEN POPULATION ANALYSIS *
                    ********************************

-----------------------
MULLIKEN ATOMIC CHARGES
-----------------------
   0 C :   -0.013276
   1 C :    0.040040
   2 H :    0.109874
   3 C :    0.099577
   4 H :    0.091304
   5 C :    0.025742
   6 H :    0.114971
   7 C :    0.116857
   8 H :    0.110852
   9 C :    0.066108
  10 H :    0.117029
  11 O :   -0.331608
  12 O :   -0.486827
  13 O :   -0.527837
  14 O :   -0.528650
  15 O :   -0.531809
  16 O :   -0.555218
  17 H :    0.129605
  18 H :    0.131689
  19 H :    0.375416
  20 H :    0.363650
  21 H :    0.361243
  22 H :    0.361516
  23 H :    0.359751
Sum of atomic charges:   -0.0000000

--------------------------------
MULLIKEN REDUCED ORBITAL CHARGES
--------------------------------
  0 C s       :     3.182229  s :     3.182229
      pz      :     0.702794  p :     2.705758
      px      :     0.936804
      py      :     1.066160
      dz2     :     0.021907  d :     0.115832
      dxz     :     0.036619
      dyz     :     0.031827
      dx2y2   :     0.012468
      dxy     :     0.013012
      f0      :     0.002523  f :     0.009457
      f+1     :     0.002232
      f-1     :     0.002080
      f+2     :     0.000622
      f-2     :     0.000432
      f+3     :     0.000749
      f-3     :     0.000819

  1 C s       :     3.148191  s :     3.148191
      pz      :     0.973753  p :     2.635992
      px      :     0.871575
      py      :     0.790665
      dz2     :     0.043380  d :     0.163451
      dxz     :     0.020423
      dyz     :     0.021269
      dx2y2   :     0.039213
      dxy     :     0.039166
      f0      :     0.001337  f :     0.012326
      f+1     :     0.001278
      f-1     :     0.001789
      f+2     :     0.001367
      f-2     :     0.001580
      f+3     :     0.002573
      f-3     :     0.002401

  2 H s       :     0.869450  s :     0.869450
      pz      :     0.014016  p :     0.020677
      px      :     0.003534
      py      :     0.003127

  3 C s       :     3.135140  s :     3.135140
      pz      :     0.953463  p :     2.597644
      px      :     0.829140
      py      :     0.815041
      dz2     :     0.039368  d :     0.155412
      dxz     :     0.022046
      dyz     :     0.024648
      dx2y2   :     0.038933
      dxy     :     0.030418
      f0      :     0.001214  f :     0.012226
      f+1     :     0.001223
      f-1     :     0.001906
      f+2     :     0.001740
      f-2     :     0.001452
      f+3     :     0.002014
      f-3     :     0.002677

  4 H s       :     0.887696  s :     0.887696
      pz      :     0.014012  p :     0.021000
      px      :     0.003864
      py      :     0.003124

  5 C s       :     3.186488  s :     3.186488
      pz      :     0.926158  p :     2.619377
      px      :     0.945927
      py      :     0.747291
      dz2     :     0.041576  d :     0.156192
      dxz     :     0.020832
      dyz     :     0.025973
      dx2y2   :     0.033932
      dxy     :     0.033879
      f0      :     0.001243  f :     0.012201
      f+1     :     0.000740
      f-1     :     0.002599
      f+2     :     0.001687
      f-2     :     0.001481
      f+3     :     0.002036
      f-3     :     0.002416

  6 H s       :     0.864768  s :     0.864768
      pz      :     0.013464  p :     0.020261
      px      :     0.003760
      py      :     0.003037

  7 C s       :     3.066997  s :     3.066997
      pz      :     1.039898  p :     2.651520
      px      :     0.705863
      py      :     0.905759
      dz2     :     0.037119  d :     0.152534
      dxz     :     0.022050
      dyz     :     0.019080
      dx2y2   :     0.033853
      dxy     :     0.040432
      f0      :     0.001424  f :     0.012092
      f+1     :     0.001123
      f-1     :     0.001151
      f+2     :     0.001532
      f-2     :     0.000984
      f+3     :     0.002513
      f-3     :     0.003365

  8 H s       :     0.868381  s :     0.868381
      pz      :     0.014426  p :     0.020767
      px      :     0.002663
      py      :     0.003677

  9 C s       :     3.243699  s :     3.243699
      pz      :     0.970257  p :     2.473057
      px      :     0.691024
      py      :     0.811776
      dz2     :     0.042380  d :     0.199483
      dxz     :     0.034628
      dyz     :     0.027195
      dx2y2   :     0.047965
      dxy     :     0.047316
      f0      :     0.001811  f :     0.017654
      f+1     :     0.001656
      f-1     :     0.002020
      f+2     :     0.002993
      f-2     :     0.001870
      f+3     :     0.002545
      f-3     :     0.004758

 10 H s       :     0.863399  s :     0.863399
      pz      :     0.014253  p :     0.019572
      px      :     0.002519
      py      :     0.002801

 11 O s       :     3.744542  s :     3.744542
      pz      :     1.733565  p :     4.549363
      px      :     1.225816
      py      :     1.589981
      dz2     :     0.004644  d :     0.035887
      dxz     :     0.007073
      dyz     :     0.004967
      dx2y2   :     0.009763
      dxy     :     0.009440
      f0      :     0.000236  f :     0.001817
      f+1     :     0.000311
      f-1     :     0.000147
      f+2     :     0.000220
      f-2     :     0.000226
      f+3     :     0.000342
      f-3     :     0.000336

 12 O s       :     3.754236  s :     3.754236
      pz      :     1.643612  p :     4.701681
      px      :     1.752069
      py      :     1.306000
      dz2     :     0.003483  d :     0.029256
      dxz     :     0.004447
      dyz     :     0.011612
      dx2y2   :     0.004571
      dxy     :     0.005143
      f0      :     0.000141  f :     0.001654
      f+1     :     0.000086
      f-1     :     0.000203
      f+2     :     0.000384
      f-2     :     0.000229
      f+3     :     0.000310
      f-3     :     0.000300

 13 O s       :     3.773691  s :     3.773691
      pz      :     1.421172  p :     4.723862
      px      :     1.428619
      py      :     1.874071
      dz2     :     0.012592  d :     0.028747
      dxz     :     0.003543
      dyz     :     0.001121
      dx2y2   :     0.006946
      dxy     :     0.004545
      f0      :     0.000546  f :     0.001537
      f+1     :     0.000092
      f-1     :     0.000097
      f+2     :     0.000165
      f-2     :     0.000054
      f+3     :     0.000310
      f-3     :     0.000273

 14 O s       :     3.769326  s :     3.769326
      pz      :     1.766735  p :     4.729694
      px      :     1.453004
      py      :     1.509955
      dz2     :     0.004219  d :     0.028088
      dxz     :     0.003006
      dyz     :     0.006686
      dx2y2   :     0.010734
      dxy     :     0.003442
      f0      :     0.000223  f :     0.001542
      f+1     :     0.000172
      f-1     :     0.000212
      f+2     :     0.000273
      f-2     :     0.000139
      f+3     :     0.000301
      f-3     :     0.000223

 15 O s       :     3.769240  s :     3.769240
      pz      :     1.735161  p :     4.732854
      px      :     1.707762
      py      :     1.289931
      dz2     :     0.003184  d :     0.028171
      dxz     :     0.004895
      dyz     :     0.007645
      dx2y2   :     0.005552
      dxy     :     0.006896
      f0      :     0.000242  f :     0.001543
      f+1     :     0.000103
      f-1     :     0.000131
      f+2     :     0.000246
      f-2     :     0.000291
      f+3     :     0.000293
      f-3     :     0.000237

 16 O s       :     3.784058  s :     3.784058
      pz      :     1.332559  p :     4.741348
      px      :     1.721319
      py      :     1.687471
      dz2     :     0.007914  d :     0.028283
      dxz     :     0.007342
      dyz     :     0.005391
      dx2y2   :     0.001541
      dxy     :     0.006094
      f0      :     0.000431  f :     0.001529
      f+1     :     0.000208
      f-1     :     0.000202
      f+2     :     0.000069
      f-2     :     0.000292
      f+3     :     0.000206
      f-3     :     0.000121

 17 H s       :     0.849564  s :     0.849564
      pz      :     0.004772  p :     0.020831
      px      :     0.007880
      py      :     0.008179

 18 H s       :     0.848224  s :     0.848224
      pz      :     0.004476  p :     0.020088
      px      :     0.004100
      py      :     0.011512

 19 H s       :     0.580634  s :     0.580634
      pz      :     0.014019  p :     0.043950
      px      :     0.012882
      py      :     0.017049

 20 H s       :     0.592075  s :     0.592075
      pz      :     0.019896  p :     0.044275
      px      :     0.009654
      py      :     0.014724

 21 H s       :     0.593940  s :     0.593940
      pz      :     0.012992  p :     0.044817
      px      :     0.020119
      py      :     0.011706

 22 H s       :     0.593687  s :     0.593687
      pz      :     0.013634  p :     0.044797
      px      :     0.012669
      py      :     0.018493

 23 H s       :     0.595643  s :     0.595643
      pz      :     0.011750  p :     0.044606
      px      :     0.015647
      py      :     0.017209


------------------------
MULLIKEN OVERLAP CHARGES
------------------------
B(  0-C ,  1-C ) :   0.6470 B(  0-C ,  2-H ) :  -0.0721 B(  0-C ,  3-C ) :  -0.0910 
B(  0-C ,  4-H ) :  -0.0510 B(  0-C , 11-O ) :  -0.0952 B(  0-C , 16-O ) :   0.5136 
B(  0-C , 17-H ) :   0.8096 B(  0-C , 18-H ) :   0.8862 B(  0-C , 23-H ) :  -0.0635 
B(  1-C ,  2-H ) :   0.7994 B(  1-C ,  5-C ) :   0.0991 B(  1-C ,  7-C ) :   0.1017 
B(  1-C ,  9-C ) :  -0.2401 B(  1-C , 11-O ) :   0.5355 B(  1-C , 15-O ) :  -0.1080 
B(  1-C , 17-H ) :  -0.0697 B(  1-C , 18-H ) :  -0.1302 B(  2-H ,  3-C ) :  -0.0823 
B(  2-H , 11-O ) :  -0.0751 B(  3-C ,  4-H ) :   0.7344 B(  3-C ,  5-C ) :   0.2530 
B(  3-C ,  6-H ) :  -0.0912 B(  3-C ,  7-C ) :  -0.1947 B(  3-C ,  9-C ) :   0.2126 
B(  3-C , 11-O ) :  -0.1096 B(  3-C , 14-O ) :  -0.1491 B(  3-C , 15-O ) :   0.5144 
B(  3-C , 16-O ) :  -0.0725 B(  3-C , 22-H ) :  -0.1079 B(  4-H ,  5-C ) :  -0.0656 
B(  4-H , 15-O ) :  -0.0902 B(  4-H , 16-O ) :   0.0608 B(  5-C ,  6-H ) :   0.8281 
B(  5-C ,  7-C ) :   0.5590 B(  5-C ,  9-C ) :  -0.1588 B(  5-C , 13-O ) :  -0.1001 
B(  5-C , 14-O ) :   0.5792 B(  5-C , 21-H ) :  -0.0796 B(  6-H ,  7-C ) :  -0.0769 
B(  6-H , 14-O ) :  -0.0939 B(  7-C ,  8-H ) :   0.6645 B(  7-C ,  9-C ) :   0.2522 
B(  7-C , 10-H ) :  -0.1686 B(  7-C , 11-O ) :  -0.1407 B(  7-C , 12-O ) :  -0.1431 
B(  7-C , 13-O ) :   0.5211 B(  7-C , 14-O ) :  -0.0816 B(  7-C , 20-H ) :  -0.1012 
B(  8-H , 13-O ) :  -0.0572 B(  9-C , 10-H ) :   0.9341 B(  9-C , 11-O ) :   0.5614 
B(  9-C , 12-O ) :   0.7871 B(  9-C , 19-H ) :  -0.0784 B( 10-H , 11-O ) :  -0.1136 
B( 10-H , 12-O ) :  -0.1082 B( 11-O , 12-O ) :  -0.1574 B( 12-O , 19-H ) :   0.6233 
B( 13-O , 20-H ) :   0.6167 B( 14-O , 21-H ) :   0.6233 B( 15-O , 22-H ) :   0.6232 
B( 16-O , 17-H ) :  -0.0564 B( 16-O , 18-H ) :  -0.0861 B( 16-O , 23-H ) :   0.6165 
B( 17-H , 18-H ) :  -0.0565 


                     *******************************
                     * LOEWDIN POPULATION ANALYSIS *
                     *******************************

----------------------
LOEWDIN ATOMIC CHARGES
----------------------
   0 C :   -0.308363
   1 C :   -0.296480
   2 H :    0.158569
   3 C :   -0.301242
   4 H :    0.147568
   5 C :   -0.311140
   6 H :    0.153606
   7 C :   -0.311165
   8 H :    0.157143
   9 C :   -0.402834
  10 H :    0.139603
  11 O :    0.160988
  12 O :   -0.013421
  13 O :   -0.042940
  14 O :   -0.045246
  15 O :   -0.039312
  16 O :   -0.081641
  17 H :    0.137267
  18 H :    0.129810
  19 H :    0.200916
  20 H :    0.197788
  21 H :    0.190937
  22 H :    0.191486
  23 H :    0.188103

-------------------------------
LOEWDIN REDUCED ORBITAL CHARGES
-------------------------------
  0 C s       :     2.802792  s :     2.802792
      pz      :     0.824341  p :     2.924486
      px      :     1.036651
      py      :     1.063493
      dz2     :     0.120435  d :     0.513633
      dxz     :     0.142120
      dyz     :     0.120097
      dx2y2   :     0.064996
      dxy     :     0.065985
      f0      :     0.017646  f :     0.067453
      f+1     :     0.017095
      f-1     :     0.012399
      f+2     :     0.005693
      f-2     :     0.005727
      f+3     :     0.004244
      f-3     :     0.004649

  1 C s       :     2.752678  s :     2.752678
      pz      :     0.988841  p :     2.842556
      px      :     0.946356
      py      :     0.907358
      dz2     :     0.147990  d :     0.619488
      dxz     :     0.072828
      dyz     :     0.098235
      dx2y2   :     0.149727
      dxy     :     0.150710
      f0      :     0.007058  f :     0.081758
      f+1     :     0.007755
      f-1     :     0.009834
      f+2     :     0.011054
      f-2     :     0.015057
      f+3     :     0.017042
      f-3     :     0.013958

  2 H s       :     0.784573  s :     0.784573
      pz      :     0.036196  p :     0.056858
      px      :     0.010941
      py      :     0.009721

  3 C s       :     2.749375  s :     2.749375
      pz      :     0.995041  p :     2.840874
      px      :     0.943213
      py      :     0.902621
      dz2     :     0.148305  d :     0.628311
      dxz     :     0.087093
      dyz     :     0.105169
      dx2y2   :     0.150859
      dxy     :     0.136885
      f0      :     0.007059  f :     0.082681
      f+1     :     0.007736
      f-1     :     0.010566
      f+2     :     0.013054
      f-2     :     0.014846
      f+3     :     0.013026
      f-3     :     0.016395

  4 H s       :     0.794631  s :     0.794631
      pz      :     0.036129  p :     0.057801
      px      :     0.011302
      py      :     0.010370

  5 C s       :     2.752386  s :     2.752386
      pz      :     0.973692  p :     2.844051
      px      :     1.008550
      py      :     0.861809
      dz2     :     0.154695  d :     0.632027
      dxz     :     0.071934
      dyz     :     0.120101
      dx2y2   :     0.153853
      dxy     :     0.131445
      f0      :     0.006944  f :     0.082676
      f+1     :     0.005466
      f-1     :     0.014824
      f+2     :     0.015428
      f-2     :     0.012355
      f+3     :     0.012213
      f-3     :     0.015447

  6 H s       :     0.789895  s :     0.789895
      pz      :     0.035475  p :     0.056499
      px      :     0.011940
      py      :     0.009084

  7 C s       :     2.756697  s :     2.756697
      pz      :     1.018601  p :     2.854273
      px      :     0.823222
      py      :     1.012451
      dz2     :     0.140092  d :     0.618591
      dxz     :     0.080732
      dyz     :     0.073866
      dx2y2   :     0.154070
      dxy     :     0.169831
      f0      :     0.007408  f :     0.081604
      f+1     :     0.009134
      f-1     :     0.006418
      f+2     :     0.012654
      f-2     :     0.009984
      f+3     :     0.016317
      f-3     :     0.019689

  8 H s       :     0.786137  s :     0.786137
      pz      :     0.036715  p :     0.056721
      px      :     0.008115
      py      :     0.011890

  9 C s       :     2.774698  s :     2.774698
      pz      :     1.015990  p :     2.731728
      px      :     0.797549
      py      :     0.918189
      dz2     :     0.166882  d :     0.776872
      dxz     :     0.124211
      dyz     :     0.113554
      dx2y2   :     0.192632
      dxy     :     0.179592
      f0      :     0.010170  f :     0.119537
      f+1     :     0.010628
      f-1     :     0.011768
      f+2     :     0.021855
      f-2     :     0.017566
      f+3     :     0.018575
      f-3     :     0.028976

 10 H s       :     0.803401  s :     0.803401
      pz      :     0.039587  p :     0.056995
      px      :     0.007812
      py      :     0.009596

 11 O s       :     3.282647  s :     3.282647
      pz      :     1.655116  p :     4.454169
      px      :     1.265485
      py      :     1.533569
      dz2     :     0.013710  d :     0.096343
      dxz     :     0.019877
      dyz     :     0.009476
      dx2y2   :     0.028489
      dxy     :     0.024790
      f0      :     0.000439  f :     0.005853
      f+1     :     0.000828
      f-1     :     0.000492
      f+2     :     0.000964
      f-2     :     0.000767
      f+3     :     0.001032
      f-3     :     0.001331

 12 O s       :     3.344814  s :     3.344814
      pz      :     1.619357  p :     4.598673
      px      :     1.677363
      py      :     1.301953
      dz2     :     0.007471  d :     0.065462
      dxz     :     0.006734
      dyz     :     0.024051
      dx2y2   :     0.014908
      dxy     :     0.012298
      f0      :     0.000330  f :     0.004473
      f+1     :     0.000273
      f-1     :     0.000875
      f+2     :     0.000882
      f-2     :     0.000772
      f+3     :     0.000657
      f-3     :     0.000685

 13 O s       :     3.362087  s :     3.362087
      pz      :     1.403933  p :     4.612913
      px      :     1.451526
      py      :     1.757454
      dz2     :     0.023064  d :     0.063771
      dxz     :     0.012514
      dyz     :     0.001662
      dx2y2   :     0.014421
      dxy     :     0.012110
      f0      :     0.001457  f :     0.004169
      f+1     :     0.000422
      f-1     :     0.000097
      f+2     :     0.000522
      f-2     :     0.000135
      f+3     :     0.000735
      f-3     :     0.000800

 14 O s       :     3.353994  s :     3.353994
      pz      :     1.711313  p :     4.623610
      px      :     1.415410
      py      :     1.496887
      dz2     :     0.010721  d :     0.063488
      dxz     :     0.004425
      dyz     :     0.014248
      dx2y2   :     0.021519
      dxy     :     0.012575
      f0      :     0.000313  f :     0.004154
      f+1     :     0.000284
      f-1     :     0.000734
      f+2     :     0.000827
      f-2     :     0.000474
      f+3     :     0.000955
      f-3     :     0.000567

 15 O s       :     3.352578  s :     3.352578
      pz      :     1.689114  p :     4.619189
      px      :     1.652777
      py      :     1.277298
      dz2     :     0.008297  d :     0.063391
      dxz     :     0.007523
      dyz     :     0.015753
      dx2y2   :     0.017593
      dxy     :     0.014225
      f0      :     0.000396  f :     0.004154
      f+1     :     0.000319
      f-1     :     0.000429
      f+2     :     0.000742
      f-2     :     0.000875
      f+3     :     0.000791
      f-3     :     0.000602

 16 O s       :     3.366457  s :     3.366457
      pz      :     1.372112  p :     4.646645
      px      :     1.654002
      py      :     1.620531
      dz2     :     0.019178  d :     0.064360
      dxz     :     0.018271
      dyz     :     0.017727
      dx2y2   :     0.001391
      dxy     :     0.007793
      f0      :     0.001215  f :     0.004178
      f+1     :     0.000833
      f-1     :     0.000843
      f+2     :     0.000137
      f-2     :     0.000700
      f+3     :     0.000327
      f-3     :     0.000124

 17 H s       :     0.804166  s :     0.804166
      pz      :     0.013150  p :     0.058567
      px      :     0.021256
      py      :     0.024161

 18 H s       :     0.811732  s :     0.811732
      pz      :     0.013702  p :     0.058459
      px      :     0.012358
      py      :     0.032399

 19 H s       :     0.644976  s :     0.644976
      pz      :     0.056356  p :     0.154108
      px      :     0.039625
      py      :     0.058127

 20 H s       :     0.647347  s :     0.647347
      pz      :     0.083279  p :     0.154865
      px      :     0.028221
      py      :     0.043366

 21 H s       :     0.652551  s :     0.652551
      pz      :     0.042157  p :     0.156512
      px      :     0.080905
      py      :     0.033450

 22 H s       :     0.652076  s :     0.652076
      pz      :     0.048445  p :     0.156438
      px      :     0.041974
      py      :     0.066019

 23 H s       :     0.655129  s :     0.655129
      pz      :     0.034423  p :     0.156768
      px      :     0.058916
      py      :     0.063429


---------------------------------
LOEWDIN BOND ORDERS (THRESH 0.050000)
---------------------------------
B(  0-C ,  1-C ) :   1.1984 B(  0-C ,  2-H ) :   0.0802 B(  0-C ,  3-C ) :   0.1329 
B(  0-C , 11-O ) :   0.1181 B(  0-C , 16-O ) :   1.5444 B(  0-C , 17-H ) :   0.8669 
B(  0-C , 18-H ) :   0.8711 B(  0-C , 23-H ) :   0.0940 B(  1-C ,  2-H ) :   0.8000 
B(  1-C ,  3-C ) :   1.1007 B(  1-C ,  4-H ) :   0.0729 B(  1-C ,  5-C ) :   0.1410 
B(  1-C ,  9-C ) :   0.1648 B(  1-C , 11-O ) :   1.3665 B(  1-C , 15-O ) :   0.1110 
B(  1-C , 16-O ) :   0.1122 B(  1-C , 17-H ) :   0.0823 B(  1-C , 18-H ) :   0.0856 
B(  2-H ,  3-C ) :   0.0715 B(  3-C ,  4-H ) :   0.8075 B(  3-C ,  5-C ) :   1.1203 
B(  3-C ,  6-H ) :   0.0751 B(  3-C ,  7-C ) :   0.1330 B(  3-C , 11-O ) :   0.1057 
B(  3-C , 14-O ) :   0.1179 B(  3-C , 15-O ) :   1.4979 B(  3-C , 22-H ) :   0.0933 
B(  4-H ,  5-C ) :   0.0763 B(  5-C ,  6-H ) :   0.8024 B(  5-C ,  7-C ) :   1.1127 
B(  5-C ,  8-H ) :   0.0725 B(  5-C ,  9-C ) :   0.1381 B(  5-C , 13-O ) :   0.1165 
B(  5-C , 14-O ) :   1.4993 B(  5-C , 15-O ) :   0.1163 B(  5-C , 21-H ) :   0.0929 
B(  6-H ,  7-C ) :   0.0750 B(  7-C ,  8-H ) :   0.8074 B(  7-C ,  9-C ) :   1.1217 
B(  7-C , 10-H ) :   0.0735 B(  7-C , 11-O ) :   0.1084 B(  7-C , 12-O ) :   0.1205 
B(  7-C , 13-O ) :   1.5120 B(  7-C , 14-O ) :   0.1157 B(  7-C , 20-H ) :   0.0919 
B(  8-H ,  9-C ) :   0.0764 B(  9-C , 10-H ) :   0.8366 B(  9-C , 11-O ) :   1.4151 
B(  9-C , 12-O ) :   1.6102 B(  9-C , 13-O ) :   0.1128 B(  9-C , 19-H ) :   0.1002 
B( 11-O , 12-O ) :   0.0905 B( 12-O , 19-H ) :   0.9975 B( 13-O , 20-H ) :   1.0009 
B( 14-O , 21-H ) :   1.0050 B( 15-O , 22-H ) :   1.0046 B( 16-O , 23-H ) :   1.0132 


------------------------------------------
LOEWDIN REDUCED ORBITAL POPULATIONS PER MO
-------------------------------------------
THRESHOLD FOR PRINTING IS 0.1%%
                      0         1         2         3         4         5   
                 -21.69118 -21.69095 -21.68478 -21.68136 -21.68108 -21.67730
                   2.00000   2.00000   2.00000   2.00000   2.00000   2.00000
                  --------  --------  --------  --------  --------  --------
11 O  s              35.6      64.2       0.0       0.0       0.0       0.0
12 O  s              64.2      35.6       0.0       0.0       0.0       0.0
13 O  s               0.0       0.0      99.9       0.0       0.0       0.0
14 O  s               0.0       0.0       0.0      99.3       0.5       0.0
15 O  s               0.0       0.0       0.0       0.5      99.3       0.0
16 O  s               0.0       0.0       0.0       0.0       0.0      99.9

                      6         7         8         9        10        11   
                 -12.15254 -12.10376 -12.10265 -12.10152 -12.10024 -12.09110
                   2.00000   2.00000   2.00000   2.00000   2.00000   2.00000
                  --------  --------  --------  --------  --------  --------
 0 C  s               0.0       0.2       0.0       0.0       0.1      99.2
 1 C  s               0.0      94.2       0.1       2.2       2.6       0.3
 3 C  s               0.0       4.6       1.0      38.5      55.2       0.0
 5 C  s               0.0       0.0      18.6      43.9      36.8       0.0
 7 C  s               0.0       0.3      79.6      14.8       4.7       0.0
 9 C  s              99.4       0.0       0.0       0.0       0.0       0.0

                     12        13        14        15        16        17   
                  -1.72260  -1.69061  -1.68641  -1.68116  -1.67810  -1.67582
                   2.00000   2.00000   2.00000   2.00000   2.00000   2.00000
                  --------  --------  --------  --------  --------  --------
 0 C  s               0.2       0.0       0.7       2.2       0.0       3.4
 0 C  pz              0.0       0.0       0.5       2.6       0.0       6.8
 0 C  px              0.4       0.0       0.2       0.1       0.0       0.9
 0 C  dz2             0.0       0.0       0.1       0.7       0.0       2.7
 0 C  dxz             0.0       0.0       0.0       0.1       0.0       0.4
 0 C  f0              0.0       0.0       0.0       0.1       0.0       0.3
 1 C  s               2.4       0.1       1.5       1.4       0.0       0.4
 1 C  pz              0.7       0.0       0.4       0.6       0.0       0.1
 1 C  px              1.6       0.0       0.2       0.3       0.1       2.2
 1 C  py              1.7       0.4       0.2       1.9       0.7       0.6
 1 C  dz2             0.2       0.0       0.2       0.1       0.0       0.1
 1 C  dxz             0.3       0.0       0.0       0.0       0.0       0.5
 1 C  dyz             0.3       0.0       0.1       0.3       0.0       0.1
 1 C  dxy             0.8       0.0       0.3       0.3       0.0       0.6
 2 H  s               0.2       0.0       0.2       0.1       0.0       0.0
 3 C  s               0.3       2.1       2.7       0.3       1.3       0.0
 3 C  pz              0.0       0.3       0.7       0.1       0.7       0.0
 3 C  px              0.0       0.2       1.2       0.1       2.7       0.1
 3 C  py              0.4       1.6       1.1       2.0       1.4       0.1
 3 C  dz2             0.0       0.2       0.2       0.0       0.0       0.0
 3 C  dxz             0.0       0.2       0.2       0.1       0.2       0.0
 3 C  dyz             0.0       0.1       0.3       0.1       0.4       0.0
 3 C  dx2y2           0.1       0.0       0.1       0.0       0.1       0.0
 3 C  dxy             0.0       0.1       0.7       0.1       1.4       0.0
 3 C  f-2             0.0       0.0       0.1       0.0       0.1       0.0
 4 H  s               0.0       0.2       0.3       0.0       0.1       0.0
 5 C  s               0.2       4.5       0.1       0.3       1.6       0.0
 5 C  pz              0.0       1.2       0.0       0.1       1.1       0.0
 5 C  px              0.0       0.3       1.7       0.1       0.6       0.0
 5 C  py              0.2       2.3       0.3       1.1       3.8       0.1
 5 C  dz2             0.0       0.3       0.0       0.0       0.0       0.0
 5 C  dxz             0.0       0.1       0.0       0.0       0.0       0.0
 5 C  dyz             0.0       0.9       0.0       0.1       0.9       0.0
 5 C  dx2y2           0.0       0.2       0.0       0.1       1.4       0.0
 5 C  dxy             0.0       0.0       0.1       0.1       0.5       0.0
 5 C  f+2             0.0       0.1       0.0       0.0       0.1       0.0
 6 H  s               0.0       0.5       0.0       0.0       0.1       0.0
 7 C  s               1.2       3.1       1.9       0.4       0.3       0.0
 7 C  pz              0.2       0.2       0.2       0.1       0.0       0.0
 7 C  px              0.1       2.4       4.9       0.8       1.8       0.0
 7 C  py              1.3       1.5       0.0       0.0       0.2       0.0
 7 C  dz2             0.2       0.4       0.3       0.0       0.0       0.0
 7 C  dxz             0.0       0.2       0.3       0.0       0.1       0.0
 7 C  dx2y2           0.0       0.6       0.8       0.7       0.6       0.1
 7 C  dxy             0.1       0.0       0.1       0.2       0.1       0.1
 7 C  f+3             0.0       0.1       0.1       0.0       0.0       0.0
 8 H  s               0.2       0.3       0.2       0.0       0.0       0.0
 9 C  s              11.2       0.0       0.1       0.0       0.0       0.0
 9 C  pz              1.8       0.0       0.1       0.1       0.0       0.0
 9 C  px              0.5       0.1       3.8       4.4       0.5       3.7
 9 C  py              3.6       1.1       0.1       1.9       0.0       0.7
 9 C  dz2             1.1       0.0       0.0       0.0       0.0       0.0
 9 C  dxz             0.0       0.0       0.3       0.4       0.0       0.3
 9 C  dyz             0.5       0.1       0.1       0.3       0.0       0.1
 9 C  dx2y2           0.4       0.0       0.6       1.1       0.1       0.9
 9 C  dxy             0.4       0.3       0.1       1.2       0.0       0.6
 9 C  f0              0.2       0.0       0.0       0.0       0.0       0.0
 9 C  f-2             0.1       0.0       0.0       0.1       0.0       0.1
 9 C  f+3             0.5       0.0       0.0       0.0       0.0       0.0
10 H  s               1.0       0.0       0.0       0.0       0.0       0.0
11 O  s              24.5       0.0       6.4      11.3       1.1      10.7
11 O  pz              0.2       0.0       0.0       0.1       0.0       0.0
11 O  px              0.7       0.0       0.1       0.2       0.0       0.0
11 O  py              0.2       0.0       0.1       0.2       0.0       0.1
12 O  s              28.6       1.7       4.6      15.2       0.2       7.7
12 O  pz              0.5       0.0       0.0       0.1       0.0       0.1
12 O  px              0.5       0.0       0.0       0.1       0.0       0.1
12 O  py              0.2       0.0       0.0       0.0       0.0       0.0
13 O  s               0.9      20.6      22.0       7.2       7.7       0.2
13 O  pz              0.0       0.1       0.1       0.0       0.0       0.0
13 O  px              0.1       0.3       0.2       0.1       0.1       0.0
14 O  s               0.1      24.5       0.6       3.9      29.2       0.3
14 O  pz              0.0       0.2       0.0       0.0       0.1       0.0
14 O  px              0.0       0.1       0.0       0.0       0.2       0.0
14 O  py              0.0       0.3       0.0       0.0       0.1       0.0
15 O  s               0.2      10.0      20.6       5.3      22.2       0.1
15 O  pz              0.0       0.1       0.2       0.0       0.2       0.0
15 O  px              0.0       0.1       0.2       0.0       0.2       0.0
16 O  s               0.1       0.1       2.9      15.3       0.1      40.7
16 O  pz              0.0       0.0       0.0       0.1       0.0       0.2
16 O  px              0.0       0.0       0.0       0.1       0.0       0.3
16 O  py              0.0       0.0       0.0       0.1       0.0       0.2
17 H  s               0.0       0.0       0.1       0.2       0.0       0.3
18 H  s               0.0       0.0       0.1       0.2       0.0       0.3
19 H  s               5.5       0.3       0.9       2.9       0.0       1.5
19 H  pz              0.5       0.0       0.1       0.3       0.0       0.2
19 H  py              1.0       0.1       0.2       0.5       0.0       0.3
20 H  s               0.2       4.0       4.2       1.4       1.5       0.0
20 H  pz              0.0       1.1       1.2       0.4       0.4       0.0
21 H  s               0.0       5.0       0.1       0.7       5.5       0.1
21 H  px              0.0       1.2       0.0       0.2       1.4       0.0
22 H  s               0.0       2.2       4.0       1.1       4.1       0.0
22 H  pz              0.0       0.1       0.2       0.0       0.2       0.0
22 H  py              0.0       0.4       0.9       0.2       1.0       0.0
23 H  s               0.1       0.0       0.6       3.1       0.0       7.8
23 H  pz              0.0       0.0       0.0       0.2       0.0       0.5
23 H  px              0.0       0.0       0.1       0.3       0.0       0.7
23 H  py              0.0       0.0       0.1       0.4       0.0       1.0

                     18        19        20        21        22        23   
                  -1.33222  -1.31892  -1.23383  -1.19490  -1.16862  -1.12236
                   2.00000   2.00000   2.00000   2.00000   2.00000   2.00000
                  --------  --------  --------  --------  --------  --------
 0 C  s               2.3       4.5      13.7       0.2       7.3       0.4
 0 C  pz              0.2       0.3       0.6       0.0       0.3       0.6
 0 C  px              1.2       2.1       0.2       0.0       2.4       2.2
 0 C  py              0.4       0.2       0.1       0.3       0.0       0.1
 0 C  dz2             0.2       0.4       0.2       0.0       0.0       0.0
 0 C  dx2y2           0.1       0.3       0.0       0.1       0.1       0.2
 0 C  dxy             0.2       0.1       0.0       0.2       0.1       0.0
 1 C  s               8.1       9.9       2.1       0.1       2.9       2.9
 1 C  pz              0.2       0.2       0.3       0.0       0.0       0.5
[...]
13 O  f-1             0.6       0.0       0.2       0.0       0.0       0.0
13 O  f+2             0.5       0.0       0.3       0.0       0.0       0.0
14 O  s               0.8       0.0       2.9       0.1       0.0       0.0
14 O  px              0.4       0.0       1.2       0.0       0.0       0.0
14 O  py              0.1       0.0       0.1       0.0       0.0       0.0
14 O  dz2             1.6       0.0       6.5       0.4       0.0       0.1
14 O  dyz             0.2       0.0       0.9       0.4       0.0       0.0
14 O  dx2y2           4.7       0.8      16.1       0.3       0.0       0.1
14 O  dxy             5.1       0.0      16.4       0.7       0.2       0.0
14 O  f0              0.3       0.0       1.4       0.0       0.0       0.0
14 O  f+1             0.8       0.1       2.9       0.1       0.0       0.0
14 O  f+2             0.6       0.1       2.6       0.2       0.0       0.0
14 O  f-2             0.5       0.0       1.9       0.1       0.0       0.0
14 O  f+3             2.5       0.1      10.2       0.4       0.1       0.0
14 O  f-3             0.5       0.0       1.5       0.0       0.0       0.0
15 O  s               0.0       1.2       0.1       2.5       0.0       0.1
15 O  pz              0.0       0.1       0.0       0.2       0.0       0.0
15 O  py              0.0       0.5       0.1       0.8       0.0       0.0
15 O  dz2             0.0       2.2       0.2       4.2       0.0       0.2
15 O  dxz             0.1       0.1       0.0       0.5       0.0       0.0
15 O  dyz             0.0       3.1       0.4       5.5       0.0       0.1
15 O  dx2y2           0.4       8.2       0.2      24.5       0.1       1.1
15 O  dxy             0.1       0.4       0.1       1.2       0.2       0.1
15 O  f0              0.0       1.2       0.1       2.3       0.0       0.1
15 O  f+1             0.0       0.1       0.0       0.2       0.0       0.0
15 O  f+2             0.2       2.8       0.1       6.6       0.1       0.2
15 O  f-2             0.0       0.9       0.1       1.9       0.1       0.1
15 O  f+3             0.0       2.4       0.1       5.9       0.0       0.2
15 O  f-3             0.0       0.5       0.1       0.6       0.0       0.0
16 O  dxz             0.0       0.5       0.0       0.1       0.5       0.0
16 O  dyz             0.0       0.6       0.0       0.1       0.2       0.0
16 O  dx2y2           0.0       0.1       0.0       0.0       0.1       0.1
16 O  dxy             0.0       0.2       0.0       0.0       0.3       0.0
16 O  f0              0.0       0.2       0.0       0.1       0.2       0.0
16 O  f-2             0.0       0.3       0.0       0.0       0.2       0.0
16 O  f+3             0.0       0.1       0.0       0.0       0.1       0.0
19 H  s               0.0       4.6       0.4       1.9       0.0       0.3
19 H  pz              0.0       0.2       0.0       0.1       0.0       0.0
19 H  py              0.0       0.2       0.0       0.1       0.0       0.0
20 H  s               6.4       0.0       1.3       0.3       0.0       0.0
20 H  pz              0.5       0.0       0.1       0.0       0.0       0.0
21 H  s               1.5       0.1       5.6       0.2       0.0       0.0
21 H  px              0.1       0.0       0.4       0.0       0.0       0.0
22 H  s               0.0       2.2       0.2       4.7       0.0       0.1
22 H  py              0.0       0.1       0.0       0.3       0.0       0.0
23 H  s               0.0       0.2       0.0       0.0       0.2       0.0

                    432       433       434       435       436       437   
                  20.83384  20.91149  20.98372  21.04895  21.06735  21.21209
                   0.00000   0.00000   0.00000   0.00000   0.00000   0.00000
                  --------  --------  --------  --------  --------  --------
 0 C  s              82.3      11.4       0.5       1.5       2.0       0.2
 1 C  s               6.8      24.2      25.1       1.0      13.3      27.8
 1 C  px              0.1       0.0       0.0       0.0       0.0       0.0
 3 C  s               5.5      16.7      26.7       1.0      30.8      17.2
 4 H  s               0.0       0.0       0.1       0.0       0.1       0.1
 5 C  s               1.8      11.8       1.0      51.4      31.9       0.2
 6 H  s               0.0       0.0       0.0       0.2       0.1       0.0
 7 C  s               0.2      12.8      30.4      19.9       9.0      25.7
 9 C  s               1.2      20.8      14.5      23.0      10.8      27.2
11 O  s               0.1       0.2       0.1       0.0       0.0       0.0
11 O  px              0.0       0.0       0.0       0.1       0.1       0.2
12 O  s               0.0       0.1       0.0       0.1       0.1       0.0
16 O  s               0.2       0.0       0.0       0.0       0.0       0.0
16 O  pz              0.2       0.0       0.0       0.0       0.0       0.0
16 O  dz2             0.1       0.0       0.0       0.0       0.0       0.0
17 H  s               0.2       0.0       0.0       0.0       0.0       0.0
18 H  s               0.2       0.0       0.0       0.0       0.0       0.0

                    438       439       440       441       442       443   
                  41.41557  41.46888  41.58540  41.62113  41.67030  41.99539
                   0.00000   0.00000   0.00000   0.00000   0.00000   0.00000
                  --------  --------  --------  --------  --------  --------
 3 C  s               0.0       0.0       0.0       0.0       0.2       0.0
 5 C  s               0.0       0.0       0.0       0.1       0.0       0.0
 7 C  s               0.0       0.0       0.1       0.0       0.0       0.0
11 O  s               0.0       0.1       0.7       0.0       0.0      98.8
12 O  s               0.6      82.8       0.1       8.2       8.0       0.1
13 O  s               0.0       0.0      92.0       2.5       4.5       0.6
14 O  s               0.2       8.6       2.3      88.5       0.0       0.1
15 O  s               5.4       6.3       4.5       0.4      83.0       0.0
16 O  s              93.6       2.1       0.0       0.0       4.1       0.0



                      *****************************
                      * MAYER POPULATION ANALYSIS *
                      *****************************

  NA   - Mulliken gross atomic population
  ZA   - Total nuclear charge
  QA   - Mulliken gross atomic charge
  VA   - Mayer's total valence
  BVA  - Mayer's bonded valence
  FA   - Mayer's free valence

  ATOM       NA         ZA         QA         VA         BVA        FA
  0 C      6.0133     6.0000    -0.0133     3.8626     3.8626     0.0000
  1 C      5.9600     6.0000     0.0400     3.9341     3.9341    -0.0000
  2 H      0.8901     1.0000     0.1099     0.9866     0.9866     0.0000
  3 C      5.9004     6.0000     0.0996     3.8421     3.8421    -0.0000
  4 H      0.9087     1.0000     0.0913     1.0215     1.0215    -0.0000
  5 C      5.9743     6.0000     0.0257     4.0777     4.0777     0.0000
  6 H      0.8850     1.0000     0.1150     0.9891     0.9891     0.0000
  7 C      5.8831     6.0000     0.1169     3.8223     3.8223     0.0000
  8 H      0.8891     1.0000     0.1109     1.0100     1.0100     0.0000
  9 C      5.9339     6.0000     0.0661     4.2727     4.2727    -0.0000
 10 H      0.8830     1.0000     0.1170     0.9697     0.9697    -0.0000
 11 O      8.3316     8.0000    -0.3316     1.9350     1.9350    -0.0000
 12 O      8.4868     8.0000    -0.4868     1.9654     1.9654    -0.0000
 13 O      8.5278     8.0000    -0.5278     1.9180     1.9180     0.0000
 14 O      8.5286     8.0000    -0.5286     1.9004     1.9004    -0.0000
 15 O      8.5318     8.0000    -0.5318     1.9146     1.9146    -0.0000
 16 O      8.5552     8.0000    -0.5552     1.8776     1.8776     0.0000
 17 H      0.8704     1.0000     0.1296     0.9813     0.9813     0.0000
 18 H      0.8683     1.0000     0.1317     0.9692     0.9692     0.0000
 19 H      0.6246     1.0000     0.3754     0.8697     0.8697    -0.0000
 20 H      0.6363     1.0000     0.3637     0.8834     0.8834    -0.0000
 21 H      0.6388     1.0000     0.3612     0.8913     0.8913    -0.0000
 22 H      0.6385     1.0000     0.3615     0.8901     0.8901    -0.0000
 23 H      0.6402     1.0000     0.3598     0.8908     0.8908    -0.0000

  Mayer bond orders larger than 0.100000
B(  0-C ,  1-C ) :   0.9658 B(  0-C , 16-O ) :   0.9620 B(  0-C , 17-H ) :   0.9671 
B(  0-C , 18-H ) :   0.9809 B(  1-C ,  2-H ) :   0.9469 B(  1-C ,  3-C ) :   0.9710 
B(  1-C , 11-O ) :   0.9671 B(  3-C ,  4-H ) :   0.9484 B(  3-C ,  5-C ) :   0.9749 
B(  3-C , 15-O ) :   1.0266 B(  5-C ,  6-H ) :   0.9593 B(  5-C ,  7-C ) :   1.0059 
B(  5-C , 14-O ) :   1.0380 B(  7-C ,  8-H ) :   0.9203 B(  7-C ,  9-C ) :   0.9553 
B(  7-C , 13-O ) :   0.9874 B(  9-C , 10-H ) :   0.9828 B(  9-C , 11-O ) :   1.0090 
B(  9-C , 12-O ) :   1.1995 B( 12-O , 19-H ) :   0.8538 B( 13-O , 20-H ) :   0.8583 
B( 14-O , 21-H ) :   0.8589 B( 15-O , 22-H ) :   0.8589 B( 16-O , 23-H ) :   0.8621 


-------
TIMINGS
-------

Total SCF time: 0 days 0 hours 5 min 19 sec 

Total time                  ....     319.399 sec
Sum of individual times     ....     314.140 sec  ( 98.4%)

SCF preparation             ....       0.467 sec  (  0.1%)
Fock matrix formation       ....     311.481 sec  ( 97.5%)
  Startup                   ....       0.073 sec  (  0.0% of F)
  Split-RI-J                ....      13.159 sec  (  4.2% of F)
  Chain of spheres X        ....     263.852 sec  ( 84.7% of F)
  XC integration            ....      25.636 sec  (  8.2% of F)
    Basis function eval.    ....       5.470 sec  ( 21.3% of XC)
    Density eval.           ....       5.489 sec  ( 21.4% of XC)
    XC-Functional eval.     ....       5.620 sec  ( 21.9% of XC)
    XC-Potential eval.      ....       8.224 sec  ( 32.1% of XC)
  CPCM terms                ....      12.724 sec  (  4.1% of F)
Diagonalization             ....       0.000 sec  (  0.0%)
Density matrix formation    ....       0.270 sec  (  0.1%)
Total Energy calculation    ....       0.084 sec  (  0.0%)
Population analysis         ....       0.310 sec  (  0.1%)
Orbital Transformation      ....       0.161 sec  (  0.1%)
Orbital Orthonormalization  ....       0.000 sec  (  0.0%)
DIIS solution               ....       0.677 sec  (  0.2%)
  MO trafo                  ....       0.000 sec  (  0.0 % of DIIS)
  Orb grad                  ....       0.000 sec  (  0.0 % of DIIS)
  Energy W gradient         ....       0.000 sec  (  0.0 % of DIIS)
  DIIS error                ....       0.035 sec  (  5.1 % of DIIS)
  DIIS work                 ....       0.547 sec  ( 80.8 % of DIIS)
  Form Q                    ....       0.000 sec  (  0.0 % of DIIS)
  Form QpQm                 ....       0.000 sec  (  0.0 % of DIIS)
  Exp/Cayley                ....       0.000 sec  (  0.0 % of DIIS)
  Orb update                ....       0.000 sec  (  0.0 % of DIIS)
  Wake-sleep                ....       0.015 sec  (  2.2 % of DIIS)
SOSCF solution              ....       0.365 sec  (  0.1%)
  MO trafo                  ....       0.140 sec  ( 38.4 % of SOSCF)
  Orb grad                  ....       0.003 sec  (  0.8 % of SOSCF)
  Rot update                ....       0.054 sec  ( 14.9 % of SOSCF)
  Step                      ....       0.167 sec  ( 45.9 % of SOSCF)
Grid generation             ....       0.325 sec  (  0.1%)
Finished LeanSCF after 319.5 sec

Maximum memory used throughout the entire LEANSCF-calculation: 71.3 MB
------------------   -----------------
gCP correction             0.018834951
------------------   -----------------

-------------------------   --------------------
FINAL SINGLE POINT ENERGY      -687.287496884560
-------------------------   --------------------


------------------------------------------------------------------------------
                              ORCA PROPERTY CALCULATIONS
------------------------------------------------------------------------------

GBWName                                 ... sp_solv.gbw
Number of atoms                         ...     24
Number of basis functions               ...    444
Max core memory                         ...   1024 MB

Electric properties:
Dipole moment                           ... YES
Quadrupole moment                       ...  NO
Static polarizability (Dipole/Dipole)   ...  NO
Static polarizability (Dipole/Quad.)    ...  NO
Static polarizability (Quad./Quad.)     ...  NO
Static polarizability (Velocity)        ...  NO

Atomic electric properties:
Dipole moment                           ...  NO
Quadrupole moment                       ...  NO
Static polarizability                   ...  NO

Choice of electric origin               ... Center of mass
Position of electric origin             ...    -0.024524    -0.011360    -0.054848

General magnetic properties:
Magnetizability                         ...  NO

EPR properties:
g-Tensor (aka g-matrix)                 ...  NO
Zero-Field splitting spin-orbit         ...  NO
Zero-field splitting spin-spin          ...  NO
Hyperfine couplings                     ...  NO (   0 nuclei)
Quadrupole couplings                    ...  NO (   0 nuclei)
Contact density                         ...  NO (   0 nuclei)

NMR properties:
Chemical shifts                         ...  NO (   0 nuclei)
Spin-rotation constants                 ...  NO (   0 nuclei)
Spin-spin couplings                     ...  NO (   0 nuclei,    0 pairs)

Choice of magnetic origin               ... GIAO
Position of magnetic origin             ...     0.000000     0.000000     0.000000

Properties with geometric perturbations:
SCF Hessian                             ...  NO
IR spectrum                             ...  NO
VCD spectrum                            ...  NO
X-ray spectroscopy properties:
SCF XES/XAS/RIXS spectra                ...  NO


-------------
DIPOLE MOMENT
-------------

Method             : SCF
Type of density    : Electron Density
Multiplicity       :   1
Irrep              :   0
Energy             :  -687.3063318356597620 Eh
Relativity type    : 
Basis              : AO
                                X                 Y                 Z
Electronic contribution:      2.314611904      -0.392855378      -1.036511976
Nuclear contribution   :     -1.300950775       0.048237344       3.138678997
                        -----------------------------------------
Total Dipole Moment    :      1.013661130      -0.344618034       2.102167021
                        -----------------------------------------
Magnitude (a.u.)       :      2.359105055
Magnitude (Debye)      :      5.996368510



--------------------
Rotational spectrum 
--------------------
 
Rotational constants in cm-1:             0.039409             0.026457             0.017486 
Rotational constants in MHz :          1181.446997           793.147319           524.216616 

Dipole components along the rotational axes: 
x,y,z [a.u.] :     0.996399    -0.341807     2.110861 
x,y,z [Debye]:     2.532646    -0.868804     5.365381 

 

Dipole moment calculation done in   0.0 sec 

Maximum memory used throughout the entire PROP-calculation: 45.1 MB

--------------------------------
SUGGESTED CITATIONS FOR THIS RUN
--------------------------------

Below you find a list of papers that are relevant to this ORCA run
We neither can nor want to force you to cite these papers, but we appreciate if you do
You receive ORCA, which is the product of decades of hard work by many enthusiastic individuals, for free
The only thing we kindly ask in return is that you cite our papers,
We deeply appreciate it, if you show your appreciation for ORCA by not just citing the generic ORCA reference.

Please note that relegating all ORCA citations to the supporting information does *not* help us.
SI sections are not indexed - citations you put there will not count into any citation statistics
But we need these citations in order to attract the funding resources that allow us to do what we are doing

Therefore, if you are a happy ORCA user, please consider citing a few of the papers listed below in the main body of your paper

In addition to the list printed below, the program has created the file sp_solv.bibtex that contains the list in bibtex format
You can import this file easily into all common literature databanks and citation aid programs


List of essential papers. We consider these as the minimum necessary citations

  1. Neese,F.
     Software update: the ORCA program system, version 5.0
     WIRES Comput. Molec. Sci., 2022 12(1)e1606
     doi.org/10.1002/wcms.1606

List of papers to cite with high priority. The work reported in these papers was absolutely
necessary for this run to complete.
Our perspective: the developers of density functionals and basis sets usually get cited in chemistry papers
Good! But without the algorithms to do something with them, the functionals or basis sets would not do anything.
Hence, in our opinion, the algorithm design and method developments papers are equally worthy of getting cited

  1. Neese,F.
     An improvement of the resolution of the identity approximation for the formation of the Coulomb matrix
     J. Comp. Chem., 2003 24(14)1740-1747
     doi.org/10.1002/jcc.10318
  2. Neese,F.; Wennmohs,F.; Hansen,A.; Becker,U.
     Efficient, approximate and parallel Hartree-Fock and hybrid DFT calculations. A 'chain-of-spheres' algorithm for the Hartree-Fock exchange
     Chem. Phys., 2009 356(1-3)98-109
     doi.org/10.1016/j.chemphys.2008.10.036
  3. Garcia-Rates,M.; Neese,F.
     Effect of the Solute Cavity on the Solvation Energy and its Derivatives within the Framework of the Gaussian Charge Scheme
     J. Comput. Chem., 2020 41 922-939
     doi.org/10.1002/jcc.26139
  4. Helmich-Paris,B.; de Souza,B.; Neese,F.; Izsák,R.
     An improved chain of spheres for exchange algorithm
     J. Chem. Phys., 2021 155 104109
     doi.org/doi: 10.1063/5.0058766.
  5. Neese,F.
     The SHARK Integral Generation and Digestion System
     J. Comp. Chem., 2022  1-16
     doi.org/10.1002/jcc.26942

List of suggested additional citations. These are papers that are important in the 'surrounding' of 
of this run, or papers that preceded the highly important papers. If you like your results we are grateful for a citation.

  1. Izsak,R.; Neese,F.
     An overlap fitted chain of spheres exchange method
     J. Chem. Phys., 2011 135 144105
     doi.org/10.1063/1.3646921
  2. Izsak,R.; Hansen,A.; Neese,F.
     The resolution of identity and chain of spheres approximations for the LPNO-CCSD singles Fock term
     Molec. Phys., 2012 110 2413-2417
     doi.org/10.1080/00268976.2012.687466
  3. Neese,F.
     The ORCA program system
     WIRES Comput. Molec. Sci., 2012 2(1)73-78
     doi.org/10.1002/wcms.81
  4. Izsak,R.; Neese,F.; Klopper,W.
     Robust fitting techniques in the chain of spheres approximation to the Fock exchange: The role of the complementary space
     J. Chem. Phys., 2013 139 
     doi.org/10.1063/1.4819264
  5. Neese,F.
     Software update: the ORCA program system, version 4.0
     WIRES Comput. Molec. Sci., 2018 8(1)1-6
     doi.org/10.1002/wcms.1327
  6. Neese,F.; Wennmohs,F.; Becker,U.; Riplinger,C.
     The ORCA quantum chemistry program package
     J. Chem. Phys., 2020 152 Art. No. L224108
     doi.org/10.1063/5.0004608

List of optional additional citations

  1. Neese,F.
     Approximate second-order SCF convergence for spin unrestricted wavefunctions
     Chem. Phys. Lett., 2000 325(1-3)93-98
     doi.org/10.1016/s0009-2614(00)00662-x

Timings for individual modules:

Sum of individual times          ...      323.952 sec (=   5.399 min)
Startup calculation              ...        3.797 sec (=   0.063 min)   1.2 %
SCF iterations                   ...      320.026 sec (=   5.334 min)  98.8 %
Property calculations            ...        0.129 sec (=   0.002 min)   0.0 %
                             ****ORCA TERMINATED NORMALLY****
TOTAL RUN TIME: 0 days 0 hours 5 minutes 24 seconds 676 msec
