
                                 *****************
                                 * O   R   C   A *
                                 *****************

                                            #,                                       
                                            ###                                      
                                            ####                                     
                                            #####                                    
                                            ######                                   
                                           ########,                                 
                                     ,,################,,,,,                         
                               ,,#################################,,                 
                          ,,##########################################,,             
                       ,#########################################, ''#####,          
                    ,#############################################,,   '####,        
                  ,##################################################,,,,####,       
                ,###########''''           ''''###############################       
              ,#####''   ,,,,##########,,,,          '''####'''          '####       
            ,##' ,,,,###########################,,,                        '##       
           ' ,,###''''                  '''############,,,                           
         ,,##''                                '''############,,,,        ,,,,,,###''
      ,#''                                            '''#######################'''  
     '                                                          ''''####''''         
             ,#######,   #######,   ,#######,      ##                                
            ,#'     '#,  ##    ##  ,#'     '#,    #''#        ,####,   ,####,        
            ##       ##  ##   ,#'  ##            #'  '#       #'       #'  '#        
            ##       ##  #######   ##           ,######,      #####,   #    #        
            '#,     ,#'  ##    ##  '#,     ,#' ,#      #,     #,   #   #,  ,#        
             '#######'   ##     ##  '#######'  #'      '#     '####' # '####'        



                #########################################################
                #                        -***-                          #
                #          Department of theory and spectroscopy        #
                #                                                       #
                #                      Frank Neese                      #
                #                                                       #
                #     Directorship, Architecture, Infrastructure        #
                #                    SHARK, DRIVERS                     #
                #        Core code/Algorithms in most modules           #
                #                                                       #
                #        Max Planck Institute fuer Kohlenforschung      #
                #                Kaiser Wilhelm Platz 1                 #
                #                 D-45470 Muelheim/Ruhr                 #
                #                      Germany                          #
                #                                                       #
                #                  All rights reserved                  #
                #                        -***-                          #
                #########################################################


                         Program Version 6.0.0  -   RELEASE  -


 With contributions from (in alphabetic order):
   Daniel Aravena         : Magnetic Suceptibility
   Michael Atanasov       : Ab Initio Ligand Field Theory (pilot matlab implementation)
   Alexander A. Auer      : GIAO ZORA, VPT2 properties, NMR spectrum
   Ute Becker             : All parallelization in ORCA, NUMFREQ, NUMCALC
   Giovanni Bistoni       : ED, misc. LED, open-shell LED, HFLD
   Martin Brehm           : Molecular dynamics
   Dmytro Bykov           : pre 5.0 version of the SCF Hessian
   Marcos Casanova-Páez   : Triplet and SCS-CIS(D). UHF-(DLPNO)-IP/EA/STEOM-CCSD. UHF-CVS-IP/STEOM-CCSD
   Vijay G. Chilkuri      : MRCI spin determinant printing, contributions to CSF-ICE
   Pauline Colinet        : FMM embedding
   Dipayan Datta          : RHF DLPNO-CCSD density
   Achintya Kumar Dutta   : EOM-CC, STEOM-CC
   Nicolas Foglia         : Exact transition moments, OPA infrastructure, MCD improvements
   Dmitry Ganyushin       : Spin-Orbit,Spin-Spin,Magnetic field MRCI
   Miquel Garcia          : C-PCM and meta-GGA Hessian, CCSD/C-PCM, Gaussian charge scheme
   Tiago L. C. Gouveia    : GS-ROHF, GS-ROCIS
   Yang Guo               : DLPNO-NEVPT2, F12-NEVPT2, CIM, IAO-localization
   Andreas Hansen         : Spin unrestricted coupled pair/coupled cluster methods
   Ingolf Harden          : AUTO-CI MPn and infrastructure 
   Benjamin Helmich-Paris : MC-RPA, TRAH-(SCF,CASSCF), AVAS, COSX integrals, SCF dyn. polar.
   Lee Huntington         : MR-EOM, pCC
   Robert Izsak           : Overlap fitted RIJCOSX, COSX-SCS-MP3, EOM
   Riya Kayal             : Wick's Theorem for AUTO-CI, AUTO-CI UHF-CCSDT
   Emily Kempfer          : AUTO-CI, RHF CISDT and CCSDT
   Christian Kollmar      : KDIIS, OOCD, Brueckner-CCSD(T), CCSD density, CASPT2, CASPT2-K, improved NEVPT2
   Axel Koslowski         : Symmetry handling
   Simone Kossmann        : Meta GGA functionals, TD-DFT gradient, OOMP2, (MP2 Hessian; deprecated post 5.0)
   Lucas Lang             : DCDCAS
   Marvin Lechner         : AUTO-CI (C++ implementation), FIC-MRCC
   Spencer Leger          : CASSCF response
   Dagmar Lenk            : GEPOL surface, SMD, ORCA-2-JSON
   Dimitrios Liakos       : Extrapolation schemes; Compound Job, initial MDCI parallelization
   Dimitrios Manganas     : Further ROCIS development; embedding schemes. LFT, Crystal Embedding
   Dimitrios Pantazis     : SARC Basis sets
   Anastasios Papadopoulos: AUTO-CI, single reference methods and gradients
   Taras Petrenko         : pre 6.0 DFT Hessian and TD-DFT gradient, (ASA, deprecated), ECA, 1-Electron XAS/XES, NRVS
   Peter Pinski           : DLPNO-MP2, DLPNO-MP2 Gradient
   Christoph Reimann      : Effective Core Potentials
   Marius Retegan         : Local ZFS, SOC
   Christoph Riplinger    : Optimizer, TS searches, QM/MM, DLPNO-CCSD(T), (RO)-DLPNO pert. Triples
   Michael Roemelt        : Original ROCIS implementation
   Masaaki Saitow         : Open-shell DLPNO-CCSD energy and density
   Barbara Sandhoefer     : DKH picture change effects
   Kantharuban Sivalingam : CASSCF convergence/infrastructure, NEVPT2 and variants, FIC-MRCI
   Bernardo de Souza      : ESD, SOC TD-DFT
   Georgi Stoychev        : AutoAux, RI-MP2 NMR, DLPNO-MP2 response, X2C
   Van Anh Tran           : RI-MP2 g-tensors
   Willem Van den Heuvel  : Paramagnetic NMR
   Zikuan Wang            : NOTCH, Electric field optimization 
   Frank Wennmohs         : Technical directorship and infrastructure
   Hang Xu                : AUTO-CI-Response properties 


 We gratefully acknowledge several colleagues who have allowed us to
 interface, adapt or use parts of their codes:
   Stefan Grimme, W. Hujo, H. Kruse, P. Pracht,  : VdW corrections, initial TS optimization,
                  C. Bannwarth, S. Ehlert,         DFT functionals, gCP, sTDA/sTD-DF
                  L. Wittmann, M. Mueller
   Ed Valeev, F. Pavosevic, A. Kumar             : LibInt (2-el integral package), F12 methods
   Garnet Chan, S. Sharma, J. Yang, R. Olivares  : DMRG
   Ulf Ekstrom                                   : XCFun DFT Library
   Mihaly Kallay                                 : mrcc  (arbitrary order and MRCC methods)
   Frank Weinhold                                : gennbo (NPA and NBO analysis)
   Simon Mueller                                 : openCOSMO-RS
   Christopher J. Cramer and Donald G. Truhlar   : smd solvation model
   Lars Goerigk                                  : TD-DFT with DH, B97 family of functionals
   V. Asgeirsson, H. Jonsson                     : NEB implementation
   FAccTs GmbH                                   : IRC, NEB, NEB-TS, DLPNO-Multilevel, CI-OPT
                                                   MM, QMMM, 2- and 3-layer-ONIOM, Crystal-QMMM,
                                                   LR-CPCM, SF, NACMEs, symmetry and pop. for TD-DFT,
                                                   nearIR, NL-DFT gradient (VV10), updates on ESD,
                                                   ML-optimized integration grids, MBIS, APM,
                                                   GOAT, DOCKER, SOLVATOR, interface openCOSMO-RS
   S Lehtola, MJT Oliveira, MAL Marques          : LibXC Library
   Liviu Ungur et al                             : ANISO software


 Your calculation uses the libint2 library for the computation of 2-el integrals
 For citations please refer to: http://libint.valeyev.net

 Your ORCA version has been built with support for libXC version: 6.2.2
 For citations please refer to: https://libxc.gitlab.io

 This ORCA versions uses:
   CBLAS   interface :  Fast vector & matrix operations
   LAPACKE interface :  Fast linear algebra routines
   SCALAPACK package :  Parallel linear algebra routines
   Shared memory     :  Shared parallel matrices
   BLAS/LAPACK       :  OpenBLAS 0.3.27  USE64BITINT DYNAMIC_ARCH NO_AFFINITY SkylakeX SINGLE_THREADED
        Core in use  :  SkylakeX
   Copyright (c) 2011-2014, The OpenBLAS Project


Your calculation utilizes the geometrical counterpoise correction gCP
Please cite in your paper:
H.Kruse, S. Grimme J.Chem.Phys., 136, (2012), 154101 
   

Your calculation utilizes the atom-pairwise dispersion correction
based on EEQ partial charges (D4)


================================================================================

----- Orbital basis set information -----
Your calculation utilizes the basis: def2-SV(P)
   F. Weigend and R. Ahlrichs, Phys. Chem. Chem. Phys. 7, 3297 (2005).

----- AuxJ basis set information -----
Your calculation utilizes the auxiliary basis: def2/J
   F. Weigend, Phys. Chem. Chem. Phys. 8, 1057 (2006).

================================================================================
                                        WARNINGS
                       Please study these warnings very carefully!
================================================================================


================================================================================
                                       INPUT FILE
================================================================================
NAME = sp.inp
|  1> ! pbe def2-sv(p) def2/J RI DEFGRID1 loosescf d4 GCP(DFT/SV(P)) printgap
|  2> %output
|  3>     printlevel normal
|  4> end
|  5> * xyz 0 1
|  6> C -2.9129224418 -0.0009313558 -0.0159564907
|  7> C -1.4129909679 0.0015127117 0.0070580634
|  8> C -0.6963826263 1.1917480284 0.0077155055
|  9> C 0.684083947 1.1974483683 0.0105030229
| 10> C 1.4013001836 -0.0002397927 0.0096645609
| 11> C 0.6826582584 -1.1973306065 0.0104674095
| 12> C -0.6974489387 -1.1899348267 0.0076675584
| 13> N 2.7787015938 -0.001257506 -0.0624365716
| 14> H -3.3073053463 0.9198584089 0.407094565
| 15> H -3.2727516455 -0.0838083601 -1.0420680641
| 16> H -3.3060606699 -0.8449193983 0.5465395868
| 17> H -1.2288135325 2.1327622359 0.0104406644
| 18> H 1.2203419167 2.1358459264 0.0128830882
| 19> H 1.2178183883 -2.1363698397 0.0131264446
| 20> H -1.231601798 -2.1299772449 0.010770617
| 21> H 3.2331984177 -0.8492808451 0.2337764565
| 22> H 3.2348132638 0.8462831951 0.2327630151
| 23> *
| 24> 
| 25>                          ****END OF INPUT****
================================================================================

                       ****************************
                       * Single Point Calculation *
                       ****************************

---------------------------------
CARTESIAN COORDINATES (ANGSTROEM)
---------------------------------
  C     -2.912922   -0.000931   -0.015956
  C     -1.412991    0.001513    0.007058
  C     -0.696383    1.191748    0.007716
  C      0.684084    1.197448    0.010503
  C      1.401300   -0.000240    0.009665
  C      0.682658   -1.197331    0.010467
  C     -0.697449   -1.189935    0.007668
  N      2.778702   -0.001258   -0.062437
  H     -3.307305    0.919858    0.407095
  H     -3.272752   -0.083808   -1.042068
  H     -3.306061   -0.844919    0.546540
  H     -1.228814    2.132762    0.010441
  H      1.220342    2.135846    0.012883
  H      1.217818   -2.136370    0.013126
  H     -1.231602   -2.129977    0.010771
  H      3.233198   -0.849281    0.233776
  H      3.234813    0.846283    0.232763

----------------------------
CARTESIAN COORDINATES (A.U.)
----------------------------
  NO LB      ZA    FRAG     MASS         X           Y           Z
   0 C     6.0000    0    12.011   -5.504626   -0.001760   -0.030153
   1 C     6.0000    0    12.011   -2.670166    0.002859    0.013338
   2 C     6.0000    0    12.011   -1.315972    2.252077    0.014580
   3 C     6.0000    0    12.011    1.292731    2.262849    0.019848
   4 C     6.0000    0    12.011    2.648074   -0.000453    0.018263
   5 C     6.0000    0    12.011    1.290037   -2.262627    0.019781
   6 C     6.0000    0    12.011   -1.317987   -2.248651    0.014490
   7 N     7.0000    0    14.007    5.250985   -0.002376   -0.117988
   8 H     1.0000    0     1.008   -6.249901    1.738280    0.769297
   9 H     1.0000    0     1.008   -6.184604   -0.158375   -1.969223
  10 H     1.0000    0     1.008   -6.247549   -1.596666    1.032810
  11 H     1.0000    0     1.008   -2.322121    4.030337    0.019730
  12 H     1.0000    0     1.008    2.306112    4.036164    0.024346
  13 H     1.0000    0     1.008    2.301343   -4.037154    0.024805
  14 H     1.0000    0     1.008   -2.327390   -4.025074    0.020354
  15 H     1.0000    0     1.008    6.109860   -1.604908    0.441773
  16 H     1.0000    0     1.008    6.112911    1.599243    0.439858

--------------------------------
INTERNAL COORDINATES (ANGSTROEM)
--------------------------------
 C      0   0   0     0.000000000000     0.00000000     0.00000000
 C      1   0   0     1.500110019153     0.00000000     0.00000000
 C      2   1   0     1.389312080348   121.14077122     0.00000000
 C      3   2   1     1.380481156745   121.28758175   180.89178648
 C      4   3   2     1.396014600232   120.67785760     0.14722734
 C      5   4   3     1.396235394805   118.10797425   359.78933386
 C      6   5   4     1.380129853388   120.67020019     0.21128837
 N      5   4   3     1.379287589254   120.91204973   176.37258814
 H      1   2   3     1.087365560365   110.81207783   334.53327447
 H      1   2   3     1.090527677202   110.14999708    94.11085255
 H      1   2   3     1.087784592408   110.77503394   213.48359822
 H      3   2   1     1.081202032501   119.44755358     1.16122354
 H      4   3   2     1.080818325079   119.98303448   180.11749604
 H      6   5   4     1.080832140802   119.34370810   180.19979488
 H      7   6   5     1.081207035718   119.29857729   180.14654690
 H      8   5   4     1.006704079961   115.85487114   161.09825250
 H      8   5   4     1.006730297309   115.88036740    22.35061132

---------------------------
INTERNAL COORDINATES (A.U.)
---------------------------
 C      0   0   0     0.000000000000     0.00000000     0.00000000
 C      1   0   0     2.834797106950     0.00000000     0.00000000
 C      2   1   0     2.625419346406   121.14077122     0.00000000
 C      3   2   1     2.608731319286   121.28758175   180.89178648
 C      4   3   2     2.638085273394   120.67785760     0.14722734
 C      5   4   3     2.638502514668   118.10797425   359.78933386
 C      6   5   4     2.608067452152   120.67020019     0.21128837
 N      5   4   3     2.606475803606   120.91204973   176.37258814
 H      1   2   3     2.054823116547   110.81207783   334.53327447
 H      1   2   3     2.060798651372   110.14999708    94.11085255
 H      1   2   3     2.055614972350   110.77503394   213.48359822
 H      3   2   1     2.043175736866   119.44755358     1.16122354
 H      4   3   2     2.042450634922   119.98303448   180.11749604
 H      6   5   4     2.042476742856   119.34370810   180.19979488
 H      7   6   5     2.043185191576   119.29857729   180.14654690
 H      8   5   4     1.902395009027   115.85487114   161.09825250
 H      8   5   4     1.902444552634   115.88036740    22.35061132

---------------------
BASIS SET INFORMATION
---------------------
There are 3 groups of distinct atoms

 Group   1 Type C   : 7s4p1d contracted to 3s2p1d pattern {511/31/1}
 Group   2 Type N   : 7s4p1d contracted to 3s2p1d pattern {511/31/1}
 Group   3 Type H   : 4s contracted to 2s pattern {31}

Atom   0C    basis set group =>   1
Atom   1C    basis set group =>   1
Atom   2C    basis set group =>   1
Atom   3C    basis set group =>   1
Atom   4C    basis set group =>   1
Atom   5C    basis set group =>   1
Atom   6C    basis set group =>   1
Atom   7N    basis set group =>   2
Atom   8H    basis set group =>   3
Atom   9H    basis set group =>   3
Atom  10H    basis set group =>   3
Atom  11H    basis set group =>   3
Atom  12H    basis set group =>   3
Atom  13H    basis set group =>   3
Atom  14H    basis set group =>   3
Atom  15H    basis set group =>   3
Atom  16H    basis set group =>   3
---------------------------------
AUXILIARY/J BASIS SET INFORMATION
---------------------------------
There are 3 groups of distinct atoms

 Group   1 Type C   : 12s5p4d2f1g contracted to 6s4p3d1f1g pattern {711111/2111/211/2/1}
 Group   2 Type N   : 12s5p4d2f1g contracted to 6s4p3d1f1g pattern {711111/2111/211/2/1}
 Group   3 Type H   : 5s2p1d contracted to 3s1p1d pattern {311/2/1}

Atom   0C    basis set group =>   1
Atom   1C    basis set group =>   1
Atom   2C    basis set group =>   1
Atom   3C    basis set group =>   1
Atom   4C    basis set group =>   1
Atom   5C    basis set group =>   1
Atom   6C    basis set group =>   1
Atom   7N    basis set group =>   2
Atom   8H    basis set group =>   3
Atom   9H    basis set group =>   3
Atom  10H    basis set group =>   3
Atom  11H    basis set group =>   3
Atom  12H    basis set group =>   3
Atom  13H    basis set group =>   3
Atom  14H    basis set group =>   3
Atom  15H    basis set group =>   3
Atom  16H    basis set group =>   3
------------------------------------------------------------------------------
                             ORCA STARTUP CALCULATIONS
                           -- RI-GTO INTEGRALS CHOSEN --
------------------------------------------------------------------------------
------------------------------------------------------------------------------
                   ___                                                        
                  /   \      - P O W E R E D   B Y -                         
                 /     \                                                     
                 |  |  |   _    _      __       _____    __    __             
                 |  |  |  | |  | |    /  \     |  _  \  |  |  /  |          
                  \  \/   | |  | |   /    \    | | | |  |  | /  /          
                 / \  \   | |__| |  /  /\  \   | |_| |  |  |/  /          
                |  |  |   |  __  | /  /__\  \  |    /   |      \           
                |  |  |   | |  | | |   __   |  |    \   |  |\   \          
                \     /   | |  | | |  |  |  |  | |\  \  |  | \   \       
                 \___/    |_|  |_| |__|  |__|  |_| \__\ |__|  \__/        
                                                                              
                      - O R C A' S   B I G   F R I E N D -                    
                                      &                                       
                       - I N T E G R A L  F E E D E R -                       
                                                                              
 v1 FN, 2020, v2 2021, v3 2022-2024                                           
------------------------------------------------------------------------------


----------------------
SHARK INTEGRAL PACKAGE
----------------------

Number of atoms                             ...     17
Number of basis functions                   ...    130
Number of shells                            ...     66
Maximum angular momentum                    ...      2
Integral batch strategy                     ... SHARK/LIBINT Hybrid
RI-J (if used) integral strategy            ... SPLIT-RIJ (Revised 2003 algorithm where possible)
Printlevel                                  ...      1
Contraction scheme used                     ... SEGMENTED contraction
Prescreening option                         ... SCHWARTZ
   Thresh                                   ... 1.000e-09
   Tcut                                     ... 1.000e-10
   Tpresel                                  ... 1.000e-10 
Coulomb Range Separation                    ... NOT USED
Exchange Range Separation                   ... NOT USED
Multipole approximations                    ... NOT USED
Finite Nucleus Model                        ... NOT USED
CABS basis                                  ... NOT available
Auxiliary Coulomb fitting basis             ... AVAILABLE
   # of basis functions in Aux-J            ...    491
   # of shells in Aux-J                     ...    165
   Maximum angular momentum in Aux-J        ...      4
Auxiliary J/K fitting basis                 ... NOT available
Auxiliary Correlation fitting basis         ... NOT available
Auxiliary 'external' fitting basis          ... NOT available

Checking pre-screening integrals            ... done (  0.0 sec) Dimension = 66
Check shell pair data                       ... done (  0.0 sec)
Shell pair information
Shell pair cut-off parameter TPreSel        ...   1.0e-10
Total number of shell pairs                 ...      2211
Shell pairs after pre-screening             ...      2096
Total number of primitive shell pairs       ...      8909
Primitive shell pairs kept                  ...      6028
          la=0 lb=0:    835 shell pairs
          la=1 lb=0:    650 shell pairs
          la=1 lb=1:    135 shell pairs
          la=2 lb=0:    315 shell pairs
          la=2 lb=1:    126 shell pairs
          la=2 lb=2:     35 shell pairs

Calculating one electron integrals          ... done (  0.0 sec)
Calculating RI/J V-Matrix + Cholesky decomp.... done (  0.1 sec)
Calculating Nuclear repulsion               ... done (  0.0 sec) ENN=    344.674619864889 Eh

Diagonalization of the overlap matrix:
Smallest eigenvalue                        ... 2.508e-04
Time for diagonalization                   ...    0.001 sec
Threshold for overlap eigenvalues          ... 1.000e-07
Number of eigenvalues below threshold      ... 0
Time for construction of square roots      ...    0.011 sec
Total time needed                          ...    0.019 sec

-------------------
DFT GRID GENERATION
-------------------

General Integration Accuracy     IntAcc      ... 4.159
Radial Grid Type                 RadialGrid  ... OptM3 with GC (2021)
Angular Grid (max. ang.)         AngularGrid ... 3 (Lebedev-194)
Angular grid pruning method      GridPruning ... 4 (adaptive)
Weight generation scheme         WeightScheme... mBecke (2022)
Basis function cutoff            BFCut       ... 1.0000e-10
Integration weight cutoff        WCut        ... 1.0000e-14
Partially contracted basis set               ... off
Rotationally invariant grid construction     ... off
Angular grids for H and He will be reduced by one unit

Total number of grid points                  ...    38814
Total number of batches                      ...      616
Average number of points per batch           ...       63
Average number of grid points per atom       ...     2283
Initializing property integral containers    ... done (  0.0 sec)

SHARK setup successfully completed in   0.5 seconds

Maximum memory used throughout the entire STARTUP-calculation: 18.8 MB
-------------------------------------------------------------------------------
                                 ORCA GUESS
                   Start orbitals & Density for SCF / CASSCF
-------------------------------------------------------------------------------

------------
SCF SETTINGS
------------
Hamiltonian:
 Density Functional     Method          .... DFT(GTOs)
 Exchange Functional    Exchange        .... PBE
   PBE kappa parameter   XKappa         ....  0.804000
   PBE mue parameter    XMuePBE         ....  0.219520
 Correlation Functional Correlation     .... PBE
   PBE beta parameter  CBetaPBE         ....  0.066725
 LDA part of GGA corr.  LDAOpt          .... PW91-LDA
 Gradients option       PostSCFGGA      .... off
   NL short-range parameter             ....  6.400000
 RI-approximation to the Coulomb term is turned on
   Number of AuxJ basis functions       .... 491


General Settings:
 Integral files         IntName         .... sp
 Hartree-Fock type      HFTyp           .... RHF
 Total Charge           Charge          ....    0
 Multiplicity           Mult            ....    1
 Number of Electrons    NEL             ....   58
 Basis Dimension        Dim             ....  130
 Nuclear Repulsion      ENuc            ....    344.6746198649 Eh

Convergence Acceleration:
 AO-DIIS                CNVDIIS         .... on
   Start iteration      DIISMaxIt       ....    12
   Startup error        DIISStart       ....  0.200000
   # of expansion vecs  DIISMaxEq       ....     5
   Bias factor          DIISBfac        ....   1.050
   Max. coefficient     DIISMaxC        ....  10.000
 MO-DIIS                CNVKDIIS        .... off
 Trust-Rad. Augm. Hess. CNVTRAH         .... auto
   Auto Start mean grad. ratio tolernc. ....  1.125000
   Auto Start start iteration           ....    50
   Auto Start num. interpolation iter.  ....    10
   Max. Number of Micro iterations      ....    24
   Max. Number of Macro iterations      .... Maxiter - #DIIS iter
   Number of Davidson start vectors     ....     2
   Converg. threshold    (grad. norm)   ....   1.000e-04
   Grad. Scal. Fac. for Micro threshold ....   0.100
   Minimum threshold for Micro iter.    ....   1.000e-02
   NR start threshold (gradient norm)   ....   1.000e-04
   Initial trust radius                 ....   0.400
   Minimum AH scaling param. (alpha)    ....   1.000
   Maximum AH scaling param. (alpha)    .... 1000.000
   Quad. conv. algorithm                .... NR
   White noise on init. David. guess    .... on
   Maximum white noise                  ....   0.010
   Pseudo random numbers                .... off
   Inactive MOs                         .... canonical
   Orbital update algorithm             .... Taylor
   Preconditioner                       .... Diag
   Full preconditioner red. dimension   ....   250
 SOSCF                  CNVSOSCF        .... on
   Start iteration      SOSCFMaxIt      ....   150
   Startup grad/error   SOSCFStart      ....  0.003300
   Hessian update       SOSCFHessUp     .... L-BFGS
 Level Shifting         CNVShift        .... on
   Level shift para.    LevelShift      ....    0.2500
   Turn off err/grad.   ShiftErr        ....    0.0010
 Zerner damping         CNVZerner       .... off
 Static damping         CNVDamp         .... on
   Fraction old density DampFac         ....    0.7000
   Max. Damping (<1)    DampMax         ....    0.9800
   Min. Damping (>=0)   DampMin         ....    0.0000
   Turn off err/grad.   DampErr         ....    0.1000

SCF Procedure:
 Maximum # iterations   MaxIter         ....   125
 SCF integral mode      SCFMode         .... Direct
   Integral package                     .... SHARK and LIBINT hybrid scheme
 Reset frequency        DirectResetFreq ....    20
 Integral Threshold     Thresh          ....  1.000e-09 Eh
 Primitive CutOff       TCut            ....  1.000e-10 Eh

Convergence Tolerance:
 Convergence Check Mode ConvCheckMode   .... Total+1el-Energy
 Convergence forced     ConvForced      .... 0
 Energy Change          TolE            ....  1.000e-05 Eh
 1-El. energy change                    ....  1.000e-02 Eh
 Orbital Gradient       TolG            ....  1.000e-04
 Orbital Rotation angle TolX            ....  1.000e-04
 DIIS Error             TolErr          ....  5.000e-04

------------------------------
INITIAL GUESS: MODEL POTENTIAL
------------------------------
Loading Hartree-Fock densities                     ... done
Calculating cut-offs                               ... done
Initializing the effective Hamiltonian             ... done
Setting up the integral package (SHARK)            ... done
Starting the Coulomb interaction                   ... done (   0.1 sec)
Making the grid                                    ... done (   0.2 sec)
Mapping shells                                     ... done
Starting the XC term evaluation                    ... done (   0.1 sec)
  promolecular density results
     # of electrons  =     57.995491641
     EX              =    -45.028492410
     EC              =     -1.911028838
     EX+EC           =    -46.939521247
Transforming the Hamiltonian                       ... done (   0.0 sec)
Diagonalizing the Hamiltonian                      ... done (   0.0 sec)
Back transforming the eigenvectors                 ... done (   0.0 sec)
Now organizing SCF variables                       ... done
                      ------------------
                      INITIAL GUESS DONE (   0.4 sec)
                      ------------------
             **** ENERGY FILE WAS UPDATED (sp.en.tmp) ****
Finished Guess after   0.6 sec
Maximum memory used throughout the entire GUESS-calculation: 14.6 MB

-------------------------------------------------------------------------------------------
                                      ORCA LEAN-SCF
                              memory conserving SCF solver
-------------------------------------------------------------------------------------------

----------------------------------------D-I-I-S--------------------------------------------
Iteration    Energy (Eh)           Delta-E    RMSDP     MaxDP     DIISErr   Damp  Time(sec)
-------------------------------------------------------------------------------------------
               ***  Starting incremental Fock matrix formation  ***
    1    -326.0250195080005824     0.00e+00  4.67e-03  8.04e-02  2.14e-01  0.700   0.6
    2    -326.1254876296759448    -1.00e-01  3.28e-03  4.62e-02  9.28e-02  0.700   0.6
                               ***Turning on AO-DIIS***
    3    -326.1625434647539805    -3.71e-02  1.25e-03  1.36e-02  2.42e-02  0.700   0.6
    4    -326.1838208588955013    -2.13e-02  2.02e-03  2.43e-02  9.17e-03  0.000   0.6
    5    -326.2312058210194436    -4.74e-02  5.11e-04  6.33e-03  7.35e-03  0.000   0.6
                              *** Initializing SOSCF ***
---------------------------------------S-O-S-C-F--------------------------------------
Iteration    Energy (Eh)           Delta-E    RMSDP     MaxDP     MaxGrad    Time(sec)
--------------------------------------------------------------------------------------
    6    -326.2316196166398186    -4.14e-04  2.02e-04  2.94e-03  1.30e-03     0.6
               *** Restarting incremental Fock matrix formation ***
    7    -326.2316428978340355    -2.33e-05  1.47e-04  2.59e-03  3.57e-04     0.6
    8    -326.2316321391974725     1.08e-05  7.59e-05  1.68e-03  1.13e-03     0.6
    9    -326.2316465115018218    -1.44e-05  3.13e-05  5.15e-04  8.22e-05     0.6
   10    -326.2316464323891978     7.91e-08  1.38e-05  1.86e-04  1.09e-04     0.6
                 **** Energy Check signals convergence ****

               *****************************************************
               *                     SUCCESS                       *
               *           SCF CONVERGED AFTER  10 CYCLES          *
               *****************************************************

             **** ENERGY FILE WAS UPDATED (sp.en.tmp) ****

----------------
TOTAL SCF ENERGY
----------------

Total Energy       :       -326.23164643238920 Eh           -8877.21441 eV

Components:
Nuclear Repulsion  :        344.67461986488877 Eh            9379.07323 eV
Electronic Energy  :       -670.90626629727785 Eh          -18256.28764 eV
One Electron Energy:      -1122.68337946559836 Eh          -30549.76788 eV
Two Electron Energy:        451.77711316832045 Eh           12293.48024 eV

Virial components:
Potential Energy   :       -649.64103281514781 Eh          -17677.63122 eV
Kinetic Energy     :        323.40938638275867 Eh            8800.41681 eV
Virial Ratio       :          2.00872658669928

DFT components:
N(Alpha)           :       29.000252346818 electrons
N(Beta)            :       29.000252346818 electrons
N(Total)           :       58.000504693637 electrons
E(X)               :      -45.924446748636 Eh       
E(C)               :       -1.928785998245 Eh       
E(XC)              :      -47.853232746881 Eh       

---------------
SCF CONVERGENCE
---------------

  Last Energy change         ...   -7.9113e-08  Tolerance :   1.0000e-05
  Last MAX-Density change    ...    1.8613e-04  Tolerance :   1.0000e-03
  Last RMS-Density change    ...    1.3813e-05  Tolerance :   1.0000e-04
  Last DIIS Error            ...    1.2959e-03  Tolerance :   5.0000e-04
  Last Orbital Gradient      ...    1.0927e-04  Tolerance :   1.0000e-04
  Last Orbital Rotation      ...    1.3674e-04  Tolerance :   1.0000e-04


----------------
ORBITAL ENERGIES
----------------

  NO   OCC          E(Eh)            E(eV) 
   0   2.0000     -13.991400      -380.7254 
   1   2.0000      -9.922291      -269.9993 
   2   2.0000      -9.879950      -268.8471 
   3   2.0000      -9.878254      -268.8009 
   4   2.0000      -9.878232      -268.8004 
   5   2.0000      -9.876811      -268.7617 
   6   2.0000      -9.876530      -268.7541 
   7   2.0000      -9.872934      -268.6562 
   8   2.0000      -0.831830       -22.6352 
   9   2.0000      -0.753854       -20.5134 
  10   2.0000      -0.672683       -18.3046 
  11   2.0000      -0.659141       -17.9361 
  12   2.0000      -0.595770       -16.2117 
  13   2.0000      -0.545668       -14.8484 
  14   2.0000      -0.514647       -14.0043 
  15   2.0000      -0.465655       -12.6711 
  16   2.0000      -0.463107       -12.6018 
  17   2.0000      -0.402460       -10.9515 
  18   2.0000      -0.388946       -10.5838 
  19   2.0000      -0.372536       -10.1372 
  20   2.0000      -0.365734        -9.9521 
  21   2.0000      -0.363718        -9.8973 
  22   2.0000      -0.330357        -8.9895 
  23   2.0000      -0.328784        -8.9467 
  24   2.0000      -0.300450        -8.1757 
  25   2.0000      -0.285681        -7.7738 
  26   2.0000      -0.258562        -7.0358 
  27   2.0000      -0.216966        -5.9039 
  28   2.0000      -0.164553        -4.4777 
  29   0.0000      -0.022963        -0.6249 
  30   0.0000      -0.004138        -0.1126 
  31   0.0000       0.036299         0.9877 
  32   0.0000       0.055262         1.5038 
  33   0.0000       0.066235         1.8023 
  34   0.0000       0.077510         2.1091 
  35   0.0000       0.101651         2.7661 
  36   0.0000       0.109713         2.9854 
  37   0.0000       0.128817         3.5053 
  38   0.0000       0.133992         3.6461 
  39   0.0000       0.151858         4.1323 
*Only the first 10 virtual orbitals were printed.

                    ********************************
                    * MULLIKEN POPULATION ANALYSIS *
                    ********************************

-----------------------
MULLIKEN ATOMIC CHARGES
-----------------------
   0 C :   -0.223932
   1 C :    0.058375
   2 C :   -0.126772
   3 C :   -0.126280
   4 C :    0.163584
   5 C :   -0.126235
   6 C :   -0.125345
   7 N :   -0.337059
   8 H :    0.098540
   9 H :    0.112851
  10 H :    0.101014
  11 H :    0.029265
  12 H :    0.016360
  13 H :    0.016734
  14 H :    0.029045
  15 H :    0.219907
  16 H :    0.219947
Sum of atomic charges:    0.0000000

--------------------------------
MULLIKEN REDUCED ORBITAL CHARGES
--------------------------------
  0 C s       :     3.027009  s :     3.027009
      pz      :     1.070602  p :     3.167691
      px      :     1.038928
      py      :     1.058161
      dz2     :     0.005563  d :     0.029231
      dxz     :     0.007031
      dyz     :     0.004444
      dx2y2   :     0.005958
      dxy     :     0.006235

  1 C s       :     2.977122  s :     2.977122
      pz      :     1.013115  p :     2.922987
      px      :     0.962620
      py      :     0.947252
      dz2     :     0.002693  d :     0.041516
      dxz     :     0.006375
      dyz     :     0.006227
      dx2y2   :     0.012894
      dxy     :     0.013327

  2 C s       :     3.266373  s :     3.266373
      pz      :     1.005768  p :     2.824800
      px      :     0.923878
      py      :     0.895154
      dz2     :     0.003149  d :     0.035600
      dxz     :     0.006561
      dyz     :     0.003150
      dx2y2   :     0.010304
      dxy     :     0.012437

  3 C s       :     3.262113  s :     3.262113
      pz      :     1.074925  p :     2.831302
      px      :     0.910244
      py      :     0.846133
      dz2     :     0.003252  d :     0.032865
      dxz     :     0.005420
      dyz     :     0.002788
      dx2y2   :     0.008486
      dxy     :     0.012920

  4 C s       :     2.890964  s :     2.890964
      pz      :     0.963588  p :     2.886342
      px      :     0.915458
      py      :     1.007296
      dz2     :     0.003937  d :     0.059110
      dxz     :     0.015672
      dyz     :     0.006704
      dx2y2   :     0.018290
      dxy     :     0.014507

  5 C s       :     3.261477  s :     3.261477
      pz      :     1.074294  p :     2.831860
      px      :     0.910146
      py      :     0.847420
      dz2     :     0.003250  d :     0.032897
      dxz     :     0.005437
      dyz     :     0.002786
      dx2y2   :     0.008494
      dxy     :     0.012929

  6 C s       :     3.269254  s :     3.269254
      pz      :     1.004985  p :     2.820544
      px      :     0.923185
      py      :     0.892373
      dz2     :     0.003149  d :     0.035547
      dxz     :     0.006529
      dyz     :     0.003153
      dx2y2   :     0.010268
      dxy     :     0.012448

  7 N s       :     3.388228  s :     3.388228
      pz      :     1.718241  p :     3.928007
      px      :     1.135462
      py      :     1.074304
      dz2     :     0.002115  d :     0.020824
      dxz     :     0.004209
      dyz     :     0.003529
      dx2y2   :     0.004055
      dxy     :     0.006916

  8 H s       :     0.901460  s :     0.901460

  9 H s       :     0.887149  s :     0.887149

 10 H s       :     0.898986  s :     0.898986

 11 H s       :     0.970735  s :     0.970735

 12 H s       :     0.983640  s :     0.983640

 13 H s       :     0.983266  s :     0.983266

 14 H s       :     0.970955  s :     0.970955

 15 H s       :     0.780093  s :     0.780093

 16 H s       :     0.780053  s :     0.780053


------------------------
MULLIKEN OVERLAP CHARGES
------------------------
B(  0-C ,  1-C ) :   0.8816 B(  0-C ,  2-C ) :  -0.2136 B(  0-C ,  6-C ) :  -0.2221 
B(  0-C ,  8-H ) :   0.7136 B(  0-C ,  9-H ) :   0.7056 B(  0-C , 10-H ) :   0.7138 
B(  1-C ,  2-C ) :   0.3251 B(  1-C ,  3-C ) :   0.3652 B(  1-C ,  4-C ) :  -0.4870 
B(  1-C ,  5-C ) :   0.3686 B(  1-C ,  6-C ) :   0.3112 B(  1-C , 11-H ) :  -0.1761 
B(  1-C , 14-H ) :  -0.1825 B(  2-C ,  3-C ) :   0.3488 B(  2-C ,  4-C ) :   0.4565 
B(  2-C ,  5-C ) :  -0.3834 B(  2-C ,  6-C ) :   0.2962 B(  2-C , 11-H ) :   0.8687 
B(  2-C , 12-H ) :  -0.1723 B(  3-C ,  4-C ) :   0.1393 B(  3-C ,  5-C ) :   0.2427 
B(  3-C ,  6-C ) :  -0.3835 B(  3-C ,  7-N ) :  -0.2171 B(  3-C , 11-H ) :  -0.1806 
B(  3-C , 12-H ) :   0.8708 B(  4-C ,  5-C ) :   0.1372 B(  4-C ,  6-C ) :   0.4556 
B(  4-C ,  7-N ) :   0.9126 B(  4-C , 12-H ) :  -0.2008 B(  4-C , 13-H ) :  -0.2001 
B(  5-C ,  6-C ) :   0.3560 B(  5-C ,  7-N ) :  -0.2162 B(  5-C , 13-H ) :   0.8713 
B(  5-C , 14-H ) :  -0.1795 B(  6-C , 13-H ) :  -0.1735 B(  6-C , 14-H ) :   0.8724 
B(  7-N , 15-H ) :   0.6362 B(  7-N , 16-H ) :   0.6364 B( 15-H , 16-H ) :  -0.0634 



                     *******************************
                     * LOEWDIN POPULATION ANALYSIS *
                     *******************************

----------------------
LOEWDIN ATOMIC CHARGES
----------------------
   0 C :   -0.322715
   1 C :   -0.079266
   2 C :   -0.118681
   3 C :   -0.161522
   4 C :   -0.012360
   5 C :   -0.160807
   6 C :   -0.117897
   7 N :   -0.318006
   8 H :    0.122304
   9 H :    0.128527
  10 H :    0.123390
  11 H :    0.118489
  12 H :    0.116358
  13 H :    0.116380
  14 H :    0.118492
  15 H :    0.223641
  16 H :    0.223675

-------------------------------
LOEWDIN REDUCED ORBITAL CHARGES
-------------------------------
  0 C s       :     2.936115  s :     2.936115
      pz      :     1.124929  p :     3.314979
      px      :     1.070823
      py      :     1.119227
      dz2     :     0.014040  d :     0.071621
      dxz     :     0.015525
      dyz     :     0.011329
      dx2y2   :     0.016451
      dxy     :     0.014276

  1 C s       :     2.845469  s :     2.845469
      pz      :     0.997958  p :     3.124327
      px      :     1.039041
      py      :     1.087328
      dz2     :     0.007212  d :     0.109470
      dxz     :     0.011654
      dyz     :     0.013480
      dx2y2   :     0.038894
      dxy     :     0.038230

  2 C s       :     2.889017  s :     2.889017
      pz      :     0.996854  p :     3.135897
      px      :     1.076686
      py      :     1.062357
      dz2     :     0.007035  d :     0.093767
      dxz     :     0.014372
      dyz     :     0.006188
      dx2y2   :     0.030814
      dxy     :     0.035358

  3 C s       :     2.887996  s :     2.887996
      pz      :     1.061201  p :     3.185113
      px      :     1.078721
      py      :     1.045191
      dz2     :     0.007229  d :     0.088414
      dxz     :     0.011675
      dyz     :     0.005190
      dx2y2   :     0.027540
      dxy     :     0.036780

  4 C s       :     2.830273  s :     2.830273
      pz      :     0.958387  p :     3.033284
      px      :     0.968149
      py      :     1.106748
      dz2     :     0.009493  d :     0.148802
      dxz     :     0.033129
      dyz     :     0.014075
      dx2y2   :     0.051722
      dxy     :     0.040383

  5 C s       :     2.888014  s :     2.888014
      pz      :     1.060232  p :     3.184318
      px      :     1.078874
      py      :     1.045212
      dz2     :     0.007225  d :     0.088475
      dxz     :     0.011708
      dyz     :     0.005185
      dx2y2   :     0.027555
      dxy     :     0.036802

  6 C s       :     2.888962  s :     2.888962
      pz      :     0.996342  p :     3.135267
      px      :     1.076384
      py      :     1.062540
      dz2     :     0.007031  d :     0.093668
      dxz     :     0.014284
      dyz     :     0.006193
      dx2y2   :     0.030732
      dxy     :     0.035428

  7 N s       :     3.168090  s :     3.168090
      pz      :     1.712423  p :     4.103605
      px      :     1.199632
      py      :     1.191550
      dz2     :     0.003434  d :     0.046311
      dxz     :     0.007203
      dyz     :     0.006343
      dx2y2   :     0.012283
      dxy     :     0.017048

  8 H s       :     0.877696  s :     0.877696

  9 H s       :     0.871473  s :     0.871473

 10 H s       :     0.876610  s :     0.876610

 11 H s       :     0.881511  s :     0.881511

 12 H s       :     0.883642  s :     0.883642

 13 H s       :     0.883620  s :     0.883620

 14 H s       :     0.881508  s :     0.881508

 15 H s       :     0.776359  s :     0.776359

 16 H s       :     0.776325  s :     0.776325


---------------------------------
LOEWDIN BOND ORDERS (THRESH 0.050000)
---------------------------------
B(  0-C ,  1-C ) :   1.0967 B(  0-C ,  2-C ) :   0.0731 B(  0-C ,  6-C ) :   0.0725 
B(  0-C ,  8-H ) :   0.9325 B(  0-C ,  9-H ) :   0.9251 B(  0-C , 10-H ) :   0.9316 
B(  1-C ,  2-C ) :   1.4332 B(  1-C ,  3-C ) :   0.0903 B(  1-C ,  4-C ) :   0.0928 
B(  1-C ,  5-C ) :   0.0902 B(  1-C ,  6-C ) :   1.4297 B(  2-C ,  3-C ) :   1.5254 
B(  2-C ,  4-C ) :   0.0877 B(  2-C ,  5-C ) :   0.1115 B(  2-C ,  6-C ) :   0.0854 
B(  2-C , 11-H ) :   0.8838 B(  3-C ,  4-C ) :   1.3849 B(  3-C ,  5-C ) :   0.0855 
B(  3-C ,  6-C ) :   0.1122 B(  3-C ,  7-N ) :   0.1116 B(  3-C , 12-H ) :   0.8838 
B(  4-C ,  5-C ) :   1.3822 B(  4-C ,  6-C ) :   0.0877 B(  4-C ,  7-N ) :   1.3123 
B(  5-C ,  6-C ) :   1.5295 B(  5-C ,  7-N ) :   0.1109 B(  5-C , 13-H ) :   0.8837 
B(  6-C , 14-H ) :   0.8842 B(  7-N , 15-H ) :   0.8966 B(  7-N , 16-H ) :   0.8966 


------------------------------------------
LOEWDIN REDUCED ORBITAL POPULATIONS PER MO
-------------------------------------------
THRESHOLD FOR PRINTING IS 0.1%%
                      0         1         2         3         4         5   
                 -13.99140  -9.92229  -9.87995  -9.87825  -9.87823  -9.87681
                   2.00000   2.00000   2.00000   2.00000   2.00000   2.00000
                  --------  --------  --------  --------  --------  --------
 0 C  px              0.0       0.0       0.1       0.0       0.0       0.0
 1 C  s               0.0       0.0      98.7       0.1       0.7       0.0
 1 C  py              0.0       0.0       0.0       0.2       0.0       0.0
 2 C  s               0.0       0.0       0.4      15.3      83.2       0.0
 2 C  py              0.0       0.0       0.1       0.0       0.0       0.0
 3 C  s               0.0       0.0       0.0       0.2       0.4       0.1
 3 C  px              0.0       0.0       0.0       0.0       0.1       0.0
 3 C  py              0.0       0.1       0.0       0.0       0.0       0.0
 4 C  s               0.0      99.5       0.0       0.0       0.0       0.0
 5 C  s               0.0       0.0       0.0       0.9       0.0      98.6
 5 C  px              0.0       0.0       0.0       0.1       0.0       0.0
 5 C  py              0.0       0.1       0.0       0.0       0.0       0.0
 6 C  s               0.0       0.0       0.4      83.0      15.3       0.9
 6 C  px              0.0       0.0       0.0       0.0       0.0       0.1
 6 C  py              0.0       0.0       0.1       0.0       0.0       0.0
 7 N  s              99.8       0.0       0.0       0.0       0.0       0.0
 7 N  px              0.0       0.2       0.0       0.0       0.0       0.0

                      6         7         8         9        10        11   
                  -9.87653  -9.87293  -0.83183  -0.75385  -0.67268  -0.65914
                   2.00000   2.00000   2.00000   2.00000   2.00000   2.00000
                  --------  --------  --------  --------  --------  --------
 0 C  s               0.0      99.7       0.0       3.7      18.9       0.0
 0 C  px              0.0       0.0       0.0       1.7       1.1       0.0
 0 C  py              0.0       0.0       0.0       0.0       0.0       0.2
 1 C  s               0.0       0.0       0.4      16.8      11.7       0.0
 1 C  px              0.0       0.1       0.2       1.2       4.9       0.0
 1 C  py              0.0       0.0       0.0       0.0       0.0       8.7
 1 C  dz2             0.0       0.0       0.0       0.2       0.1       0.0
 1 C  dxy             0.0       0.0       0.0       0.0       0.0       0.2
 2 C  s               0.6       0.0       0.7      12.7       0.3      13.4
 2 C  px              0.1       0.0       0.3       0.1       5.6       1.9
 2 C  py              0.0       0.0       0.1       2.4       0.8       0.5
 2 C  dz2             0.0       0.0       0.0       0.2       0.0       0.1
 2 C  dx2y2           0.0       0.0       0.0       0.0       0.1       0.1
 3 C  s              98.9       0.0       3.4       7.0       5.7      14.7
 3 C  px              0.0       0.0       0.7       2.1       0.5       1.4
 3 C  py              0.0       0.0       1.5       0.7       1.0       0.5
 3 C  dz2             0.0       0.0       0.0       0.1       0.1       0.1
 4 C  s               0.0       0.0      18.0       1.8       6.5       0.0
 4 C  px              0.0       0.0       5.1       7.9       4.6       0.0
 4 C  py              0.1       0.0       0.0       0.0       0.0      11.0
 4 C  dz2             0.0       0.0       0.4       0.0       0.0       0.0
 4 C  dx2y2           0.0       0.0       0.3       0.1       0.1       0.0
 4 C  dxy             0.0       0.0       0.0       0.0       0.0       0.2
 5 C  s               0.0       0.0       3.4       7.1       5.7      14.7
 5 C  px              0.0       0.0       0.7       2.1       0.5       1.4
 5 C  py              0.0       0.0       1.5       0.7       1.0       0.5
 5 C  dz2             0.0       0.0       0.0       0.1       0.1       0.1
 6 C  s               0.0       0.0       0.7      12.7       0.3      13.4
 6 C  px              0.0       0.0       0.3       0.1       5.6       1.9
 6 C  py              0.0       0.0       0.1       2.4       0.8       0.5
 6 C  dz2             0.0       0.0       0.0       0.2       0.0       0.1
 6 C  dx2y2           0.0       0.0       0.0       0.0       0.1       0.1
 7 N  s               0.0       0.0      42.1       5.8       3.8       0.0
 7 N  pz              0.0       0.0       0.6       0.1       0.2       0.0
 7 N  px              0.0       0.0       1.2       0.4       2.4       0.0
 7 N  py              0.0       0.0       0.0       0.0       0.0       0.6
 7 N  dz2             0.0       0.0       0.1       0.0       0.0       0.0
 8 H  s               0.0       0.1       0.0       0.6       3.9       0.0
 9 H  s               0.0       0.1       0.0       0.6       3.9       0.0
10 H  s               0.0       0.1       0.0       0.6       3.9       0.0
11 H  s               0.0       0.0       0.1       1.7       0.2       3.1
12 H  s               0.1       0.0       0.6       0.8       0.9       3.5
13 H  s               0.0       0.0       0.6       0.8       0.9       3.5
14 H  s               0.0       0.0       0.1       1.8       0.2       3.1
15 H  s               0.0       0.0       8.2       1.4       1.5       0.1
16 H  s               0.0       0.0       8.2       1.4       1.5       0.1

                     12        13        14        15        16        17   
                  -0.59577  -0.54567  -0.51465  -0.46565  -0.46311  -0.40246
                   2.00000   2.00000   2.00000   2.00000   2.00000   2.00000
                  --------  --------  --------  --------  --------  --------
 0 C  s              19.5       0.0       3.1       0.6       0.0       0.3
 0 C  px              1.3       0.0       4.1       1.3       0.0      14.5
 0 C  py              0.0       1.1       0.0       0.0       2.2       0.0
 0 C  dx2y2           0.0       0.0       0.1       0.0       0.0       0.3
 1 C  s               1.3       0.0       6.8       0.1       0.0       5.2
 1 C  px             11.5       0.0       1.0       1.0       0.0       4.5
 1 C  py              0.0      12.6       0.0       0.0       7.1       0.0
 1 C  dx2y2           0.3       0.0       0.1       0.2       0.0       0.0
 1 C  dxy             0.0       0.2       0.0       0.0       0.0       0.0
 2 C  s               4.8       6.7       0.6       1.6       0.4       1.9
 2 C  px              0.2       3.4       4.5       2.2       6.4       0.7
 2 C  py              0.2       0.2       7.8       6.4       0.2       1.3
 2 C  dx2y2           0.1       0.0       0.2       0.0       0.1       0.0
 2 C  dxy             0.0       0.0       0.0       0.0       0.0       0.3
 3 C  s               0.7       4.2       3.7       0.1       2.1       1.9
 3 C  px              4.9       7.0       1.6       0.4       0.8       7.5
 3 C  py              1.2       0.1       6.3       7.0       1.0       4.3
 3 C  dx2y2           0.1       0.0       0.0       0.1       0.0       0.2
 3 C  dxy             0.1       0.0       0.0       0.0       0.0       0.2
 4 C  s               8.0       0.0       4.4       0.1       0.0       0.4
 4 C  pz              0.0       0.0       0.0       0.2       0.0       0.2
 4 C  px              0.4       0.0       1.0      16.3       0.0       1.4
 4 C  py              0.0      16.5       0.0       0.0       0.9       0.0
 4 C  dx2y2           0.1       0.0       0.1       0.1       0.0       0.9
 4 C  dxy             0.0       0.0       0.0       0.0       0.5       0.0
 5 C  s               0.7       4.1       3.7       0.1       2.1       1.9
 5 C  px              4.9       7.0       1.7       0.4       0.8       7.7
 5 C  py              1.2       0.1       6.3       7.1       1.0       4.4
 5 C  dx2y2           0.1       0.0       0.0       0.1       0.0       0.2
 5 C  dxy             0.1       0.0       0.0       0.0       0.0       0.2
 6 C  s               4.8       6.7       0.6       1.6       0.4       1.9
 6 C  px              0.1       3.4       4.5       2.2       6.4       0.8
 6 C  py              0.2       0.2       7.8       6.4       0.2       1.3
 6 C  dx2y2           0.1       0.0       0.2       0.0       0.1       0.0
 6 C  dxy             0.0       0.0       0.0       0.0       0.0       0.3
 7 N  s               2.3       0.0       0.3       0.1       0.0       0.5
 7 N  pz              0.3       0.0       0.3       0.8       0.0       0.4
 7 N  px              7.0       0.0      10.6      22.2       0.0       5.2
 7 N  py              0.0       8.7       0.0       0.0      39.3       0.0
 7 N  dyz             0.0       0.0       0.0       0.0       0.2       0.0
 7 N  dx2y2           0.1       0.0       0.1       0.2       0.0       0.0
 7 N  dxy             0.0       0.0       0.0       0.0       0.2       0.0
 8 H  s               5.6       0.2       1.8       0.3       0.5       1.8
 9 H  s               5.7       0.0       1.7       0.4       0.0       1.4
10 H  s               5.6       0.1       1.8       0.3       0.4       1.7
11 H  s               0.9       3.7       1.2       5.2       0.8       1.8
12 H  s               0.2       3.0       3.4       1.8       0.9       9.4
13 H  s               0.2       3.0       3.4       1.8       0.9       9.6
14 H  s               1.0       3.7       1.2       5.2       0.8       1.8
15 H  s               2.0       1.9       1.8       2.9      11.6       0.6
16 H  s               2.0       1.9       1.8       2.9      11.6       0.7

                     18        19        20        21        22        23   
                  -0.38895  -0.37254  -0.36573  -0.36372  -0.33036  -0.32878
                   2.00000   2.00000   2.00000   2.00000   2.00000   2.00000
                  --------  --------  --------  --------  --------  --------
 0 C  s               0.0       0.2       0.0       0.0       0.0       0.0
 0 C  pz              0.0       6.2      37.2       0.0       8.2       0.0
 0 C  px              0.0       4.1       1.6       0.0       0.7       0.0
 0 C  py             13.8       0.0       0.0       0.7       0.0      35.5
 0 C  dz2             0.0       0.1       0.2       0.0       0.1       0.0
 0 C  dyz             0.1       0.0       0.0       0.0       0.0       0.4
 0 C  dx2y2           0.0       0.0       0.1       0.0       0.0       0.0
 0 C  dxy             0.0       0.0       0.0       0.0       0.0       0.4
 1 C  s               0.0       0.3       0.1       0.0       0.0       0.0
 1 C  pz              0.0       2.1      11.9       0.0       0.5       0.0
 1 C  px              0.0       6.9       1.7       0.0       0.7       0.0
 1 C  py              8.6       0.0       0.0       2.3       0.0       1.0
 1 C  dxz             0.0       0.0       0.1       0.0       0.2       0.0
 1 C  dxy             0.0       0.0       0.0       0.6       0.0       0.2
 2 C  s               0.4       0.1       0.0       0.6       0.0       0.3
 2 C  pz              0.0       0.7       3.2       0.0       4.0       0.0
 2 C  px              5.9       3.7       0.5       3.2       0.0       5.3
 2 C  py              2.8       7.5       1.7      10.0       0.0       0.2
 2 C  dx2y2           0.0       0.0       0.0       0.2       0.0       0.1
 2 C  dxy             0.0       0.3       0.1       0.0       0.0       0.0
 3 C  s               0.3       0.1       0.0       0.4       0.0       0.1
 3 C  pz              0.0       0.7       1.2       0.0      12.6       0.0
 3 C  px              9.9       0.7       0.1       3.6       0.0       3.7
 3 C  py              1.0       4.7       0.8      13.4       0.1       1.2
 3 C  dyz             0.0       0.0       0.0       0.0       0.1       0.0
 3 C  dx2y2           0.1       0.2       0.0       0.2       0.0       0.0
 3 C  dxy             0.0       0.3       0.1       0.0       0.0       0.1
 4 C  s               0.0       2.3       0.4       0.0       0.0       0.0
 4 C  pz              0.0       1.5       1.1       0.0      29.5       0.0
 4 C  px              0.0       7.8       1.7       0.0       0.5       0.0
 4 C  py              8.8       0.0       0.0       3.7       0.0       4.6
 4 C  dx2y2           0.0       0.2       0.0       0.0       0.0       0.0
 4 C  dxy             0.3       0.0       0.0       0.6       0.0       0.0
 5 C  s               0.3       0.1       0.0       0.4       0.0       0.1
 5 C  pz              0.0       0.7       1.2       0.0      12.6       0.0
 5 C  px              9.5       0.8       0.1       3.6       0.0       3.8
 5 C  py              0.9       4.8       1.0      13.0       0.0       1.1
 5 C  dyz             0.0       0.0       0.0       0.0       0.1       0.0
 5 C  dx2y2           0.1       0.2       0.0       0.2       0.0       0.0
 5 C  dxy             0.0       0.3       0.1       0.0       0.0       0.1
 6 C  s               0.4       0.1       0.0       0.6       0.0       0.3
 6 C  pz              0.0       0.8       3.3       0.0       3.9       0.0
 6 C  px              5.6       3.9       0.5       3.3       0.0       5.4
 6 C  py              2.9       7.2       1.4      10.3       0.0       0.1
 6 C  dx2y2           0.0       0.0       0.0       0.2       0.0       0.1
 6 C  dxy             0.0       0.3       0.1       0.0       0.0       0.0
 7 N  s               0.0       0.3       0.0       0.0       0.6       0.0
 7 N  pz              0.0       1.3       0.1       0.0      17.2       0.0
 7 N  px              0.0       4.5       1.2       0.0       1.2       0.0
 7 N  py              9.9       0.0       0.0       0.0       0.0       0.9
 7 N  dxz             0.0       0.0       0.0       0.0       0.1       0.0
 7 N  dxy             0.4       0.0       0.0       0.0       0.0       0.1
 8 H  s               4.0       0.0       4.0       0.4       0.4      15.8
 9 H  s               0.0       5.4      12.8       0.0       5.1       0.1
10 H  s               3.4       0.1       6.8       0.3       0.9      12.9
11 H  s               0.2       7.0       1.3       5.6       0.0       2.2
12 H  s               0.6       1.8       0.3       8.4       0.0       0.1
13 H  s               0.6       1.8       0.4       8.2       0.0       0.0
14 H  s               0.3       6.9       1.2       5.9       0.0       2.1
15 H  s               4.5       0.4       0.1       0.0       0.0       0.7
16 H  s               4.4       0.5       0.1       0.0       0.0       0.7

                     24        25        26        27        28        29   
                  -0.30045  -0.28568  -0.25856  -0.21697  -0.16455  -0.02296
                   2.00000   2.00000   2.00000   2.00000   2.00000   0.00000
                  --------  --------  --------  --------  --------  --------
 0 C  s               0.7       0.0       0.0       0.0       0.0       0.0
 0 C  pz              0.0       0.0       4.0       0.0       0.7       0.0
 0 C  px             23.1       0.0       0.0       0.0       0.0       0.0
 0 C  py              0.0       2.4       0.0       0.0       0.0       0.3
 0 C  dxz             0.0       0.0       0.3       0.0       0.4       0.0
 0 C  dx2y2           0.2       0.0       0.0       0.0       0.0       0.0
 0 C  dxy             0.0       0.3       0.0       0.0       0.0       0.0
 1 C  pz              0.2       0.0      15.1       0.0      20.0       0.0
 1 C  px             18.1       0.0       0.0       0.0       0.0       0.0
 1 C  py              0.0      13.9       0.0       0.0       0.0       0.0
 1 C  dxz             0.0       0.0       0.3       0.0       0.0       0.0
 1 C  dyz             0.0       0.0       0.0       0.7       0.0       1.6
 1 C  dx2y2           1.2       0.0       0.0       0.0       0.0       0.0
 1 C  dxy             0.0       0.6       0.0       0.0       0.0       0.0
 2 C  s               0.1       0.2       0.0       0.0       0.0       0.0
 2 C  pz              0.3       0.0      15.0      24.0       2.6      22.6
 2 C  px              9.3       0.3       0.1       0.0       0.0       0.0
 2 C  py              0.4      10.6       0.0       0.0       0.0       0.0
 2 C  dxz             0.0       0.0       0.0       0.2       0.4       0.7
 2 C  dyz             0.0       0.0       0.1       0.0       0.2       0.0
 2 C  dx2y2           0.6       0.1       0.0       0.0       0.0       0.0
 2 C  dxy             0.0       0.8       0.0       0.0       0.0       0.0
 3 C  s               0.2       0.1       0.0       0.0       0.0       0.0
 3 C  pz              0.2       0.0       1.5      24.6      12.1      23.3
 3 C  px              8.7       0.1       0.1       0.0       0.0       0.0
 3 C  py              0.0       7.4       0.0       0.0       0.0       0.0
 3 C  dxz             0.0       0.0       0.3       0.2       0.1       0.6
 3 C  dx2y2           0.1       0.1       0.0       0.0       0.0       0.0
 3 C  dxy             0.0       0.9       0.0       0.0       0.0       0.0
 4 C  pz              0.2       0.0       5.6       0.0       9.5       0.0
 4 C  px              1.1       0.0       0.3       0.0       0.1       0.0
 4 C  py              0.0       9.7       0.0       0.0       0.0       0.0
 4 C  dxz             0.0       0.0       0.6       0.0       1.0       0.0
 4 C  dyz             0.0       0.0       0.0       0.7       0.0       1.6
 4 C  dx2y2           0.7       0.0       0.0       0.0       0.0       0.0
 4 C  dxy             0.0       0.3       0.0       0.0       0.0       0.0
 5 C  s               0.2       0.1       0.0       0.0       0.0       0.0
 5 C  pz              0.2       0.0       1.5      24.9      11.8      22.6
 5 C  px              8.6       0.1       0.1       0.0       0.0       0.0
 5 C  py              0.0       7.4       0.0       0.0       0.0       0.0
 5 C  dxz             0.0       0.0       0.3       0.2       0.1       0.7
 5 C  dx2y2           0.1       0.1       0.0       0.0       0.0       0.0
 5 C  dxy             0.0       0.9       0.0       0.0       0.0       0.0
 6 C  s               0.1       0.2       0.0       0.0       0.0       0.0
 6 C  pz              0.3       0.0      14.7      24.2       2.6      24.4
 6 C  px              9.1       0.3       0.1       0.0       0.0       0.0
 6 C  py              0.4      10.7       0.0       0.0       0.0       0.0
 6 C  dxz             0.0       0.0       0.0       0.2       0.4       0.6
 6 C  dyz             0.0       0.0       0.1       0.0       0.2       0.0
 6 C  dx2y2           0.6       0.1       0.0       0.0       0.0       0.0
 6 C  dxy             0.0       0.8       0.0       0.0       0.0       0.0
 7 N  s               0.5       0.0       1.0       0.0       1.3       0.0
 7 N  pz              0.0       0.0      32.3       0.0      32.0       0.0
 7 N  px              1.9       0.0       1.2       0.0       0.8       0.0
 7 N  py              0.0       0.1       0.0       0.0       0.0       0.1
 7 N  dxz             0.0       0.0       0.0       0.0       0.1       0.0
 7 N  dxy             0.0       0.1       0.0       0.0       0.0       0.0
 8 H  s               1.4       2.0       0.6       0.0       0.3       0.2
 9 H  s               0.8       0.0       3.6       0.0       1.9       0.0
10 H  s               1.6       1.7       1.0       0.0       0.6       0.3
11 H  s               2.0       6.9       0.0       0.0       0.0       0.0
12 H  s               1.9       6.5       0.0       0.0       0.0       0.0
13 H  s               1.9       6.4       0.0       0.0       0.0       0.0
14 H  s               1.9       7.0       0.0       0.0       0.0       0.0
15 H  s               0.3       0.5       0.0       0.0       0.3       0.1
16 H  s               0.2       0.5       0.0       0.0       0.3       0.1

                     30        31        32        33        34        35   
                  -0.00414   0.03630   0.05526   0.06623   0.07751   0.10165
                   0.00000   0.00000   0.00000   0.00000   0.00000   0.00000
                  --------  --------  --------  --------  --------  --------
 0 C  s               0.0       0.1       6.7       0.0      16.4       0.0
 0 C  pz              0.2       0.0       0.1       0.0       0.4       0.0
 0 C  px              0.0       0.1       5.1       0.0       1.2       0.0
 0 C  py              0.0       0.0       0.0       1.3       0.0       7.4
 0 C  dxz             0.9       0.0       0.0       0.0       0.0       0.0
 0 C  dyz             0.0       0.0       0.0       0.0       0.0       0.2
 0 C  dx2y2           0.0       0.0       0.2       0.0       0.0       0.0
 1 C  s               0.0       0.1       0.6       0.0       0.1       0.0
 1 C  pz             27.0       1.0       0.0       0.0       0.0       0.0
 1 C  px              0.0       0.0       0.4       0.0       0.4       0.0
 1 C  py              0.0       0.0       0.0       0.8       0.0       1.0
 1 C  dz2             0.0       0.0       0.0       0.0       0.2       0.0
 1 C  dxz             0.3       0.0       0.0       0.0       0.0       0.0
 1 C  dx2y2           0.0       0.1       0.6       0.0       0.5       0.0
 1 C  dxy             0.0       0.0       0.0       0.4       0.0       0.7
 2 C  s               0.0       0.0       3.6       0.3       0.6       0.8
 2 C  pz              8.8       0.5       0.0       0.0       0.0       0.2
 2 C  px              0.0       0.3       1.0       0.4       0.1       0.4
 2 C  py              0.0       0.0       2.2       2.0       0.4       4.5
 2 C  dxz             0.5       0.0       0.0       0.0       0.0       0.0
 2 C  dyz             0.6       0.0       0.0       0.0       0.0       0.0
 2 C  dx2y2           0.0       0.0       0.0       0.0       0.3       0.0
 2 C  dxy             0.0       0.1       0.2       0.4       0.2       0.0
 3 C  s               0.0       1.5       0.9       0.7       1.9       0.1
 3 C  pz              3.6       0.0       0.1       0.0       0.1       0.1
 3 C  px              0.0       0.9       0.5       0.6       0.5       0.0
 3 C  py              0.0       0.8       0.7       4.9       1.3       0.1
 3 C  dz2             0.0       0.0       0.0       0.0       0.1       0.0
 3 C  dxz             0.7       0.0       0.0       0.0       0.0       0.0
 3 C  dyz             0.6       0.0       0.0       0.0       0.0       0.0
 3 C  dx2y2           0.0       0.1       0.2       0.0       0.3       0.0
 3 C  dxy             0.0       0.0       0.3       0.3       0.1       0.1
 4 C  s               0.1       0.2       0.3       0.0       0.2       0.0
 4 C  pz             27.6       0.3       0.2       0.0       0.1       0.0
 4 C  px              0.1       0.1       0.4       0.0       0.8       0.0
 4 C  py              0.0       0.0       0.0       1.1       0.0       0.0
 4 C  dx2y2           0.0       0.0       0.8       0.0       0.9       0.0
 4 C  dxy             0.0       0.0       0.0       1.3       0.0       0.4
 5 C  s               0.0       1.5       0.8       0.7       2.0       0.2
 5 C  pz              4.7       0.0       0.1       0.0       0.1       0.2
 5 C  px              0.0       0.9       0.5       0.6       0.5       0.1
 5 C  py              0.0       0.8       0.7       4.9       1.5       0.1
 5 C  dz2             0.0       0.0       0.0       0.0       0.1       0.0
 5 C  dxz             0.6       0.0       0.0       0.0       0.0       0.0
 5 C  dyz             0.6       0.0       0.0       0.0       0.0       0.0
 5 C  dx2y2           0.0       0.1       0.2       0.0       0.3       0.0
 5 C  dxy             0.0       0.0       0.3       0.3       0.1       0.1
 6 C  s               0.0       0.0       3.6       0.3       0.6       0.8
 6 C  pz              7.1       0.5       0.0       0.0       0.0       0.2
 6 C  px              0.0       0.3       1.0       0.4       0.1       0.3
 6 C  py              0.0       0.0       2.0       2.0       0.4       4.1
 6 C  dxz             0.5       0.0       0.0       0.0       0.0       0.0
 6 C  dyz             0.6       0.0       0.0       0.0       0.0       0.0
 6 C  dx2y2           0.0       0.0       0.0       0.0       0.3       0.0
 6 C  dxy             0.0       0.1       0.2       0.4       0.2       0.0
 7 N  s               1.1      14.5       1.7       0.0       2.5       0.0
 7 N  pz              5.5       2.4       0.1       0.0       0.2       0.0
 7 N  px              0.7       4.6       0.1       0.0       0.1       0.0
 7 N  py              0.0       0.0       0.0       8.5       0.0       8.3
 7 N  dxz             0.5       0.0       0.0       0.0       0.0       0.0
 7 N  dxy             0.0       0.0       0.0       0.2       0.0       0.1
 8 H  s               0.6       0.1       9.3       1.5       8.8      10.3
 9 H  s               3.0       0.1       5.4       0.0      18.3       0.2
10 H  s               1.0       0.1       8.4       1.7      10.0       7.8
11 H  s               0.0       0.1      14.8       5.5       1.8      13.1
12 H  s               0.1       5.7       4.5      12.4       8.6       0.2
13 H  s               0.1       5.7       4.2      12.6       9.3       0.2
14 H  s               0.0       0.1      14.3       5.7       1.9      12.2
15 H  s               1.0      27.6       1.3      13.7       2.0      13.3
16 H  s               0.9      27.7       1.2      13.8       2.6      11.9

                     36        37        38        39        40        41   
                   0.10971   0.12882   0.13399   0.15186   0.15909   0.20370
                   0.00000   0.00000   0.00000   0.00000   0.00000   0.00000
                  --------  --------  --------  --------  --------  --------
 0 C  s               0.1       0.4       2.9       0.0       0.6       1.2
 0 C  pz             13.8       0.0       0.1       0.0      12.8       0.2
 0 C  px              0.0       0.1       1.0       0.0       0.5      21.6
 0 C  py              0.0      12.0       1.7       4.1       0.0       0.0
 0 C  dz2             0.5       0.0       0.1       0.0       0.5       1.2
 0 C  dxz             0.4       0.0       0.1       0.0       0.1       0.0
 0 C  dyz             0.0       0.6       0.1       0.5       0.0       0.0
 0 C  dx2y2           0.2       0.1       0.2       0.0       0.0       5.4
 0 C  dxy             0.0       0.3       0.0       0.5       0.0       0.0
 1 C  s               0.3       0.1       0.5       0.0       0.1      20.1
 1 C  pz              2.0       0.4       2.6       0.0      10.6       0.0
 1 C  px              0.0       0.2       1.8       0.0       0.7       3.7
 1 C  py              0.0       0.1       0.0       0.5       0.0       0.0
 1 C  dz2             0.1       0.0       0.0       0.0       0.1       2.8
 1 C  dxz             0.8       0.0       0.0       0.0       0.0       0.0
 1 C  dx2y2           0.0       0.1       1.0       0.0       0.4       0.1
 1 C  dxy             0.0       0.4       0.1       0.5       0.0       0.0
 2 C  s               0.0       0.2       1.7       4.6       0.4       2.2
 2 C  pz              4.2       0.9       1.9       0.1       7.3       0.0
 2 C  px              0.1       0.2       1.6       0.3       0.8       1.1
 2 C  py              0.1       0.1       1.9       1.8       0.2       0.4
 2 C  dz2             0.0       0.0       0.1       0.3       0.0       0.1
 2 C  dxz             0.2       0.0       0.0       0.0       0.0       0.0
 2 C  dyz             0.0       0.0       0.1       0.0       0.5       0.0
 2 C  dx2y2           0.0       0.0       0.3       0.1       0.3       0.1
 2 C  dxy             0.0       0.0       0.0       0.0       0.0       2.1
 3 C  s               0.4       2.5       0.4       4.1       0.0       0.6
 3 C  pz              8.2       0.4       2.0       0.0       5.1       0.0
 3 C  px              0.2       1.5       0.6       0.3       0.3       1.2
 3 C  py              0.3       3.1       0.2       1.4       0.1       1.3
 3 C  dz2             0.0       0.1       0.0       0.3       0.0       0.0
 3 C  dxz             0.0       0.0       0.0       0.0       0.1       0.0
 3 C  dyz             0.4       0.0       0.1       0.0       0.2       0.0
 3 C  dx2y2           0.1       0.1       0.1       0.2       0.0       0.5
 3 C  dxy             0.0       0.0       0.0       0.1       0.0       1.4
 4 C  s               0.2       0.0       0.2       0.0       0.2       7.6
 4 C  pz             10.6       0.4       2.5       0.0       5.8       0.1
 4 C  px              0.4       0.2       1.1       0.0       0.4       0.2
 4 C  py              0.0       0.7       0.2       1.0       0.0       0.0
 4 C  dz2             0.0       0.0       0.0       0.0       0.0       1.8
 4 C  dx2y2           0.2       0.1       0.6       0.0       0.2       0.0
 4 C  dxy             0.0       0.1       0.0       0.6       0.0       0.0
 5 C  s               0.4       0.4       2.8       3.9       0.0       0.6
 5 C  pz              7.4       0.2       2.1       0.2       5.4       0.0
 5 C  px              0.1       0.3       2.0       0.1       0.3       1.2
 5 C  py              0.3       0.8       2.8       1.2       0.1       1.3
 5 C  dz2             0.0       0.0       0.1       0.3       0.0       0.0
 5 C  dxz             0.0       0.0       0.0       0.0       0.1       0.0
 5 C  dyz             0.4       0.0       0.1       0.0       0.2       0.0
 5 C  dx2y2           0.1       0.0       0.1       0.2       0.0       0.5
 5 C  dxy             0.0       0.0       0.1       0.1       0.0       1.4
 6 C  s               0.0       1.5       1.1       3.6       0.3       2.4
 6 C  pz              3.5       0.2       2.5       0.3       8.1       0.0
 6 C  px              0.1       1.1       0.9       0.3       0.8       1.2
 6 C  py              0.2       1.3       1.7       1.4       0.2       0.4
 6 C  dz2             0.0       0.1       0.1       0.2       0.0       0.1
 6 C  dxz             0.2       0.0       0.0       0.0       0.0       0.0
 6 C  dyz             0.0       0.0       0.1       0.0       0.5       0.0
 6 C  dx2y2           0.0       0.0       0.1       0.3       0.3       0.1
 6 C  dxy             0.0       0.0       0.0       0.0       0.0       2.2
 7 N  s               0.5       0.1       0.7       0.0       0.3       0.6
 7 N  pz              1.6       0.0       0.1       0.0       0.5       0.0
 7 N  px              0.1       0.0       0.1       0.0       0.3       0.9
 7 N  py              0.0       3.1       0.5       2.0       0.0       0.0
 7 N  dxz             0.3       0.0       0.1       0.0       0.2       0.0
 7 N  dx2y2           0.0       0.0       0.0       0.0       0.0       0.4
 7 N  dxy             0.0       0.2       0.0       0.5       0.0       0.0
 8 H  s               3.6      12.9       6.6       5.6       5.8       0.8
 9 H  s              25.0       0.5       1.7       0.0      14.9       0.9
10 H  s               6.6      17.6       0.2       4.8       7.9       0.8
11 H  s               0.1       0.0      11.1      13.9       1.9       2.8
12 H  s               1.6      15.7       3.1      12.4       0.7       0.7
13 H  s               1.5       2.1      18.9       9.8       0.6       0.7
14 H  s               0.6       6.5       9.6      10.4       1.5       3.0
15 H  s               0.6       3.3       2.8       3.2       0.2       0.1
16 H  s               1.2       6.3       0.0       3.5       0.2       0.1

                     42        43        44        45        46        47   
                   0.25358   0.27243   0.27352   0.29259   0.30323   0.34461
                   0.00000   0.00000   0.00000   0.00000   0.00000   0.00000
                  --------  --------  --------  --------  --------  --------
 0 C  s               0.1       0.7       0.2       0.0       0.0       0.0
 0 C  pz              0.4       1.7       1.5       0.0       0.0       2.6
 0 C  px              9.4       3.0       4.7       0.0       0.0       1.3
 0 C  py              0.0       0.1       0.1       1.9       2.2       0.2
 0 C  dz2             0.8       0.1       1.1       0.0       0.0       0.6
 0 C  dyz             0.0       0.0       0.0       0.3       0.0       0.0
 0 C  dx2y2           1.8       1.0       0.3       0.0       0.0       0.0
 0 C  dxy             0.0       0.0       0.0       0.7       1.6       0.0
 1 C  s               0.4       6.1       2.1       0.0       0.0      13.8
 1 C  pz              0.1       0.0       0.1       0.0       0.0       0.2
 1 C  px              6.2       2.0       6.4       0.0       0.0       1.3
 1 C  py              0.0       0.1       0.1      11.1       3.0       0.0
 1 C  dz2             0.0       1.1       0.3       0.0       0.0       2.2
 1 C  dx2y2           0.9       1.3       0.9       0.0       0.0       0.6
 1 C  dxy             0.0       0.0       0.0       1.0       4.3       0.0
 2 C  s               0.3       3.4       0.7       4.2       6.7      11.2
 2 C  pz              0.1       0.1       0.1       0.2       0.1       0.2
 2 C  px              0.8       5.4       1.3       3.0       3.3       1.9
 2 C  py              0.7       0.7       1.5       4.3       2.1       1.6
 2 C  dz2             0.1       0.8       0.4       0.7       2.0       0.5
 2 C  dx2y2           1.2       1.6       2.1       0.6       2.1       0.6
 2 C  dxy             0.1       0.0       0.3       4.0       0.1       0.0
 3 C  s               5.0       0.8       7.0       5.9       4.6       5.7
 3 C  pz              0.2       0.0       0.0       0.0       0.0       0.0
 3 C  px              0.0       8.5       1.1       0.4       5.0       1.7
 3 C  py              0.5       2.2       1.5       4.3       2.1       0.6
 3 C  dz2             0.0       0.1       2.4       1.5       1.0       0.5
 3 C  dx2y2           0.4       4.7       1.1       0.0       2.7       1.2
 3 C  dxy             0.9       0.2       0.4       3.6       0.2       0.1
 4 C  s              14.4       9.9      16.1       0.2       0.0       9.0
 4 C  pz              0.5       0.0       0.0       0.0       0.0       0.0
 4 C  px              7.1       3.3       4.5       0.0       0.0       3.8
 4 C  py              0.0       0.0       0.0      11.1       1.3       0.1
 4 C  dz2             5.6       2.2       0.2       0.0       0.0       0.0
 4 C  dxz             0.1       0.0       0.0       0.0       0.0       0.0
 4 C  dx2y2           1.8       3.0       0.6       0.0       0.0       2.0
 4 C  dxy             0.0       0.0       0.0       2.1       3.3       0.0
[...]
 3 C  py              0.3       0.0       0.1       0.3       0.3       0.7
 3 C  dz2             0.3       0.2       0.0       0.4       2.6       2.3
 3 C  dxz             1.6       0.1      10.2       0.0       0.0       0.0
 3 C  dyz             0.0       3.2       3.3       0.0       0.0       0.0
 3 C  dx2y2           2.1       0.1       0.9       4.6      10.5       0.6
 3 C  dxy             2.9       0.0       0.1       7.2       0.0      16.2
 4 C  s               0.4       0.0       0.0       5.7       0.2       0.0
 4 C  px              0.1       0.0       0.0       0.5       0.7       0.0
 4 C  py              0.7       0.0       0.2       0.0       0.0       4.2
 4 C  dz2             0.7       0.0       0.0       4.3       2.5       0.0
 4 C  dxz             0.2      29.6       0.0       0.1       0.3       0.0
 4 C  dyz             0.1       0.0      14.8       0.0       0.0       0.0
 4 C  dx2y2           1.0       0.0       0.0       1.3       5.6       0.0
 4 C  dxy             0.5       0.0       1.0       0.0       0.0       1.5
 5 C  s               0.3       0.0       0.0       0.1       1.4       2.2
 5 C  pz              0.0       0.1       0.0       0.0       0.0       0.0
 5 C  px              0.5       0.0       0.1       2.4       0.7       0.4
 5 C  py              0.0       0.0       0.0       0.3       0.3       0.7
 5 C  dz2             0.2       0.2       0.0       0.4       2.5       2.4
 5 C  dxz             1.4       0.1      10.2       0.0       0.0       0.0
 5 C  dyz             0.2       3.2       3.3       0.0       0.0       0.0
 5 C  dx2y2           3.6       0.1       0.8       4.6      10.3       0.9
 5 C  dxy             0.1       0.0       0.0       7.7       0.0      15.8
 6 C  s               0.4       0.1       0.3       0.1       0.8       0.8
 6 C  px              0.5       0.0       0.0       1.2       2.6       0.5
 6 C  py              0.0       0.0       0.1       0.1       0.1       0.3
 6 C  dz2             0.0       0.4       0.2       0.2       1.3       1.7
 6 C  dxz             3.0       0.1       9.6       0.0       0.0       0.0
 6 C  dyz             1.4       0.4       3.0       0.0       0.0       0.0
 6 C  dx2y2           0.1       0.0       0.0      14.3       0.7       4.2
 6 C  dxy             0.1       0.0       0.2       2.5       3.9      11.7
 7 N  s               0.1       0.3       0.0       0.3       1.3       0.0
 7 N  pz              0.0       0.4       0.0       0.0       0.0       0.0
 7 N  px              0.1       0.0       0.0       0.1       0.4       0.0
 7 N  py              2.8       0.0       1.1       0.0       0.0       0.0
 7 N  dz2             0.9       4.7       0.0       2.1       5.4       0.0
 7 N  dxz             0.4      50.0       0.0       0.1       0.4       0.0
 7 N  dyz            18.1       0.0       9.6       0.0       0.0       0.2
 7 N  dx2y2           0.2       0.6       0.0       1.7       0.5       0.0
 7 N  dxy            11.3       0.0       1.3       0.0       0.0       0.4
11 H  s               0.0       0.0       0.0       0.1       0.2       0.6
12 H  s               0.1       0.0       0.0       0.0       0.0       0.6
13 H  s               0.0       0.0       0.0       0.0       0.0       0.6
14 H  s               0.0       0.0       0.0       0.1       0.2       0.6
15 H  s               2.8       0.6       0.8       0.0       0.1       0.0
16 H  s               2.5       0.6       0.8       0.0       0.1       0.0

                    126       127       128       129   
                   2.82843   2.92840   3.04085   3.36110
                   0.00000   0.00000   0.00000   0.00000
                  --------  --------  --------  --------
 0 C  s               0.0       0.1       0.0       0.1
 0 C  px              0.0       0.3       0.0       0.3
 0 C  py              0.1       0.0       0.0       0.0
 0 C  dx2y2           0.0       0.9       0.0       0.8
 0 C  dxy             3.4       0.0       1.2       0.0
 1 C  s               0.0       0.0       0.0       0.8
 1 C  px              0.0       0.1       0.0       0.2
 1 C  py              3.8       0.0       1.0       0.0
 1 C  dz2             0.0       0.1       0.0       0.3
 1 C  dx2y2           0.0       9.4       0.0      13.6
 1 C  dxy            28.3       0.0       8.4       0.0
 2 C  s               1.1       0.5       0.1       1.1
 2 C  px              0.6       0.0       1.7       0.0
 2 C  py              1.6       0.1       0.4       0.1
 2 C  dz2             0.3       0.6       0.0       0.5
 2 C  dx2y2           5.8       2.7       5.8       3.3
 2 C  dxy             4.9       1.3       1.0       9.1
 3 C  s               0.8       0.2       0.1       1.1
 3 C  px              0.1       0.5       1.9       0.0
 3 C  py              0.5       0.0       1.1       0.1
 3 C  dz2             0.0       0.5       0.0       0.5
 3 C  dx2y2           0.6       0.0       9.7       3.7
 3 C  dxy             0.5       0.0       1.6       9.2
 4 C  s               0.0       4.6       0.0       0.2
 4 C  px              0.0       3.6       0.0       0.7
 4 C  py              0.0       0.0       1.5       0.0
 4 C  dz2             0.0       4.0       0.0       0.1
 4 C  dxz             0.0       0.1       0.0       0.0
 4 C  dyz             0.3       0.0       0.1       0.0
 4 C  dx2y2           0.0      10.5       0.0      17.8
 4 C  dxy            11.8       0.0      25.7       0.0
 5 C  s               0.8       0.3       0.1       1.1
 5 C  px              0.1       0.5       1.9       0.0
 5 C  py              0.5       0.0       1.1       0.1
 5 C  dz2             0.0       0.5       0.0       0.5
 5 C  dx2y2           0.6       0.0       9.7       3.7
 5 C  dxy             0.5       0.0       1.6       9.2
 6 C  s               1.1       0.5       0.1       1.1
 6 C  px              0.6       0.0       1.7       0.0
 6 C  py              1.6       0.1       0.4       0.1
 6 C  dz2             0.3       0.6       0.0       0.5
 6 C  dx2y2           5.7       2.7       5.8       3.2
 6 C  dxy             4.8       1.4       0.9       9.1
 7 N  s               0.0       3.4       0.0       0.4
 7 N  px              0.0       4.5       0.0       0.9
 7 N  py              0.2       0.0       0.1       0.0
 7 N  dz2             0.0       9.9       0.0       0.3
 7 N  dxz             0.0       0.5       0.0       0.1
 7 N  dyz             1.2       0.0       0.2       0.0
 7 N  dx2y2           0.0      34.2       0.0       4.0
 7 N  dxy            15.6       0.0      14.4       0.0
11 H  s               0.0       0.1       0.0       0.5
12 H  s               0.0       0.0       0.0       0.5
13 H  s               0.0       0.0       0.0       0.5
14 H  s               0.0       0.1       0.0       0.5
15 H  s               0.8       0.2       0.4       0.0
16 H  s               0.8       0.2       0.4       0.0


                      *****************************
                      * MAYER POPULATION ANALYSIS *
                      *****************************

  NA   - Mulliken gross atomic population
  ZA   - Total nuclear charge
  QA   - Mulliken gross atomic charge
  VA   - Mayer's total valence
  BVA  - Mayer's bonded valence
  FA   - Mayer's free valence

  ATOM       NA         ZA         QA         VA         BVA        FA
  0 C      6.2239     6.0000    -0.2239     3.9026     3.9026     0.0000
  1 C      5.9416     6.0000     0.0584     3.9888     3.9888     0.0000
  2 C      6.1268     6.0000    -0.1268     3.8694     3.8694    -0.0000
  3 C      6.1263     6.0000    -0.1263     3.7893     3.7893     0.0000
  4 C      5.8364     6.0000     0.1636     4.0453     4.0453    -0.0000
  5 C      6.1262     6.0000    -0.1262     3.7911     3.7911     0.0000
  6 C      6.1253     6.0000    -0.1253     3.8659     3.8659     0.0000
  7 N      7.3371     7.0000    -0.3371     3.0905     3.0905     0.0000
  8 H      0.9015     1.0000     0.0985     0.9622     0.9622     0.0000
  9 H      0.8871     1.0000     0.1129     0.9481     0.9481     0.0000
 10 H      0.8990     1.0000     0.1010     0.9592     0.9592     0.0000
 11 H      0.9707     1.0000     0.0293     0.9588     0.9588    -0.0000
 12 H      0.9836     1.0000     0.0164     0.9603     0.9603    -0.0000
 13 H      0.9833     1.0000     0.0167     0.9602     0.9602     0.0000
 14 H      0.9710     1.0000     0.0290     0.9585     0.9585    -0.0000
 15 H      0.7801     1.0000     0.2199     0.9209     0.9209    -0.0000
 16 H      0.7801     1.0000     0.2199     0.9209     0.9209     0.0000

  Mayer bond orders larger than 0.100000
B(  0-C ,  1-C ) :   1.0970 B(  0-C ,  8-H ) :   0.9449 B(  0-C ,  9-H ) :   0.9345 
B(  0-C , 10-H ) :   0.9436 B(  1-C ,  2-C ) :   1.3818 B(  1-C ,  6-C ) :   1.3757 
B(  2-C ,  3-C ) :   1.3765 B(  2-C , 11-H ) :   0.9592 B(  3-C ,  4-C ) :   1.3244 
B(  3-C , 12-H ) :   0.9616 B(  4-C ,  5-C ) :   1.3216 B(  4-C ,  7-N ) :   1.2269 
B(  5-C ,  6-C ) :   1.3809 B(  5-C , 13-H ) :   0.9617 B(  6-C , 14-H ) :   0.9612 
B(  7-N , 15-H ) :   0.8838 B(  7-N , 16-H ) :   0.8838 

-------
TIMINGS
-------

Total SCF time: 0 days 0 hours 0 min 6 sec 

Total time                  ....       6.274 sec
Sum of individual times     ....       5.823 sec  ( 92.8%)

SCF preparation             ....       0.150 sec  (  2.4%)
Fock matrix formation       ....       4.956 sec  ( 79.0%)
  Startup                   ....       0.046 sec  (  0.9% of F)
  Split-RI-J                ....       1.666 sec  ( 33.6% of F)
  XC integration            ....       2.775 sec  ( 56.0% of F)
    XC Preparation          ....       0.000 sec  (  0.0% of XC)
    Basis function eval.    ....       0.866 sec  ( 31.2% of XC)
    Density eval.           ....       0.388 sec  ( 14.0% of XC)
    XC-Functional eval.     ....       0.227 sec  (  8.2% of XC)
    XC-Potential eval.      ....       0.602 sec  ( 21.7% of XC)
Diagonalization             ....       0.000 sec  (  0.0%)
Density matrix formation    ....       0.162 sec  (  2.6%)
Total Energy calculation    ....       0.028 sec  (  0.4%)
Population analysis         ....       0.064 sec  (  1.0%)
Orbital Transformation      ....       0.040 sec  (  0.6%)
Orbital Orthonormalization  ....       0.000 sec  (  0.0%)
DIIS solution               ....       0.279 sec  (  4.5%)
  MO trafo                  ....       0.000 sec  (  0.0 % of DIIS)
  Orb grad                  ....       0.000 sec  (  0.0 % of DIIS)
  Energy W gradient         ....       0.000 sec  (  0.0 % of DIIS)
  DIIS error                ....       0.002 sec  (  0.9 % of DIIS)
  DIIS work                 ....       0.244 sec  ( 87.3 % of DIIS)
  Form Q                    ....       0.000 sec  (  0.0 % of DIIS)
  Form QpQm                 ....       0.000 sec  (  0.0 % of DIIS)
  Exp/Cayley                ....       0.000 sec  (  0.0 % of DIIS)
  Orb update                ....       0.000 sec  (  0.0 % of DIIS)
  Wake-sleep                ....       0.012 sec  (  4.2 % of DIIS)
SOSCF solution              ....       0.143 sec  (  2.3%)
  MO trafo                  ....       0.046 sec  ( 32.6 % of SOSCF)
  Orb grad                  ....       0.002 sec  (  1.6 % of SOSCF)
  Rot update                ....       0.067 sec  ( 46.7 % of SOSCF)
  Step                      ....       0.027 sec  ( 19.1 % of SOSCF)
Finished LeanSCF after   6.3 sec

Maximum memory used throughout the entire LEANSCF-calculation: 12.1 MB


-------------------------------------------------------------------------------
                          DFT DISPERSION CORRECTION                            
                                                                               
                                DFTD4 V3.4.0                                   
-------------------------------------------------------------------------------
The PBE functional is recognized
Active option DFTDOPT                   ...         5   

-------------------------   ----------------
Dispersion correction           -0.016463529
-------------------------   ----------------

------------------   -----------------
gCP correction             0.067666986
------------------   -----------------

-------------------------   --------------------
FINAL SINGLE POINT ENERGY      -326.180442975868
-------------------------   --------------------


------------------------------------------------------------------------------
                              ORCA PROPERTY CALCULATIONS
------------------------------------------------------------------------------

GBWName                                 ... sp.gbw
Number of atoms                         ...     17
Number of basis functions               ...    130
Max core memory                         ...   1024 MB

Electric properties:
Dipole moment                           ... YES
Quadrupole moment                       ...  NO
Static polarizability (Dipole/Dipole)   ...  NO
Static polarizability (Dipole/Quad.)    ...  NO
Static polarizability (Quad./Quad.)     ...  NO
Static polarizability (Velocity)        ...  NO

Atomic electric properties:
Dipole moment                           ...  NO
Quadrupole moment                       ...  NO
Static polarizability                   ...  NO

Choice of electric origin               ... Center of mass
Position of electric origin             ...     0.000009    -0.000000     0.000000

General magnetic properties:
Magnetizability                         ...  NO

EPR properties:
g-Tensor (aka g-matrix)                 ...  NO
Zero-Field splitting spin-orbit         ...  NO
Zero-field splitting spin-spin          ...  NO
Hyperfine couplings                     ...  NO (   0 nuclei)
Quadrupole couplings                    ...  NO (   0 nuclei)
Contact density                         ...  NO (   0 nuclei)

NMR properties:
Chemical shifts                         ...  NO (   0 nuclei)
Spin-rotation constants                 ...  NO (   0 nuclei)
Spin-spin couplings                     ...  NO (   0 nuclei,    0 pairs)

Choice of magnetic origin               ... GIAO
Position of magnetic origin             ...     0.000000     0.000000     0.000000

Properties with geometric perturbations:
SCF Hessian                             ...  NO
IR spectrum                             ...  NO
VCD spectrum                            ...  NO
X-ray spectroscopy properties:
SCF XES/XAS/RIXS spectra                ...  NO


-------------
DIPOLE MOMENT
-------------

Method             : SCF
Type of density    : Electron Density
Multiplicity       :   1
Irrep              :   0
Energy             :  -326.2316464323891978 Eh
Relativity type    : 
Basis              : AO
                                X                 Y                 Z
Electronic contribution:      3.818249626       0.002458481      -0.081543070
Nuclear contribution   :     -3.212402815      -0.009018868       0.398685480
                        -----------------------------------------
Total Dipole Moment    :      0.605846811      -0.006560387       0.317142409
                        -----------------------------------------
Magnitude (a.u.)       :      0.683865999
Magnitude (Debye)      :      1.738249230



--------------------
Rotational spectrum 
--------------------
 
Rotational constants in cm-1:             0.183977             0.049259             0.039169 
Rotational constants in MHz :          5515.485272          1476.746326          1174.259933 

Dipole components along the rotational axes: 
x,y,z [a.u.] :    -0.605847    -0.006560     0.317142 
x,y,z [Debye]:    -1.539941    -0.016675     0.806111 

 

Dipole moment calculation done in   0.0 sec 

Maximum memory used throughout the entire PROP-calculation: 7.7 MB

--------------------------------
SUGGESTED CITATIONS FOR THIS RUN
--------------------------------

Below you find a list of papers that are relevant to this ORCA run
We neither can nor want to force you to cite these papers, but we appreciate if you do
You receive ORCA, which is the product of decades of hard work by many enthusiastic individuals, for free
The only thing we kindly ask in return is that you cite our papers,
We deeply appreciate it, if you show your appreciation for ORCA by not just citing the generic ORCA reference.

Please note that relegating all ORCA citations to the supporting information does *not* help us.
SI sections are not indexed - citations you put there will not count into any citation statistics
But we need these citations in order to attract the funding resources that allow us to do what we are doing

Therefore, if you are a happy ORCA user, please consider citing a few of the papers listed below in the main body of your paper

In addition to the list printed below, the program has created the file sp.bibtex that contains the list in bibtex format
You can import this file easily into all common literature databanks and citation aid programs


List of essential papers. We consider these as the minimum necessary citations

  1. Neese,F.
     Software update: the ORCA program system, version 5.0
     WIRES Comput. Molec. Sci., 2022 12(1)e1606
     doi.org/10.1002/wcms.1606

List of papers to cite with high priority. The work reported in these papers was absolutely
necessary for this run to complete.
Our perspective: the developers of density functionals and basis sets usually get cited in chemistry papers
Good! But without the algorithms to do something with them, the functionals or basis sets would not do anything.
Hence, in our opinion, the algorithm design and method developments papers are equally worthy of getting cited

  1. Neese,F.
     An improvement of the resolution of the identity approximation for the formation of the Coulomb matrix
     J. Comp. Chem., 2003 24(14)1740-1747
     doi.org/10.1002/jcc.10318
  2. Neese,F.
     The SHARK Integral Generation and Digestion System
     J. Comp. Chem., 2022  1-16
     doi.org/10.1002/jcc.26942
  3. Caldeweyher,E.; Bannwarth,C.; Grimme,S.
     Extension of the D3 dispersion coefficient model
     J. Chem. Phys., 2017 147 034112-XXXX
     doi.org/10.1063/1.4993215
  4. Caldeweyher,E.; Ehlert,S.; Hansen,A.; Neugebauer,H.; Spicher,S.; Bannwarth,C.; Grimme,S.
     A generally applicable atomic-charge dependent London dispersion correction
     J. Chem. Phys., 2019 150 154122-XXXX
     doi.org/10.1063/1.5090222
  5. Caldeweyher,E.; Mewes,J.; Ehlert,S.; Grimme,S.
     Extension and evaluation of the D4 London-dispersion model for periodic systems
     Phys. Chem. Chem. Phys., 2020 22(16)8499-8512
     doi.org/10.1039/D0CP00502A

List of suggested additional citations. These are papers that are important in the 'surrounding' of 
of this run, or papers that preceded the highly important papers. If you like your results we are grateful for a citation.

  1. Neese,F.
     The ORCA program system
     WIRES Comput. Molec. Sci., 2012 2(1)73-78
     doi.org/10.1002/wcms.81
  2. Neese,F.
     Software update: the ORCA program system, version 4.0
     WIRES Comput. Molec. Sci., 2018 8(1)1-6
     doi.org/10.1002/wcms.1327
  3. Neese,F.; Wennmohs,F.; Becker,U.; Riplinger,C.
     The ORCA quantum chemistry program package
     J. Chem. Phys., 2020 152 Art. No. L224108
     doi.org/10.1063/5.0004608

List of optional additional citations

  1. Neese,F.
     Approximate second-order SCF convergence for spin unrestricted wavefunctions
     Chem. Phys. Lett., 2000 325(1-3)93-98
     doi.org/10.1016/s0009-2614(00)00662-x

Timings for individual modules:

Sum of individual times          ...        7.604 sec (=   0.127 min)
Startup calculation              ...        0.568 sec (=   0.009 min)   7.5 %
SCF iterations                   ...        6.949 sec (=   0.116 min)  91.4 %
Property calculations            ...        0.087 sec (=   0.001 min)   1.1 %
                             ****ORCA TERMINATED NORMALLY****
TOTAL RUN TIME: 0 days 0 hours 0 minutes 8 seconds 185 msec
