
                                 *****************
                                 * O   R   C   A *
                                 *****************

                                            #,                                       
                                            ###                                      
                                            ####                                     
                                            #####                                    
                                            ######                                   
                                           ########,                                 
                                     ,,################,,,,,                         
                               ,,#################################,,                 
                          ,,##########################################,,             
                       ,#########################################, ''#####,          
                    ,#############################################,,   '####,        
                  ,##################################################,,,,####,       
                ,###########''''           ''''###############################       
              ,#####''   ,,,,##########,,,,          '''####'''          '####       
            ,##' ,,,,###########################,,,                        '##       
           ' ,,###''''                  '''############,,,                           
         ,,##''                                '''############,,,,        ,,,,,,###''
      ,#''                                            '''#######################'''  
     '                                                          ''''####''''         
             ,#######,   #######,   ,#######,      ##                                
            ,#'     '#,  ##    ##  ,#'     '#,    #''#        ,####,   ,####,        
            ##       ##  ##   ,#'  ##            #'  '#       #'       #'  '#        
            ##       ##  #######   ##           ,######,      #####,   #    #        
            '#,     ,#'  ##    ##  '#,     ,#' ,#      #,     #,   #   #,  ,#        
             '#######'   ##     ##  '#######'  #'      '#     '####' # '####'        



                #########################################################
                #                        -***-                          #
                #          Department of theory and spectroscopy        #
                #                                                       #
                #                      Frank Neese                      #
                #                                                       #
                #     Directorship, Architecture, Infrastructure        #
                #                    SHARK, DRIVERS                     #
                #        Core code/Algorithms in most modules           #
                #                                                       #
                #        Max Planck Institute fuer Kohlenforschung      #
                #                Kaiser Wilhelm Platz 1                 #
                #                 D-45470 Muelheim/Ruhr                 #
                #                      Germany                          #
                #                                                       #
                #                  All rights reserved                  #
                #                        -***-                          #
                #########################################################


                         Program Version 6.0.0  -   RELEASE  -


 With contributions from (in alphabetic order):
   Daniel Aravena         : Magnetic Suceptibility
   Michael Atanasov       : Ab Initio Ligand Field Theory (pilot matlab implementation)
   Alexander A. Auer      : GIAO ZORA, VPT2 properties, NMR spectrum
   Ute Becker             : All parallelization in ORCA, NUMFREQ, NUMCALC
   Giovanni Bistoni       : ED, misc. LED, open-shell LED, HFLD
   Martin Brehm           : Molecular dynamics
   Dmytro Bykov           : pre 5.0 version of the SCF Hessian
   Marcos Casanova-Páez   : Triplet and SCS-CIS(D). UHF-(DLPNO)-IP/EA/STEOM-CCSD. UHF-CVS-IP/STEOM-CCSD
   Vijay G. Chilkuri      : MRCI spin determinant printing, contributions to CSF-ICE
   Pauline Colinet        : FMM embedding
   Dipayan Datta          : RHF DLPNO-CCSD density
   Achintya Kumar Dutta   : EOM-CC, STEOM-CC
   Nicolas Foglia         : Exact transition moments, OPA infrastructure, MCD improvements
   Dmitry Ganyushin       : Spin-Orbit,Spin-Spin,Magnetic field MRCI
   Miquel Garcia          : C-PCM and meta-GGA Hessian, CCSD/C-PCM, Gaussian charge scheme
   Tiago L. C. Gouveia    : GS-ROHF, GS-ROCIS
   Yang Guo               : DLPNO-NEVPT2, F12-NEVPT2, CIM, IAO-localization
   Andreas Hansen         : Spin unrestricted coupled pair/coupled cluster methods
   Ingolf Harden          : AUTO-CI MPn and infrastructure 
   Benjamin Helmich-Paris : MC-RPA, TRAH-(SCF,CASSCF), AVAS, COSX integrals, SCF dyn. polar.
   Lee Huntington         : MR-EOM, pCC
   Robert Izsak           : Overlap fitted RIJCOSX, COSX-SCS-MP3, EOM
   Riya Kayal             : Wick's Theorem for AUTO-CI, AUTO-CI UHF-CCSDT
   Emily Kempfer          : AUTO-CI, RHF CISDT and CCSDT
   Christian Kollmar      : KDIIS, OOCD, Brueckner-CCSD(T), CCSD density, CASPT2, CASPT2-K, improved NEVPT2
   Axel Koslowski         : Symmetry handling
   Simone Kossmann        : Meta GGA functionals, TD-DFT gradient, OOMP2, (MP2 Hessian; deprecated post 5.0)
   Lucas Lang             : DCDCAS
   Marvin Lechner         : AUTO-CI (C++ implementation), FIC-MRCC
   Spencer Leger          : CASSCF response
   Dagmar Lenk            : GEPOL surface, SMD, ORCA-2-JSON
   Dimitrios Liakos       : Extrapolation schemes; Compound Job, initial MDCI parallelization
   Dimitrios Manganas     : Further ROCIS development; embedding schemes. LFT, Crystal Embedding
   Dimitrios Pantazis     : SARC Basis sets
   Anastasios Papadopoulos: AUTO-CI, single reference methods and gradients
   Taras Petrenko         : pre 6.0 DFT Hessian and TD-DFT gradient, (ASA, deprecated), ECA, 1-Electron XAS/XES, NRVS
   Peter Pinski           : DLPNO-MP2, DLPNO-MP2 Gradient
   Christoph Reimann      : Effective Core Potentials
   Marius Retegan         : Local ZFS, SOC
   Christoph Riplinger    : Optimizer, TS searches, QM/MM, DLPNO-CCSD(T), (RO)-DLPNO pert. Triples
   Michael Roemelt        : Original ROCIS implementation
   Masaaki Saitow         : Open-shell DLPNO-CCSD energy and density
   Barbara Sandhoefer     : DKH picture change effects
   Kantharuban Sivalingam : CASSCF convergence/infrastructure, NEVPT2 and variants, FIC-MRCI
   Bernardo de Souza      : ESD, SOC TD-DFT
   Georgi Stoychev        : AutoAux, RI-MP2 NMR, DLPNO-MP2 response, X2C
   Van Anh Tran           : RI-MP2 g-tensors
   Willem Van den Heuvel  : Paramagnetic NMR
   Zikuan Wang            : NOTCH, Electric field optimization 
   Frank Wennmohs         : Technical directorship and infrastructure
   Hang Xu                : AUTO-CI-Response properties 


 We gratefully acknowledge several colleagues who have allowed us to
 interface, adapt or use parts of their codes:
   Stefan Grimme, W. Hujo, H. Kruse, P. Pracht,  : VdW corrections, initial TS optimization,
                  C. Bannwarth, S. Ehlert,         DFT functionals, gCP, sTDA/sTD-DF
                  L. Wittmann, M. Mueller
   Ed Valeev, F. Pavosevic, A. Kumar             : LibInt (2-el integral package), F12 methods
   Garnet Chan, S. Sharma, J. Yang, R. Olivares  : DMRG
   Ulf Ekstrom                                   : XCFun DFT Library
   Mihaly Kallay                                 : mrcc  (arbitrary order and MRCC methods)
   Frank Weinhold                                : gennbo (NPA and NBO analysis)
   Simon Mueller                                 : openCOSMO-RS
   Christopher J. Cramer and Donald G. Truhlar   : smd solvation model
   Lars Goerigk                                  : TD-DFT with DH, B97 family of functionals
   V. Asgeirsson, H. Jonsson                     : NEB implementation
   FAccTs GmbH                                   : IRC, NEB, NEB-TS, DLPNO-Multilevel, CI-OPT
                                                   MM, QMMM, 2- and 3-layer-ONIOM, Crystal-QMMM,
                                                   LR-CPCM, SF, NACMEs, symmetry and pop. for TD-DFT,
                                                   nearIR, NL-DFT gradient (VV10), updates on ESD,
                                                   ML-optimized integration grids, MBIS, APM,
                                                   GOAT, DOCKER, SOLVATOR, interface openCOSMO-RS
   S Lehtola, MJT Oliveira, MAL Marques          : LibXC Library
   Liviu Ungur et al                             : ANISO software


 Your calculation uses the libint2 library for the computation of 2-el integrals
 For citations please refer to: http://libint.valeyev.net

 Your ORCA version has been built with support for libXC version: 6.2.2
 For citations please refer to: https://libxc.gitlab.io

 This ORCA versions uses:
   CBLAS   interface :  Fast vector & matrix operations
   LAPACKE interface :  Fast linear algebra routines
   SCALAPACK package :  Parallel linear algebra routines
   Shared memory     :  Shared parallel matrices
   BLAS/LAPACK       :  OpenBLAS 0.3.27  USE64BITINT DYNAMIC_ARCH NO_AFFINITY SapphireRapids SINGLE_THREADED
        Core in use  :  SapphireRapids
   Copyright (c) 2011-2014, The OpenBLAS Project


Your calculation utilizes the geometrical counterpoise correction gCP
Please cite in your paper:
H.Kruse, S. Grimme J.Chem.Phys., 136, (2012), 154101 
   

Your calculation utilizes the DFT-NL dispersion correction.
Cite in your paper:
Vydrov, O. A.; Van Voorhis, T. J. Chem. Phys. 2010, 133, 244103
Hujo, W.; Grimme, S. J. Chem. Theory Comput. 2011, 7, 3866 
   

Your calculation utilizes the SMD solvation module
Please cite in your paper:
A.V. Marenich, C.J. Cramer, D.G. Truhlar J. Phys. Chem. B, 113, (2009), 6378 

================================================================================

----- Orbital basis set information -----
Your calculation utilizes the basis: def2-TZVP
   F. Weigend and R. Ahlrichs, Phys. Chem. Chem. Phys. 7, 3297 (2005).

----- AuxJ basis set information -----
Your calculation utilizes the auxiliary basis: def2/J
   F. Weigend, Phys. Chem. Chem. Phys. 8, 1057 (2006).

================================================================================
                                        WARNINGS
                       Please study these warnings very carefully!
================================================================================


================================================================================
                                       INPUT FILE
================================================================================
NAME = sp_solv.inp
|  1> ! wb97x-v def2-tzvp def2/J RIJCOSX DEFGRID2 scfconv7 GCP(DFT/TZ) printgap
|  2> %output
|  3>     printlevel normal
|  4> end
|  5> %cpcm
|  6>     smd true
|  7>     smdsolvent "water"
|  8> end
|  9> * xyz 0 1
| 10> C 2.5128746031625857 0.06666978408754162 -0.08079302703672506
| 11> C 1.0038691932588963 0.06937509013172907 -0.0027702643568055106
| 12> C 0.3045165407917159 1.2044837098047811 0.12382091485671835
| 13> C -1.1970896611795208 1.279581083623677 0.1300700810699647
| 14> C -1.8345773207740348 -0.02197966663284982 -0.3577475274110174
| 15> C -1.1545929142566174 -1.2196517081269642 0.30239415816913967
| 16> C 0.32433672740074937 -1.2740043156177485 -0.08025322118384633
| 17> H 2.962217131250341 0.5388176546076242 0.7996110473071677
| 18> H 2.871485467734957 0.6135833780679592 -0.9595820468273816
| 19> H 2.903242253170535 -0.9530844935747455 -0.14485281494175897
| 20> H 0.8458567901308359 2.147834131497738 0.2072284175424124
| 21> H -1.5562065797139226 1.5148747652868892 1.1435669825602126
| 22> H -1.5201543027459867 2.120070739933376 -0.49775154141591565
| 23> H -2.909510424974542 -0.019581974270189456 -0.1467059737893944
| 24> H -1.7178474840326774 -0.09865679610691848 -1.4470840095095072
| 25> H -1.2428527611227564 -1.1223493598158236 1.3928585103755127
| 26> H -1.6505087798212297 -2.1553480924256796 0.0220085266331352
| 27> H 0.8605446028455676 -1.9765120837672534 0.5718693775085542
| 28> H 0.4428829882221508 -1.674620724386081 -1.0991649660522533
| 29> *
| 30> 
| 31>                          ****END OF INPUT****
================================================================================

                       ****************************
                       * Single Point Calculation *
                       ****************************

---------------------------------
CARTESIAN COORDINATES (ANGSTROEM)
---------------------------------
  C      2.512875    0.066670   -0.080793
  C      1.003869    0.069375   -0.002770
  C      0.304517    1.204484    0.123821
  C     -1.197090    1.279581    0.130070
  C     -1.834577   -0.021980   -0.357748
  C     -1.154593   -1.219652    0.302394
  C      0.324337   -1.274004   -0.080253
  H      2.962217    0.538818    0.799611
  H      2.871485    0.613583   -0.959582
  H      2.903242   -0.953084   -0.144853
  H      0.845857    2.147834    0.207228
  H     -1.556207    1.514875    1.143567
  H     -1.520154    2.120071   -0.497752
  H     -2.909510   -0.019582   -0.146706
  H     -1.717847   -0.098657   -1.447084
  H     -1.242853   -1.122349    1.392859
  H     -1.650509   -2.155348    0.022009
  H      0.860545   -1.976512    0.571869
  H      0.442883   -1.674621   -1.099165

----------------------------
CARTESIAN COORDINATES (A.U.)
----------------------------
  NO LB      ZA    FRAG     MASS         X           Y           Z
   0 C     6.0000    0    12.011    4.748645    0.125988   -0.152677
   1 C     6.0000    0    12.011    1.897038    0.131100   -0.005235
   2 C     6.0000    0    12.011    0.575453    2.276144    0.233988
   3 C     6.0000    0    12.011   -2.262172    2.418058    0.245797
   4 C     6.0000    0    12.011   -3.466849   -0.041536   -0.676045
   5 C     6.0000    0    12.011   -2.181864   -2.304808    0.571442
   6 C     6.0000    0    12.011    0.612908   -2.407519   -0.151657
   7 H     1.0000    0     1.008    5.597779    1.018218    1.511046
   8 H     1.0000    0     1.008    5.426321    1.159505   -1.813347
   9 H     1.0000    0     1.008    5.486333   -1.801069   -0.273732
  10 H     1.0000    0     1.008    1.598438    4.058818    0.391605
  11 H     1.0000    0     1.008   -2.940804    2.862698    2.161028
  12 H     1.0000    0     1.008   -2.872675    4.006353   -0.940614
  13 H     1.0000    0     1.008   -5.498178   -0.037005   -0.277234
  14 H     1.0000    0     1.008   -3.246261   -0.186434   -2.734592
  15 H     1.0000    0     1.008   -2.348651   -2.120933    2.632121
  16 H     1.0000    0     1.008   -3.119010   -4.073018    0.041590
  17 H     1.0000    0     1.008    1.626194   -3.735067    1.080677
  18 H     1.0000    0     1.008    0.836928   -3.164575   -2.077121

--------------------------------
INTERNAL COORDINATES (ANGSTROEM)
--------------------------------
 C      0   0   0     0.000000000000     0.00000000     0.00000000
 C      1   0   0     1.511023559477     0.00000000     0.00000000
 C      2   1   0     1.339250177384   121.86354060     0.00000000
 C      3   2   1     1.503495877424   124.35151660   176.45180288
 C      4   3   2     1.529188321263   111.87089856   346.20336261
 C      5   4   3     1.527279986487   110.11869881    45.55530836
 C      2   1   3     1.507460184730   116.48273228   179.77261858
 H      1   2   3     1.095419396079   111.55421520    57.79172299
 H      1   2   3     1.095438895044   111.55903293   297.96158300
 H      1   2   3     1.093795842655   111.16833401   177.90811364
 H      3   2   1     1.090832753069   118.75450032   357.84738022
 H      4   3   2     1.100683445473   109.89892134   108.51705613
 H      4   3   2     1.097703791856   109.25705675   223.80481243
 H      5   4   3     1.095456737982   110.22757111   168.12139886
 H      5   4   3     1.098252797948   109.36168203   285.72324898
 H      6   5   4     1.098348783852   108.89791988    58.05632203
 H      6   5   4     1.095479973199   110.95455923   175.64877835
 H      7   2   1     1.098316863990   108.62718236    44.93106478
 H      7   2   1     1.101239241382   108.85787396   290.74794207

---------------------------
INTERNAL COORDINATES (A.U.)
---------------------------
 C      0   0   0     0.000000000000     0.00000000     0.00000000
 C      1   0   0     2.855420709315     0.00000000     0.00000000
 C      2   1   0     2.530816060062   121.86354060     0.00000000
 C      3   2   1     2.841195451811   124.35151660   176.45180288
 C      4   3   2     2.889747134378   111.87089856   346.20336261
 C      5   4   3     2.886140904280   110.11869881    45.55530836
 C      2   1   3     2.848686906930   116.48273228   179.77261858
 H      1   2   3     2.070042660375   111.55421520    57.79172299
 H      1   2   3     2.070079508078   111.55903293   297.96158300
 H      1   2   3     2.066974589040   111.16833401   177.90811364
 H      3   2   1     2.061375161211   118.75450032   357.84738022
 H      4   3   2     2.079990272085   109.89892134   108.51705613
 H      4   3   2     2.074359542775   109.25705675   223.80481243
 H      5   4   3     2.070113226344   110.22757111   168.12139886
 H      5   4   3     2.075397013935   109.36168203   285.72324898
 H      6   5   4     2.075578401005   108.89791988    58.05632203
 H      6   5   4     2.070157134542   110.95455923   175.64877835
 H      7   2   1     2.075518081208   108.62718236    44.93106478
 H      7   2   1     2.081040574139   108.85787396   290.74794207

---------------------
BASIS SET INFORMATION
---------------------
There are 2 groups of distinct atoms

 Group   1 Type C   : 11s6p2d1f contracted to 5s3p2d1f pattern {62111/411/11/1}
 Group   2 Type H   : 5s1p contracted to 3s1p pattern {311/1}

Atom   0C    basis set group =>   1
Atom   1C    basis set group =>   1
Atom   2C    basis set group =>   1
Atom   3C    basis set group =>   1
Atom   4C    basis set group =>   1
Atom   5C    basis set group =>   1
Atom   6C    basis set group =>   1
Atom   7H    basis set group =>   2
Atom   8H    basis set group =>   2
Atom   9H    basis set group =>   2
Atom  10H    basis set group =>   2
Atom  11H    basis set group =>   2
Atom  12H    basis set group =>   2
Atom  13H    basis set group =>   2
Atom  14H    basis set group =>   2
Atom  15H    basis set group =>   2
Atom  16H    basis set group =>   2
Atom  17H    basis set group =>   2
Atom  18H    basis set group =>   2
---------------------------------
AUXILIARY/J BASIS SET INFORMATION
---------------------------------
There are 2 groups of distinct atoms

 Group   1 Type C   : 12s5p4d2f1g contracted to 6s4p3d1f1g pattern {711111/2111/211/2/1}
 Group   2 Type H   : 5s2p1d contracted to 3s1p1d pattern {311/2/1}

Atom   0C    basis set group =>   1
Atom   1C    basis set group =>   1
Atom   2C    basis set group =>   1
Atom   3C    basis set group =>   1
Atom   4C    basis set group =>   1
Atom   5C    basis set group =>   1
Atom   6C    basis set group =>   1
Atom   7H    basis set group =>   2
Atom   8H    basis set group =>   2
Atom   9H    basis set group =>   2
Atom  10H    basis set group =>   2
Atom  11H    basis set group =>   2
Atom  12H    basis set group =>   2
Atom  13H    basis set group =>   2
Atom  14H    basis set group =>   2
Atom  15H    basis set group =>   2
Atom  16H    basis set group =>   2
Atom  17H    basis set group =>   2
Atom  18H    basis set group =>   2

Checking for AutoStart:
The File: sp_solv.gbw exists
Trying to determine its content:
     ... Fine, the file contains calculation information
     ... Fine, the calculation information was read
     ... Fine, the file contains a basis set
     ... Fine, the basis set was read
     ... Fine, the file contains a geometry
     ... Fine, the geometry was read
     ... Fine, the file contains a set of orbitals
     ... Fine, the orbitals can be read
     => possible old guess file was deleted
     => GBW file was renamed to GES file
     => GES file is set as startup file
     => Guess is set to MORead
     ... now leaving AutoStart

------------------------------------------------------------------------------
                             ORCA STARTUP CALCULATIONS
                           -- RI-GTO INTEGRALS CHOSEN --
------------------------------------------------------------------------------
------------------------------------------------------------------------------
                   ___                                                        
                  /   \      - P O W E R E D   B Y -                         
                 /     \                                                     
                 |  |  |   _    _      __       _____    __    __             
                 |  |  |  | |  | |    /  \     |  _  \  |  |  /  |          
                  \  \/   | |  | |   /    \    | | | |  |  | /  /          
                 / \  \   | |__| |  /  /\  \   | |_| |  |  |/  /          
                |  |  |   |  __  | /  /__\  \  |    /   |      \           
                |  |  |   | |  | | |   __   |  |    \   |  |\   \          
                \     /   | |  | | |  |  |  |  | |\  \  |  | \   \       
                 \___/    |_|  |_| |__|  |__|  |_| \__\ |__|  \__/        
                                                                              
                      - O R C A' S   B I G   F R I E N D -                    
                                      &                                       
                       - I N T E G R A L  F E E D E R -                       
                                                                              
 v1 FN, 2020, v2 2021, v3 2022-2024                                           
------------------------------------------------------------------------------


----------------------
SHARK INTEGRAL PACKAGE
----------------------

Number of atoms                             ...     19
Number of basis functions                   ...    289
Number of shells                            ...    125
Maximum angular momentum                    ...      3
Integral batch strategy                     ... SHARK/LIBINT Hybrid
RI-J (if used) integral strategy            ... SPLIT-RIJ (Revised 2003 algorithm where possible)
Printlevel                                  ...      1
Contraction scheme used                     ... SEGMENTED contraction
Prescreening option                         ... SCHWARTZ
   Thresh                                   ... 3.000e-11
   Tcut                                     ... 1.000e-12
   Tpresel                                  ... 1.000e-12 
Coulomb Range Separation                    ... NOT USED
Exchange Range Separation                   ... Long Range
   Mu parameter                             ... 3.000e-01
   Scaling (regular/separated)              ... 1.670e-01 8.330e-01
Multipole approximations                    ... NOT USED
Finite Nucleus Model                        ... NOT USED
CABS basis                                  ... NOT available
Auxiliary Coulomb fitting basis             ... AVAILABLE
   # of basis functions in Aux-J            ...    475
   # of shells in Aux-J                     ...    165
   Maximum angular momentum in Aux-J        ...      4
Auxiliary J/K fitting basis                 ... NOT available
Auxiliary Correlation fitting basis         ... NOT available
Auxiliary 'external' fitting basis          ... NOT available

Checking pre-screening integrals            ... done (  0.0 sec) Dimension = 125
Check shell pair data                       ... done (  0.0 sec)
Shell pair information
Shell pair cut-off parameter TPreSel        ...   1.0e-12
Total number of shell pairs                 ...      7875
Shell pairs after pre-screening             ...      7435
Total number of primitive shell pairs       ...     22768
Primitive shell pairs kept                  ...     16730
          la=0 lb=0:   2339 shell pairs
          la=1 lb=0:   2207 shell pairs
          la=1 lb=1:    540 shell pairs
          la=2 lb=0:    964 shell pairs
          la=2 lb=1:    452 shell pairs
          la=2 lb=2:    104 shell pairs
          la=3 lb=0:    474 shell pairs
          la=3 lb=1:    229 shell pairs
          la=3 lb=2:     98 shell pairs
          la=3 lb=3:     28 shell pairs

Calculating one electron integrals          ... done (  0.0 sec)
Calculating RI/J V-Matrix + Cholesky decomp.... done (  0.1 sec)
Calculating Nuclear repulsion               ... done (  0.0 sec) ENN=    306.581719532583 Eh

Diagonalization of the overlap matrix:
Smallest eigenvalue                        ... 6.747e-05
Time for diagonalization                   ...    0.007 sec
Threshold for overlap eigenvalues          ... 1.000e-07
Number of eigenvalues below threshold      ... 0
Time for construction of square roots      ...    0.019 sec
Total time needed                          ...    0.035 sec

-------------------
DFT GRID GENERATION
-------------------

General Integration Accuracy     IntAcc      ... 4.388
Radial Grid Type                 RadialGrid  ... OptM3 with GC (2021)
Angular Grid (max. ang.)         AngularGrid ... 4 (Lebedev-302)
Angular grid pruning method      GridPruning ... 4 (adaptive)
Weight generation scheme         WeightScheme... mBecke (2022)
Basis function cutoff            BFCut       ... 1.0000e-11
Integration weight cutoff        WCut        ... 1.0000e-14
Partially contracted basis set               ... off
Rotationally invariant grid construction     ... off
Angular grids for H and He will be reduced by one unit

Total number of grid points                  ...    80318
Total number of batches                      ...     1268
Average number of points per batch           ...       63
Average number of grid points per atom       ...     4227

--------------------
COSX GRID GENERATION
--------------------

GRIDX 1
-------
General Integration Accuracy     IntAcc      ... 3.816
Radial Grid Type                 RadialGrid  ... OptM3 with GC (2021)
Angular Grid (max. ang.)         AngularGrid ... 1 (Lebedev-50)
Angular grid pruning method      GridPruning ... 4 (adaptive)
Weight generation scheme         WeightScheme... mBecke (2022)
Basis function cutoff            BFCut       ... 1.0000e-11
Integration weight cutoff        WCut        ... 1.0000e-14
Partially contracted basis set               ... on
Rotationally invariant grid construction     ... off
Angular grids for H and He will be reduced by one unit

Total number of grid points                  ...    10328
Total number of batches                      ...       95
Average number of points per batch           ...      108
Average number of grid points per atom       ...      544
UseSFitting                                  ... on

GRIDX 2
-------
General Integration Accuracy     IntAcc      ... 4.020
Radial Grid Type                 RadialGrid  ... OptM3 with GC (2021)
Angular Grid (max. ang.)         AngularGrid ... 2 (Lebedev-110)
Angular grid pruning method      GridPruning ... 4 (adaptive)
Weight generation scheme         WeightScheme... mBecke (2022)
Basis function cutoff            BFCut       ... 1.0000e-11
Integration weight cutoff        WCut        ... 1.0000e-14
Partially contracted basis set               ... on
Rotationally invariant grid construction     ... off
Angular grids for H and He will be reduced by one unit

Total number of grid points                  ...    21493
Total number of batches                      ...      180
Average number of points per batch           ...      119
Average number of grid points per atom       ...     1131
UseSFitting                                  ... on

GRIDX 3
-------
General Integration Accuracy     IntAcc      ... 4.338
Radial Grid Type                 RadialGrid  ... OptM3 with GC (2021)
Angular Grid (max. ang.)         AngularGrid ... 3 (Lebedev-194)
Angular grid pruning method      GridPruning ... 4 (adaptive)
Weight generation scheme         WeightScheme... mBecke (2022)
Basis function cutoff            BFCut       ... 1.0000e-11
Integration weight cutoff        WCut        ... 1.0000e-14
Partially contracted basis set               ... on
Rotationally invariant grid construction     ... off
Angular grids for H and He will be reduced by one unit

Total number of grid points                  ...    46967
Total number of batches                      ...      378
Average number of points per batch           ...      124
Average number of grid points per atom       ...     2472
UseSFitting                                  ... on
Initializing property integral containers    ... done (  0.0 sec)

SHARK setup successfully completed in   2.0 seconds

Maximum memory used throughout the entire STARTUP-calculation: 44.7 MB
-------------------------------------------------------------------------------
                                 ORCA GUESS
                   Start orbitals & Density for SCF / CASSCF
-------------------------------------------------------------------------------

------------
SCF SETTINGS
------------
Hamiltonian:
 Density Functional     Method          .... DFT(GTOs)
 Exchange Functional    Exchange        .... WB97X-V
 Correlation Functional Correlation     .... WB97X-V
 Gradients option       PostSCFGGA      .... off
 Hybrid DFT is turned on
   Fraction HF Exchange ScalHFX         ....  0.167000
   Scaling of DF-GGA-X  ScalDFX         ....  0.000000
   Scaling of DF-GGA-C  ScalDFC         ....  1.000000
   Scaling of DF-LDA-C  ScalLDAC        ....  1.000000
   Perturbative correction              ....  0.000000
 Long-range corrected/Screened/Range-Separated Hybrid DFT is turned on
   Amount of maximum screened exact exchange              ....  0.833000
   Range separation parameter mu (erf(mu*r12)/r12)        ....  0.300000
   NL short-range parameter             ....  6.000000
   NL long-range parameter              ....  0.010000
 RI-approximation to the Coulomb term is turned on
   Number of AuxJ basis functions       .... 475
   RIJ-COSX (HFX calculated with COS-X)).... on


General Settings:
 Integral files         IntName         .... sp_solv
 Hartree-Fock type      HFTyp           .... RHF
 Total Charge           Charge          ....    0
 Multiplicity           Mult            ....    1
 Number of Electrons    NEL             ....   54
 Basis Dimension        Dim             ....  289
 Nuclear Repulsion      ENuc            ....    306.5817195326 Eh

Convergence Acceleration:
 AO-DIIS                CNVDIIS         .... on
   Start iteration      DIISMaxIt       ....    12
   Startup error        DIISStart       ....  0.200000
   # of expansion vecs  DIISMaxEq       ....     5
   Bias factor          DIISBfac        ....   1.050
   Max. coefficient     DIISMaxC        ....  10.000
 MO-DIIS                CNVKDIIS        .... off
 Trust-Rad. Augm. Hess. CNVTRAH         .... auto
   Auto Start mean grad. ratio tolernc. ....  1.125000
   Auto Start start iteration           ....     1
   Auto Start num. interpolation iter.  ....    10
   Max. Number of Micro iterations      ....    24
   Max. Number of Macro iterations      .... Maxiter - #DIIS iter
   Number of Davidson start vectors     ....     2
   Converg. threshold    (grad. norm)   ....   1.000e-04
   Grad. Scal. Fac. for Micro threshold ....   0.100
   Minimum threshold for Micro iter.    ....   1.000e-02
   NR start threshold (gradient norm)   ....   1.000e-04
   Initial trust radius                 ....   0.400
   Minimum AH scaling param. (alpha)    ....   1.000
   Maximum AH scaling param. (alpha)    .... 1000.000
   Quad. conv. algorithm                .... NR
   White noise on init. David. guess    .... on
   Maximum white noise                  ....   0.010
   Pseudo random numbers                .... off
   Inactive MOs                         .... canonical
   Orbital update algorithm             .... Taylor
   Preconditioner                       .... Diag
   Full preconditioner red. dimension   ....   250
 SOSCF                  CNVSOSCF        .... on
   Start iteration      SOSCFMaxIt      ....   150
   Startup grad/error   SOSCFStart      ....  0.003300
   Hessian update       SOSCFHessUp     .... L-BFGS
 Level Shifting         CNVShift        .... on
   Level shift para.    LevelShift      ....    0.2500
   Turn off err/grad.   ShiftErr        ....    0.0010
 Zerner damping         CNVZerner       .... off
 Static damping         CNVDamp         .... on
   Fraction old density DampFac         ....    0.7000
   Max. Damping (<1)    DampMax         ....    0.9800
   Min. Damping (>=0)   DampMin         ....    0.0000
   Turn off err/grad.   DampErr         ....    0.1000

SCF Procedure:
 Maximum # iterations   MaxIter         ....   125
 SCF integral mode      SCFMode         .... Direct
   Integral package                     .... SHARK and LIBINT hybrid scheme
 Reset frequency        DirectResetFreq ....    20
 Integral Threshold     Thresh          ....  3.000e-11 Eh
 Primitive CutOff       TCut            ....  1.000e-12 Eh

Convergence Tolerance:
 Convergence Check Mode ConvCheckMode   .... Total+1el-Energy
 Convergence forced     ConvForced      .... 0
 Energy Change          TolE            ....  1.000e-07 Eh
 1-El. energy change                    ....  1.000e-04 Eh
 Orbital Gradient       TolG            ....  1.000e-04
 Orbital Rotation angle TolX            ....  1.000e-04
 DIIS Error             TolErr          ....  1.000e-07

---------------------
INITIAL GUESS: MOREAD
---------------------
Guess MOs are being read from file: sp_solv.ges
Input Geometry matches current geometry (good)
Atom 0: N(Shells)= 11 and 9 - projection required
Input basis set needs projection
NBasis(read)= 193
NBasis(calc)= 289
Basis set overlap was calculated
Using GuessMode=FMatrix for the initial guess
C*T matrix was formed
Effective Fockian was calculated
Effective Fockian was diagonalized
Initial density was built
                      ------------------
                      INITIAL GUESS DONE (   0.0 sec)
                      ------------------
             **** ENERGY FILE WAS UPDATED (sp_solv.en.tmp) ****
Finished Guess after   0.3 sec
Maximum memory used throughout the entire GUESS-calculation: 25.7 MB

-------------------------------------------------------------------------------------------
                                      ORCA LEAN-SCF
                              memory conserving SCF solver
-------------------------------------------------------------------------------------------

--------------------
CPCM SOLVATION MODEL
--------------------
CPCM parameters:
  Epsilon                                         ...      78.3550
  Refrac                                          ...       1.3328
  Rsolv                                           ...       1.3000
  Surface type                                    ... GAUSSIAN VDW
  Discretization scheme                           ... Constant charge density
    Threshold for H atoms                         ...       5.0000 (charges/Ang^2)
    Threshold for non-H atoms                     ...       5.0000 (charges/Ang^2)
  Epsilon function type                           ...         CPCM
Solvent:                                          ... WATER
SMD-CDS solvent descriptors:
  Soln                                            ...       1.3328
  Soln25                                          ...       1.3323
  Sola                                            ...       0.0000
  Solb                                            ...       0.0000
  Solg                                            ...       0.0000
  Solc                                            ...       0.0000
  Solh                                            ...       0.0000
Radii:
  Scheme                                          ... Element-dependent radii
  Radius for C  used is    3.4960 Bohr (=   1.8500 Ang.)
  Radius for H  used is    2.2677 Bohr (=   1.2000 Ang.)
Calculating surface                               ...        done! (  0.0s)
Cavity surface points                             ...         1399
Cavity Volume                                     ...     810.8665
Cavity Surface-area                               ...     514.6283
Calculating surface distance matrix               ...        done! (  0.0s)
Performing Cholesky decomposition & store         ...        done! (  0.1s)
Overall time for CPCM initialization              ...                 0.1s

----------------------------------------D-I-I-S--------------------------------------------
Iteration    Energy (Eh)           Delta-E    RMSDP     MaxDP     DIISErr   Damp  Time(sec)
-------------------------------------------------------------------------------------------
               ***  Starting incremental Fock matrix formation  ***
    1    -274.1772665672183962     0.00e+00  1.19e-03  4.10e-02  4.01e-02  0.700  18.4
    2    -274.1810921244793349    -3.83e-03  1.00e-03  3.26e-02  3.00e-02  0.700   9.4
                               ***Turning on AO-DIIS***
    3    -274.1840232111858882    -2.93e-03  8.11e-04  2.49e-02  2.19e-02  0.700   9.3
    4    -274.1862026555708667    -2.18e-03  1.99e-03  5.99e-02  1.55e-02  0.000   9.2
                              *** Initializing SOSCF ***
---------------------------------------S-O-S-C-F--------------------------------------
Iteration    Energy (Eh)           Delta-E    RMSDP     MaxDP     MaxGrad    Time(sec)
--------------------------------------------------------------------------------------
    5    -274.1918392701491598    -5.64e-03  7.50e-05  1.70e-03  8.96e-04    10.3
               *** Restarting incremental Fock matrix formation ***
    6    -274.1918547063740448    -1.54e-05  3.55e-05  8.26e-04  3.86e-04    18.4
    7    -274.1918583882664393    -3.68e-06  1.52e-05  3.30e-04  1.40e-04    14.2
    8    -274.1918588208008600    -4.33e-07  1.49e-06  3.45e-05  1.09e-05    13.5
                  *** Gradient check signals convergence ***

               *****************************************************
               *                     SUCCESS                       *
               *           SCF CONVERGED AFTER   8 CYCLES          *
               *****************************************************


------------------
NL GRID GENERATION
------------------

General Integration Accuracy     IntAcc      ... 4.004
Radial Grid Type                 RadialGrid  ... OptM3 with GC (2021)
Angular Grid (max. ang.)         AngularGrid ... 2 (Lebedev-110)
Angular grid pruning method      GridPruning ... 4 (adaptive)
Weight generation scheme         WeightScheme... mBecke (2022)
Basis function cutoff            BFCut       ... 1.0000e-10
Integration weight cutoff        WCut        ... 1.0000e-14
Partially contracted basis set               ... off
Rotationally invariant grid construction     ... off
Angular grids for H and He will be reduced by one unit

Total number of grid points                  ...    23975
Total number of batches                      ...      385
Average number of points per batch           ...       62
Average number of grid points per atom       ...     1262
Final grid set up in    0.2 sec

-------------------------------------------------------------------------------
                    post-SCF DFT-NL dispersion correction                      
-------------------------------------------------------------------------------

SCF Energy:     -274.191858821 
NL    Energy:      0.202843250 
SC+NL Energy:   -273.989015570 
NL done in  :              2.0 sec
-------------------------------------------------------------------------------
Recomputing exchange energy using gridx3       ... done (   32.476 sec)
Old exchange energy                            :    -13.780451653 Eh
New exchange energy                            :    -13.780456464 Eh
Exchange energy change after final integration :     -0.000004812 Eh
Total energy after final integration           :   -273.989020382 Eh

SMD CDS free energy correction energy :                 2.75962     Kcal/mol
Total Energy after SMD CDS correction =              -273.984622655 Eh
             **** ENERGY FILE WAS UPDATED (sp_solv.en.tmp) ****

----------------
TOTAL SCF ENERGY
----------------

Total Energy       :       -273.98462265502008 Eh           -7455.50061 eV

Components:
Nuclear Repulsion  :        306.58171953258335 Eh            8342.51271 eV
Electronic Energy  :       -580.76990922169011 Eh          -15803.55267 eV
One Electron Energy:       -975.06777348473167 Eh          -26532.94303 eV
Two Electron Energy:        394.29786426304156 Eh           10729.39036 eV
CPCM Dielectric    :         -0.00366913169413 Eh              -0.09984 eV
SMD CDS (Gcds)     :          0.00439772708102 Eh               0.11967 eV

Virial components:
Potential Energy   :       -546.73857182243228 Eh          -14877.51290 eV
Kinetic Energy     :        272.75394916741220 Eh            7422.01228 eV
Virial Ratio       :          2.00451202811679

DFT components:
N(Alpha)           :       27.000020095746 electrons
N(Beta)            :       27.000020095746 electrons
N(Total)           :       54.000040191492 electrons
E(X)               :      -26.759868459288 Eh       
E(C)               :       -2.163267422025 Eh       
NL Energy, E(C,NL) :        0.202843250413 Eh       
E(XC)              :      -28.720292630900 Eh       

CPCM Solvation Model Properties:
Surface-charge          :         -0.05173536243896
Corrected charge        :          0.00000000000000
Outlying charge corr.   :          0.00021504981937 Eh               0.00585 eV
Free-energy (cav+disp)  :          0.00439772708102 Eh               0.11967 eV

---------------
SCF CONVERGENCE
---------------

  Last Energy change         ...    4.3253e-07  Tolerance :   1.0000e-07
  Last MAX-Density change    ...    3.4498e-05  Tolerance :   1.0000e-05
  Last RMS-Density change    ...    1.4871e-06  Tolerance :   1.0000e-06
  Last DIIS Error            ...    8.9574e-04  Tolerance :   1.0000e-07
  Last Orbital Gradient      ...    1.0851e-05  Tolerance :   1.0000e-04
  Last Orbital Rotation      ...    2.3385e-05  Tolerance :   1.0000e-04


----------------
ORBITAL ENERGIES
----------------

  NO   OCC          E(Eh)            E(eV) 
   0   2.0000     -12.042572      -327.6950 
   1   2.0000     -12.033416      -327.4459 
   2   2.0000     -12.033151      -327.4387 
   3   2.0000     -12.030143      -327.3568 
   4   2.0000     -12.028971      -327.3249 
   5   2.0000     -12.028206      -327.3041 
   6   2.0000     -12.025972      -327.2433 
   7   2.0000      -1.343399       -36.5557 
   8   2.0000      -1.267937       -34.5023 
   9   2.0000      -1.240701       -33.7612 
  10   2.0000      -1.171601       -31.8809 
  11   2.0000      -1.106859       -30.1192 
  12   2.0000      -1.062581       -28.9143 
  13   2.0000      -0.950308       -25.8592 
  14   2.0000      -0.910725       -24.7821 
  15   2.0000      -0.883034       -24.0286 
  16   2.0000      -0.868954       -23.6454 
  17   2.0000      -0.846500       -23.0344 
  18   2.0000      -0.831944       -22.6383 
  19   2.0000      -0.823188       -22.4001 
  20   2.0000      -0.812136       -22.0993 
  21   2.0000      -0.796787       -21.6817 
  22   2.0000      -0.792356       -21.5611 
  23   2.0000      -0.761811       -20.7299 
  24   2.0000      -0.745611       -20.2891 
  25   2.0000      -0.739937       -20.1347 
  26   2.0000      -0.624916       -17.0048 
  27   0.0000      -0.188243        -5.1224 
  28   0.0000      -0.033793        -0.9195 
  29   0.0000      -0.023210        -0.6316 
  30   0.0000      -0.012248        -0.3333 
  31   0.0000      -0.006472        -0.1761 
  32   0.0000       0.008101         0.2204 
  33   0.0000       0.018514         0.5038 
  34   0.0000       0.025445         0.6924 
  35   0.0000       0.027820         0.7570 
  36   0.0000       0.037804         1.0287 
  37   0.0000       0.052847         1.4380 
*Only the first 10 virtual orbitals were printed.

                    ********************************
                    * MULLIKEN POPULATION ANALYSIS *
                    ********************************

-----------------------
MULLIKEN ATOMIC CHARGES
-----------------------
   0 C :   -0.410210
   1 C :   -0.008761
   2 C :   -0.298412
   3 C :   -0.135260
   4 C :   -0.211040
   5 C :   -0.199638
   6 C :   -0.186745
   7 H :    0.138760
   8 H :    0.137679
   9 H :    0.138038
  10 H :    0.139047
  11 H :    0.107656
  12 H :    0.116503
  13 H :    0.114879
  14 H :    0.100597
  15 H :    0.100004
  16 H :    0.117230
  17 H :    0.123845
  18 H :    0.115829
Sum of atomic charges:   -0.0000000

--------------------------------
MULLIKEN REDUCED ORBITAL CHARGES
--------------------------------
  0 C s       :     3.277407  s :     3.277407
      pz      :     1.073276  p :     3.073444
      px      :     0.913147
      py      :     1.087021
      dz2     :     0.006008  d :     0.055974
      dxz     :     0.019156
      dyz     :     0.005310
      dx2y2   :     0.008739
      dxy     :     0.016761
      f0      :     0.000280  f :     0.003385
      f+1     :     0.000414
      f-1     :     0.000641
      f+2     :     0.000455
      f-2     :     0.000034
      f+3     :     0.000715
      f-3     :     0.000845

  1 C s       :     3.197629  s :     3.197629
      pz      :     0.933799  p :     2.658035
      px      :     0.855867
      py      :     0.868369
      dz2     :     0.005153  d :     0.143511
      dxz     :     0.021560
      dyz     :     0.026863
      dx2y2   :     0.045340
      dxy     :     0.044594
      f0      :     0.001415  f :     0.009587
      f+1     :     0.000799
      f-1     :     0.000682
      f+2     :     0.001023
      f-2     :     0.001004
      f+3     :     0.001299
      f-3     :     0.003365

  2 C s       :     3.244849  s :     3.244849
      pz      :     1.029942  p :     2.951388
      px      :     0.957042
      py      :     0.964405
      dz2     :     0.004087  d :     0.095155
      dxz     :     0.018464
      dyz     :     0.011008
      dx2y2   :     0.029822
      dxy     :     0.031773
      f0      :     0.001263  f :     0.007019
      f+1     :     0.000745
      f-1     :     0.000610
      f+2     :     0.000791
      f-2     :     0.000445
      f+3     :     0.001090
      f-3     :     0.002076

  3 C s       :     3.131226  s :     3.131226
      pz      :     1.012390  p :     2.902836
      px      :     0.902365
      py      :     0.988081
      dz2     :     0.015009  d :     0.095772
      dxz     :     0.020060
      dyz     :     0.016149
      dx2y2   :     0.022187
      dxy     :     0.022367
      f0      :     0.000706  f :     0.005426
      f+1     :     0.000469
      f-1     :     0.000681
      f+2     :     0.000889
      f-2     :     0.000283
      f+3     :     0.000961
      f-3     :     0.001437

  4 C s       :     3.192018  s :     3.192018
      pz      :     0.995832  p :     2.917982
      px      :     1.014541
      py      :     0.907608
      dz2     :     0.028149  d :     0.095467
      dxz     :     0.003910
      dyz     :     0.017249
      dx2y2   :     0.031331
      dxy     :     0.014827
      f0      :     0.000877  f :     0.005573
      f+1     :     0.000329
      f-1     :     0.000978
      f+2     :     0.000565
      f-2     :     0.000564
      f+3     :     0.001071
      f-3     :     0.001189

  5 C s       :     3.183287  s :     3.183287
      pz      :     1.000631  p :     2.915185
      px      :     0.923774
      py      :     0.990779
      dz2     :     0.026904  d :     0.095591
      dxz     :     0.014700
      dyz     :     0.007708
      dx2y2   :     0.020800
      dxy     :     0.025480
      f0      :     0.000948  f :     0.005574
      f+1     :     0.000550
      f-1     :     0.000626
      f+2     :     0.000742
      f-2     :     0.000390
      f+3     :     0.001066
      f-3     :     0.001253

  6 C s       :     3.161723  s :     3.161723
      pz      :     1.028520  p :     2.922639
      px      :     0.954790
      py      :     0.939329
      dz2     :     0.013848  d :     0.096960
      dxz     :     0.016426
      dyz     :     0.019191
      dx2y2   :     0.017539
      dxy     :     0.029957
      f0      :     0.000730  f :     0.005423
      f+1     :     0.000556
      f-1     :     0.000547
      f+2     :     0.000668
      f-2     :     0.000389
      f+3     :     0.001014
      f-3     :     0.001519

  7 H s       :     0.840304  s :     0.840304
      pz      :     0.009443  p :     0.020936
      px      :     0.005741
      py      :     0.005753

  8 H s       :     0.841337  s :     0.841337
      pz      :     0.009509  p :     0.020984
      px      :     0.005190
      py      :     0.006285

  9 H s       :     0.840785  s :     0.840785
      pz      :     0.004300  p :     0.021177
      px      :     0.005458
      py      :     0.011419

 10 H s       :     0.839282  s :     0.839282
      pz      :     0.004824  p :     0.021672
      px      :     0.006174
      py      :     0.010674

 11 H s       :     0.871368  s :     0.871368
      pz      :     0.011286  p :     0.020976
      px      :     0.005095
      py      :     0.004594

 12 H s       :     0.862342  s :     0.862342
      pz      :     0.006713  p :     0.021156
      px      :     0.004954
      py      :     0.009488

 13 H s       :     0.864056  s :     0.864056
      pz      :     0.004256  p :     0.021065
      px      :     0.012640
      py      :     0.004169

 14 H s       :     0.878628  s :     0.878628
      pz      :     0.012665  p :     0.020775
      px      :     0.004059
      py      :     0.004051

 15 H s       :     0.879207  s :     0.879207
      pz      :     0.012651  p :     0.020789
      px      :     0.004067
      py      :     0.004070

 16 H s       :     0.861681  s :     0.861681
      pz      :     0.004481  p :     0.021090
      px      :     0.006022
      py      :     0.010587

 17 H s       :     0.855013  s :     0.855013
      pz      :     0.006878  p :     0.021142
      px      :     0.006288
      py      :     0.007976

 18 H s       :     0.863209  s :     0.863209
      pz      :     0.011353  p :     0.020961
      px      :     0.004097
      py      :     0.005511


------------------------
MULLIKEN OVERLAP CHARGES
------------------------
B(  0-C ,  1-C ) :   0.5242 B(  0-C ,  2-C ) :  -0.1422 B(  0-C ,  6-C ) :  -0.0655 
B(  0-C ,  7-H ) :   0.8251 B(  0-C ,  8-H ) :   0.8180 B(  0-C ,  9-H ) :   0.8795 
B(  1-C ,  2-C ) :   1.2743 B(  1-C ,  3-C ) :  -0.0947 B(  1-C ,  5-C ) :  -0.0816 
B(  1-C ,  6-C ) :   0.6250 B(  1-C ,  7-H ) :  -0.0751 B(  1-C ,  8-H ) :  -0.0635 
B(  1-C ,  9-H ) :  -0.1310 B(  1-C , 10-H ) :  -0.1027 B(  1-C , 17-H ) :  -0.0771 
B(  1-C , 18-H ) :  -0.0798 B(  2-C ,  3-C ) :   0.5815 B(  2-C ,  4-C ) :  -0.0721 
B(  2-C ,  6-C ) :  -0.1279 B(  2-C , 10-H ) :   0.8576 B(  2-C , 11-H ) :  -0.0622 
B(  2-C , 12-H ) :  -0.0773 B(  3-C ,  4-C ) :   0.6683 B(  3-C ,  5-C ) :  -0.0551 
B(  3-C , 10-H ) :  -0.0686 B(  3-C , 11-H ) :   0.8128 B(  3-C , 12-H ) :   0.8596 
B(  3-C , 13-H ) :  -0.0804 B(  3-C , 14-H ) :  -0.0787 B(  4-C ,  5-C ) :   0.5894 
B(  4-C ,  6-C ) :  -0.0567 B(  4-C , 12-H ) :  -0.0840 B(  4-C , 13-H ) :   0.8466 
B(  4-C , 14-H ) :   0.8507 B(  4-C , 15-H ) :  -0.0897 B(  4-C , 16-H ) :  -0.0693 
B(  5-C ,  6-C ) :   0.6671 B(  5-C , 13-H ) :  -0.0724 B(  5-C , 14-H ) :  -0.0907 
B(  5-C , 15-H ) :   0.8496 B(  5-C , 16-H ) :   0.8497 B(  5-C , 17-H ) :  -0.0827 
B(  6-C , 15-H ) :  -0.0757 B(  6-C , 16-H ) :  -0.0891 B(  6-C , 17-H ) :   0.8520 
B(  6-C , 18-H ) :   0.8164 B( 11-H , 12-H ) :  -0.0607 B( 13-H , 14-H ) :  -0.0530 
B( 15-H , 16-H ) :  -0.0530 B( 17-H , 18-H ) :  -0.0565 


                     *******************************
                     * LOEWDIN POPULATION ANALYSIS *
                     *******************************

----------------------
LOEWDIN ATOMIC CHARGES
----------------------
   0 C :   -0.267475
   1 C :   -0.205885
   2 C :   -0.169868
   3 C :   -0.255778
   4 C :   -0.255834
   5 C :   -0.253462
   6 C :   -0.226685
   7 H :    0.129214
   8 H :    0.128300
   9 H :    0.126368
  10 H :    0.142091
  11 H :    0.140093
  12 H :    0.139542
  13 H :    0.132322
  14 H :    0.136870
  15 H :    0.137773
  16 H :    0.132860
  17 H :    0.144361
  18 H :    0.145192

-------------------------------
LOEWDIN REDUCED ORBITAL CHARGES
-------------------------------
  0 C s       :     2.818156  s :     2.818156
      pz      :     1.076572  p :     3.172147
      px      :     1.028071
      py      :     1.067504
      dz2     :     0.033597  d :     0.252655
      dxz     :     0.071524
      dyz     :     0.025556
      dx2y2   :     0.050712
      dxy     :     0.071266
      f0      :     0.001909  f :     0.024517
      f+1     :     0.003578
      f-1     :     0.003035
      f+2     :     0.003151
      f-2     :     0.002840
      f+3     :     0.004298
      f-3     :     0.005706

  1 C s       :     2.729887  s :     2.729887
      pz      :     0.842197  p :     2.891969
      px      :     0.997188
      py      :     1.052584
      dz2     :     0.033387  d :     0.528496
      dxz     :     0.071350
      dyz     :     0.087023
      dx2y2   :     0.180730
      dxy     :     0.156007
      f0      :     0.004126  f :     0.055532
      f+1     :     0.003762
      f-1     :     0.004170
      f+2     :     0.006384
      f-2     :     0.006866
      f+3     :     0.008677
      f-3     :     0.021546

  2 C s       :     2.771847  s :     2.771847
      pz      :     0.929881  p :     2.972437
      px      :     1.009661
      py      :     1.032895
      dz2     :     0.025044  d :     0.385792
      dxz     :     0.066581
      dyz     :     0.027566
      dx2y2   :     0.128513
      dxy     :     0.138088
      f0      :     0.003000  f :     0.039792
      f+1     :     0.003562
      f-1     :     0.003451
      f+2     :     0.005467
      f-2     :     0.002781
      f+3     :     0.007659
      f-3     :     0.013871

  3 C s       :     2.764742  s :     2.764742
      pz      :     1.024083  p :     3.051856
      px      :     1.019286
      py      :     1.008487
      dz2     :     0.063157  d :     0.400502
      dxz     :     0.077467
      dyz     :     0.069882
      dx2y2   :     0.098664
      dxy     :     0.091334
      f0      :     0.004370  f :     0.038678
      f+1     :     0.004307
      f-1     :     0.003769
      f+2     :     0.006196
      f-2     :     0.004317
      f+3     :     0.005983
      f-3     :     0.009735

  4 C s       :     2.770333  s :     2.770333
      pz      :     1.024288  p :     3.049375
      px      :     1.007633
      py      :     1.017454
      dz2     :     0.112873  d :     0.397199
      dxz     :     0.020823
      dyz     :     0.071285
      dx2y2   :     0.121354
      dxy     :     0.070864
      f0      :     0.004286  f :     0.038928
      f+1     :     0.002815
      f-1     :     0.005967
      f+2     :     0.005641
      f-2     :     0.006648
      f+3     :     0.006303
      f-3     :     0.007269

  5 C s       :     2.769695  s :     2.769695
      pz      :     1.025114  p :     3.049225
      px      :     1.012640
      py      :     1.011471
      dz2     :     0.108479  d :     0.395757
      dxz     :     0.058350
      dyz     :     0.036503
      dx2y2   :     0.090191
      dxy     :     0.102234
      f0      :     0.004760  f :     0.038785
      f+1     :     0.003984
      f-1     :     0.003933
      f+2     :     0.007096
      f-2     :     0.005137
      f+3     :     0.006220
      f-3     :     0.007655

  6 C s       :     2.761779  s :     2.761779
      pz      :     1.022409  p :     3.032336
      px      :     1.011220
      py      :     0.998707
      dz2     :     0.061337  d :     0.394552
      dxz     :     0.062134
      dyz     :     0.077711
      dx2y2   :     0.083966
      dxy     :     0.109404
      f0      :     0.004398  f :     0.038018
      f+1     :     0.004161
      f-1     :     0.003197
      f+2     :     0.005145
      f-2     :     0.005199
      f+3     :     0.006025
      f-3     :     0.009893

  7 H s       :     0.809882  s :     0.809882
      pz      :     0.027627  p :     0.060904
      px      :     0.015692
      py      :     0.017585

  8 H s       :     0.810836  s :     0.810836
      pz      :     0.027482  p :     0.060864
      px      :     0.014389
      py      :     0.018993

  9 H s       :     0.813090  s :     0.813090
      pz      :     0.013655  p :     0.060542
      px      :     0.014162
      py      :     0.032726

 10 H s       :     0.798803  s :     0.798803
      pz      :     0.014443  p :     0.059106
      px      :     0.017430
      py      :     0.027233

 11 H s       :     0.802336  s :     0.802336
      pz      :     0.030241  p :     0.057571
      px      :     0.014066
      py      :     0.013264

 12 H s       :     0.802702  s :     0.802702
      pz      :     0.020028  p :     0.057756
      px      :     0.013690
      py      :     0.024038

 13 H s       :     0.809483  s :     0.809483
      pz      :     0.013667  p :     0.058195
      px      :     0.032003
      py      :     0.012524

 14 H s       :     0.805424  s :     0.805424
      pz      :     0.032257  p :     0.057706
      px      :     0.012842
      py      :     0.012607

 15 H s       :     0.804576  s :     0.804576
      pz      :     0.032383  p :     0.057651
      px      :     0.012497
      py      :     0.012771

 16 H s       :     0.808938  s :     0.808938
      pz      :     0.014351  p :     0.058202
      px      :     0.016512
      py      :     0.027340

 17 H s       :     0.797821  s :     0.797821
      pz      :     0.020506  p :     0.057818
      px      :     0.017026
      py      :     0.020286

 18 H s       :     0.797055  s :     0.797055
      pz      :     0.030450  p :     0.057753
      px      :     0.012425
      py      :     0.014878


---------------------------------
LOEWDIN BOND ORDERS (THRESH 0.050000)
---------------------------------
B(  0-C ,  1-C ) :   1.2105 B(  0-C ,  2-C ) :   0.2154 B(  0-C ,  6-C ) :   0.1421 
B(  0-C ,  7-H ) :   0.8962 B(  0-C ,  8-H ) :   0.8972 B(  0-C ,  9-H ) :   0.8948 
B(  1-C ,  2-C ) :   1.9148 B(  1-C ,  3-C ) :   0.2048 B(  1-C ,  5-C ) :   0.1337 
B(  1-C ,  6-C ) :   1.1496 B(  1-C ,  7-H ) :   0.0802 B(  1-C ,  8-H ) :   0.0797 
B(  1-C ,  9-H ) :   0.0795 B(  1-C , 10-H ) :   0.1137 B(  1-C , 17-H ) :   0.0805 
B(  1-C , 18-H ) :   0.0799 B(  2-C ,  3-C ) :   1.2175 B(  2-C ,  4-C ) :   0.1394 
B(  2-C ,  6-C ) :   0.2036 B(  2-C , 10-H ) :   0.8258 B(  2-C , 11-H ) :   0.0789 
B(  2-C , 12-H ) :   0.0826 B(  3-C ,  4-C ) :   1.2007 B(  3-C ,  5-C ) :   0.1413 
B(  3-C , 10-H ) :   0.0740 B(  3-C , 11-H ) :   0.8375 B(  3-C , 12-H ) :   0.8408 
B(  3-C , 13-H ) :   0.0761 B(  3-C , 14-H ) :   0.0729 B(  4-C ,  5-C ) :   1.2066 
B(  4-C ,  6-C ) :   0.1405 B(  4-C , 11-H ) :   0.0723 B(  4-C , 12-H ) :   0.0739 
B(  4-C , 13-H ) :   0.8533 B(  4-C , 14-H ) :   0.8444 B(  4-C , 15-H ) :   0.0738 
B(  4-C , 16-H ) :   0.0746 B(  5-C ,  6-C ) :   1.1990 B(  5-C , 13-H ) :   0.0750 
B(  5-C , 14-H ) :   0.0737 B(  5-C , 15-H ) :   0.8432 B(  5-C , 16-H ) :   0.8524 
B(  5-C , 17-H ) :   0.0736 B(  5-C , 18-H ) :   0.0713 B(  6-C , 15-H ) :   0.0734 
B(  6-C , 16-H ) :   0.0770 B(  6-C , 17-H ) :   0.8322 B(  6-C , 18-H ) :   0.8317 


------------------------------------------
LOEWDIN REDUCED ORBITAL POPULATIONS PER MO
-------------------------------------------
THRESHOLD FOR PRINTING IS 0.1%%
                      0         1         2         3         4         5   
                 -12.04257 -12.03342 -12.03315 -12.03014 -12.02897 -12.02821
                   2.00000   2.00000   2.00000   2.00000   2.00000   2.00000
                  --------  --------  --------  --------  --------  --------
 0 C  s               0.2       0.2       0.0       0.3       0.9      96.7
 0 C  dx2y2           0.1       0.0       0.0       0.0       0.0       0.0
 1 C  s              97.6       0.3       0.1       0.0       0.0       0.2
 1 C  dx2y2           0.0       0.0       0.0       0.0       0.0       0.1
 2 C  s               0.6       0.5       0.4       0.2       0.1       1.4
 2 C  dxy             0.2       0.0       0.0       0.0       0.0       0.0
 3 C  s               0.0      24.4      71.8       0.9       1.2       0.0
 4 C  s               0.0       0.5       1.8      42.4      54.4       0.1
 5 C  s               0.0       1.9       0.6      54.0      41.9       0.9
 6 C  s               0.5      71.6      24.6       1.5       0.9       0.2

                      6         7         8         9        10        11   
                 -12.02597  -1.34340  -1.26794  -1.24070  -1.17160  -1.10686
                   2.00000   2.00000   2.00000   2.00000   2.00000   2.00000
                  --------  --------  --------  --------  --------  --------
 0 C  s               1.2       3.6       8.6       0.3      24.7       0.5
 0 C  px              0.0       2.5       1.8       0.0       0.5       0.2
 0 C  py              0.0       0.0       0.0       0.2       0.0       0.8
 0 C  dz2             0.0       0.1       0.1       0.0       0.0       0.0
 0 C  dx2y2           0.0       0.3       0.3       0.0       0.0       0.0
 0 C  dxy             0.0       0.0       0.0       0.1       0.0       0.5
 1 C  s               0.7      17.1      11.2       0.1       0.1       0.6
 1 C  pz              0.0       0.0       0.0       0.1       0.1       0.2
 1 C  px              0.0       1.2       2.2       0.2      16.1       0.3
 1 C  py              0.1       0.2       0.6      10.0       0.1      14.4
 1 C  dz2             0.1       0.7       0.2       0.0       0.0       0.0
 1 C  dx2y2           0.0       0.0       0.0       0.0       2.5       0.0
 1 C  dxy             0.2       0.0       0.1       1.8       0.0       0.4
 1 C  f+3             0.1       0.2       0.1       0.0       0.0       0.0
 2 C  s              95.9      13.3       2.1       9.7       4.2       2.7
 2 C  px              0.0       0.0       6.2       2.2       0.1       8.9
 2 C  py              0.0       3.3       1.6       0.6       0.4       1.5
 2 C  dz2             0.0       0.5       0.0       0.1       0.0       0.0
 2 C  dx2y2           0.0       0.0       0.3       0.8       0.5       0.4
 2 C  dxy             0.0       0.3       0.7       0.0       0.0       0.0
 2 C  f+3             0.0       0.1       0.0       0.1       0.0       0.0
 3 C  s               1.0       7.6       5.0      13.1       0.1       9.1
 3 C  pz              0.0       0.1       0.2       0.0       0.1       0.0
 3 C  px              0.1       1.1       1.9       1.1       3.3       0.7
 3 C  py              0.0       1.4       1.7       0.2       0.8       1.6
 3 C  dz2             0.0       0.3       0.0       0.0       0.0       0.2
 3 C  dx2y2           0.1       0.0       0.5       0.4       0.5       0.0
 3 C  dxy             0.0       0.0       0.4       0.0       0.3       0.0
 4 C  s               0.2       6.4      14.9       0.3       5.9       1.1
 4 C  pz              0.0       0.5       0.5       0.0       0.0       0.0
 4 C  px              0.0       1.7       0.4       0.0       0.4       0.1
 4 C  py              0.0       0.0       0.0       7.1       0.0       8.2
 4 C  dz2             0.0       0.1       0.0       0.0       0.0       0.1
 4 C  dxz             0.0       0.1       0.1       0.0       0.0       0.0
 4 C  dyz             0.0       0.0       0.0       0.4       0.0       0.6
 4 C  dx2y2           0.0       0.0       0.2       0.0       0.1       0.0
 4 C  dxy             0.0       0.0       0.0       1.2       0.0       0.3
 5 C  s               0.0       6.9       8.6       9.5       0.1       4.5
 5 C  pz              0.0       0.4       0.4       0.1       0.1       0.0
 5 C  px              0.0       0.8       1.0       2.5       3.2       5.0
 5 C  py              0.0       1.1       1.4       0.7       0.8       0.2
 5 C  dz2             0.0       0.2       0.0       0.0       0.0       0.1
 5 C  dxz             0.0       0.0       0.0       0.1       0.2       0.2
 5 C  dyz             0.0       0.1       0.1       0.0       0.1       0.0
 5 C  dx2y2           0.0       0.0       0.2       0.7       0.3       0.2
 5 C  dxy             0.0       0.0       0.3       0.0       0.2       0.0
 6 C  s               0.1       9.6       0.0      14.3       3.5       7.9
 6 C  pz              0.0       0.1       0.0       0.1       0.0       0.2
 6 C  px              0.0       0.1       5.1       0.8       0.1       3.5
 6 C  py              0.0       2.6       1.1       0.2       0.0       0.5
 6 C  dz2             0.0       0.4       0.0       0.0       0.0       0.1
 6 C  dx2y2           0.0       0.0       0.6       0.5       0.4       0.0
 6 C  dxy             0.0       0.1       0.5       0.0       0.0       0.0
 7 H  s               0.0       0.6       1.7       0.0       6.9       0.1
 7 H  pz              0.0       0.0       0.1       0.0       0.5       0.0
 7 H  px              0.0       0.0       0.0       0.0       0.1       0.0
 7 H  py              0.0       0.0       0.0       0.0       0.1       0.0
 8 H  s               0.0       0.6       1.6       0.0       7.0       0.1
 8 H  pz              0.0       0.0       0.1       0.0       0.5       0.0
 8 H  py              0.0       0.0       0.0       0.0       0.2       0.0
 9 H  s               0.0       0.6       1.6       0.1       7.0       0.5
 9 H  py              0.0       0.0       0.1       0.0       0.7       0.0
10 H  s               0.0       1.8       0.4       1.7       0.7       1.0
10 H  py              0.0       0.1       0.1       0.1       0.1       0.2
11 H  s               0.0       1.1       0.9       2.7       0.0       3.6
11 H  pz              0.0       0.1       0.1       0.2       0.0       0.3
12 H  s               0.0       1.2       0.9       2.9       0.0       4.0
12 H  pz              0.0       0.0       0.0       0.1       0.0       0.2
12 H  py              0.0       0.1       0.1       0.2       0.0       0.2
13 H  s               0.0       1.0       2.8       0.1       1.8       0.4
13 H  px              0.0       0.1       0.3       0.0       0.2       0.0
14 H  s               0.0       1.0       2.8       0.0       1.5       0.4
14 H  pz              0.0       0.1       0.3       0.0       0.2       0.0
15 H  s               0.0       1.1       1.6       1.9       0.0       1.7
15 H  pz              0.0       0.1       0.2       0.2       0.0       0.2
16 H  s               0.0       1.1       1.6       2.0       0.0       1.9
16 H  py              0.0       0.1       0.2       0.1       0.0       0.2
17 H  s               0.0       1.6       0.0       3.1       0.8       3.7
17 H  pz              0.0       0.0       0.0       0.1       0.0       0.2
17 H  px              0.0       0.0       0.0       0.1       0.0       0.0
17 H  py              0.0       0.1       0.0       0.1       0.0       0.2
18 H  s               0.0       1.5       0.0       3.0       0.9       3.4
18 H  pz              0.0       0.1       0.0       0.3       0.1       0.3

                     12        13        14        15        16        17   
                  -1.06258  -0.95031  -0.91072  -0.88303  -0.86895  -0.84650
                   2.00000   2.00000   2.00000   2.00000   2.00000   2.00000
                  --------  --------  --------  --------  --------  --------
 0 C  s               2.3       0.4       0.5       0.0       0.1       0.0
 0 C  pz              0.0       0.0       0.1       0.0       1.3       2.0
 0 C  px              2.5       4.6      12.9       1.8       3.5       0.3
 0 C  py              0.1       0.2       0.0       7.3       0.0       0.8
 0 C  dz2             0.1       0.1       0.1       0.1       0.0       0.0
 0 C  dx2y2           0.2       0.3       0.3       0.0       0.1       0.0
 0 C  dxy             0.0       0.0       0.0       0.2       0.0       0.0
 1 C  s               3.1       3.8       0.6       0.1       0.6       0.0
 1 C  pz              0.1       0.1       0.0       0.2       3.3       1.6
 1 C  px              0.6       0.1       9.2       0.9       0.9       0.2
 1 C  py              1.4       1.2       0.1      14.1       0.0       0.5
 1 C  dz2             0.0       0.1       0.0       0.0       0.0       0.0
 1 C  dyz             0.0       0.1       0.0       0.0       0.0       0.7
 1 C  dx2y2           0.4       0.6       0.7       0.0       0.6       0.0
 1 C  dxy             0.1       0.0       0.0       0.3       0.0       0.0
 2 C  s               1.7       4.1       0.1       0.5       0.5       0.0
 2 C  pz              0.2       0.0       0.1       0.2       2.3       0.5
 2 C  px              2.3       0.3       5.8       7.2       0.3       0.2
 2 C  py              4.5       9.5       6.1       8.3       0.3       0.3
 2 C  dxz             0.0       0.1       0.0       0.0       0.0       0.9
 2 C  dx2y2           0.5       0.0       0.0       0.1       0.1       0.0
 2 C  dxy             0.0       0.8       0.3       0.1       0.8       0.0
 3 C  s               1.5       1.2       0.3       0.2       0.3       0.0
 3 C  pz              1.3       1.7       0.2       0.5       5.1      18.0
 3 C  px              4.3       4.4       4.9      13.0       0.0       0.4
 3 C  py              4.4       0.0       6.0       0.3       4.8       0.1
 3 C  dz2             0.0       0.2       0.1       0.1       0.1       0.0
 3 C  dxz             0.1       0.1       0.0       0.0       0.0       0.4
 3 C  dyz             0.3       0.1       0.1       0.0       0.0       0.0
 3 C  dx2y2           0.2       0.4       0.0       0.1       0.2       0.0
 3 C  dxy             0.1       0.5       0.3       0.2       0.6       0.0
 4 C  s               8.3       1.3       0.1       0.0       0.3       0.0
 4 C  pz              2.2       6.8       0.1       0.1       7.9       9.6
 4 C  px              1.9       0.7       8.9       0.0       3.4       0.3
 4 C  py              0.9       0.6       0.0       8.7       0.8       3.0
 4 C  dz2             0.1       0.0       0.0       0.0       0.1       0.1
 4 C  dxz             0.1       0.1       0.2       0.0       0.1       0.0
 4 C  dyz             0.1       0.0       0.0       0.3       0.0       0.3
 4 C  dx2y2           0.3       0.4       0.2       0.1       0.8       0.0
 4 C  dxy             0.0       0.0       0.0       0.0       0.0       0.1
 5 C  s               7.6       0.8       0.2       0.0       0.3       0.0
 5 C  pz              2.0       5.9       0.7       0.0      10.1       5.1
 5 C  px              0.3       0.7       2.9       7.1       0.2       2.6
 5 C  py              4.2       0.2       5.0       2.7       3.5       1.0
 5 C  dz2             0.1       0.0       0.0       0.1       0.0       0.2
 5 C  dxz             0.1       0.0       0.1       0.2       0.1       0.3
 5 C  dyz             0.4       0.1       0.1       0.1       0.0       0.1
 5 C  dx2y2           0.0       0.2       0.0       0.0       0.1       0.0
 5 C  dxy             0.1       0.5       0.1       0.1       0.7       0.2
 6 C  s               0.2       1.8       0.1       0.2       0.3       0.1
 6 C  pz              0.7       2.0       0.1       0.1       8.9      17.3
 6 C  px              6.3       0.1       2.6       6.4       2.5       0.0
 6 C  py              2.4       8.5       4.2       6.5       1.3       0.2
 6 C  dz2             0.0       0.3       0.0       0.1       0.1       0.1
 6 C  dxz             0.3       0.1       0.0       0.0       0.0       0.0
 6 C  dyz             0.0       0.0       0.0       0.0       0.0       0.3
 6 C  dx2y2           0.8       0.0       0.1       0.1       0.2       0.0
 6 C  dxy             0.0       0.6       0.3       0.2       0.8       0.0
 7 H  s               1.4       0.8       1.4       1.6       1.2       0.1
 7 H  pz              0.1       0.1       0.1       0.1       0.0       0.0
 8 H  s               1.3       1.0       1.7       1.3       0.0       1.4
 8 H  pz              0.1       0.1       0.1       0.1       0.0       0.0
 9 H  s               1.1       0.5       1.8       1.2       0.5       0.1
 9 H  px              0.0       0.0       0.1       0.1       0.0       0.0
 9 H  py              0.1       0.0       0.2       0.0       0.0       0.0
10 H  s               1.4       8.8       4.5       1.8       1.4       0.0
10 H  px              0.1       0.2       0.0       0.3       0.0       0.0
10 H  py              0.0       0.3       0.2       0.0       0.0       0.0
11 H  s               1.0       2.9       1.7       0.4       0.4       8.0
11 H  pz              0.1       0.2       0.1       0.1       0.0       0.1
11 H  px              0.1       0.0       0.0       0.1       0.0       0.0
12 H  s               0.8       0.6       2.7       1.0       5.2       2.6
12 H  pz              0.1       0.1       0.1       0.0       0.0       0.0
12 H  px              0.1       0.0       0.0       0.1       0.0       0.0
12 H  py              0.0       0.0       0.0       0.1       0.1       0.1
13 H  s               4.5       1.0       3.5       0.0       3.7       0.5
13 H  px              0.4       0.0       0.1       0.0       0.2       0.0
13 H  py              0.0       0.0       0.0       0.1       0.0       0.0
14 H  s               4.8       4.3       0.0       0.0       2.3       4.3
14 H  pz              0.4       0.2       0.0       0.0       0.1       0.1
14 H  py              0.0       0.0       0.0       0.1       0.0       0.1
15 H  s               4.3       3.6       0.6       0.1       2.9       2.2
15 H  pz              0.3       0.2       0.0       0.0       0.1       0.0
16 H  s               4.3       0.2       2.9       0.0       4.3       0.0
16 H  px              0.1       0.0       0.0       0.1       0.1       0.0
16 H  py              0.2       0.0       0.1       0.0       0.1       0.0
17 H  s               0.1       2.2       2.0       0.5       6.4       1.7
17 H  pz              0.0       0.1       0.1       0.0       0.0       0.0
17 H  px              0.0       0.1       0.0       0.2       0.0       0.1
17 H  py              0.0       0.0       0.0       0.0       0.1       0.1
18 H  s               0.2       4.7       0.3       0.4       0.9       8.5
18 H  pz              0.0       0.3       0.0       0.0       0.0       0.2

                     18        19        20        21        22        23   
                  -0.83194  -0.82319  -0.81214  -0.79679  -0.79236  -0.76181
                   2.00000   2.00000   2.00000   2.00000   2.00000   2.00000
                  --------  --------  --------  --------  --------  --------
 0 C  pz              0.3      35.4       2.3       0.3       9.9       0.4
 0 C  px             10.3       0.1       3.5       0.1       1.6       1.5
 0 C  py              3.0       0.0       0.2      36.6       2.0       0.3
 0 C  dz2             0.0       0.0       0.0       0.7       0.0       0.0
 0 C  dxz             0.0       0.2       0.0       0.0       0.6       0.1
 0 C  dyz             0.0       0.7       0.0       0.1       0.3       0.0
 0 C  dx2y2           0.2       0.0       0.0       0.3       0.0       0.1
 0 C  dxy             0.0       0.0       0.0       1.8       0.2       0.1
 1 C  pz              0.0       6.8       0.1       0.0       0.6       0.3
 1 C  px             10.4       0.0       3.3       0.0       0.8       0.8
 1 C  py              0.3       0.0       1.8       0.9       0.3       1.9
 1 C  dxz             0.0       0.9       0.1       0.1       1.3       0.0
 1 C  dyz             0.0       0.0       0.0       0.1       0.2       0.1
 1 C  dx2y2           0.2       0.1       0.3       0.1       0.3       1.0
 1 C  dxy             0.8       0.0       1.6       1.2       0.2       0.2
 1 C  f+2             0.0       0.1       0.0       0.0       0.1       0.0
 1 C  f-3             0.1       0.0       0.3       0.6       0.0       0.0
 2 C  s               0.2       0.0       0.1       0.1       0.0       0.1
 2 C  pz              0.1       3.1       0.0       0.0       2.2       0.1
 2 C  px              1.6       0.0       3.7       4.9       0.3       2.7
 2 C  py              6.4       0.2       3.5       0.2       0.5       1.1
 2 C  dz2             0.1       0.0       0.0       0.0       0.0       0.0
 2 C  dxz             0.0       0.0       0.0       0.0       0.5       0.0
 2 C  dx2y2           0.2       0.0       1.9       0.2       0.2       0.0
 2 C  dxy             0.5       0.2       0.0       0.4       0.1       0.2
 2 C  f-3             0.2       0.0       0.3       0.0       0.0       0.0
 3 C  s               0.0       0.0       0.4       0.0       0.0       0.0
 3 C  pz              0.1       4.2       0.2       0.2      11.7       0.5
 3 C  px              0.6       0.0       4.0       4.5       0.4       1.7
 3 C  py              2.7       1.7      12.4       1.1       0.2       5.5
 3 C  dz2             0.0       0.2       0.0       0.0       0.5       0.0
 3 C  dyz             0.1       0.0       0.1       0.0       0.7       0.2
 3 C  dx2y2           0.6       0.0       0.1       0.1       0.1       1.5
 3 C  dxy             0.3       0.2       0.0       0.0       0.0       1.1
 3 C  f-3             0.2       0.0       0.0       0.0       0.0       0.0
 4 C  s               0.2       0.0       0.1       0.0       0.0       0.1
 4 C  pz              0.9       1.3       0.3       0.7       5.0       0.1
 4 C  px             13.1       0.0       3.4       0.8       0.0       8.5
 4 C  py              0.2       2.6       1.6       2.7       0.4       9.5
 4 C  dz2             0.1       0.0       0.0       0.1       0.3       0.1
 4 C  dxz             0.2       0.0       0.0       0.0       0.0       0.0
 4 C  dyz             0.0       0.2       0.0       0.0       0.8       0.3
 4 C  dx2y2           0.0       0.0       0.2       0.1       0.1       1.6
 4 C  dxy             0.2       0.2       1.0       0.1       0.0       0.1
 4 C  f-3             0.1       0.0       0.2       0.0       0.0       0.0
 5 C  s               0.2       0.0       0.1       0.0       0.0       0.0
 5 C  pz              0.3       6.3       0.0       0.1       3.5       0.9
 5 C  px              5.6       0.1       4.5       0.9       2.6       6.6
 5 C  py             10.3       0.0       3.4       0.1       1.3       8.3
 5 C  dz2             0.0       0.1       0.0       0.0       0.2       0.0
 5 C  dxz             0.1       0.1       0.0       0.2       0.6       0.4
 5 C  dyz             0.1       0.0       0.0       0.0       0.0       0.2
 5 C  dx2y2           0.0       0.1       1.2       0.1       0.0       0.1
 5 C  dxy             0.4       0.0       0.0       0.0       0.0       0.4
 5 C  f+2             0.0       0.0       0.0       0.0       0.0       0.1
 5 C  f-3             0.1       0.0       0.1       0.0       0.0       0.0
 6 C  s               0.0       0.0       0.3       0.1       0.0       0.1
[...]
 4 C  dx2y2           1.4       1.1       0.0       0.1       0.1       0.0
 4 C  dxy             4.5       3.2       1.0       0.2       0.2       0.2
 4 C  f0              1.2       3.0       0.2       0.3       0.0       0.1
 4 C  f-1             0.0       0.2       0.0       0.0       0.0       0.0
 4 C  f+2             0.8       0.3       0.0       0.0       0.0       0.0
 4 C  f-2             2.9       1.2       0.1       0.0       0.0       0.0
 4 C  f+3             1.7       5.6       0.1       0.7       0.1       0.1
 4 C  f-3             1.3       0.2       0.1       0.0       0.1       0.0
 5 C  s              11.4       0.3       2.4       5.8       1.1       0.2
 5 C  pz              1.1       0.1       0.3       0.2       0.1       0.0
 5 C  px              1.1       0.0       0.1       5.2       0.1       0.1
 5 C  py              3.3       0.2       0.2       0.0       0.1       0.0
 5 C  dz2             0.4       0.2       0.2       1.2       0.1       0.0
 5 C  dxz             0.9       0.3       0.0       1.0       0.0       0.0
 5 C  dyz             1.8       0.2       0.1       0.1       0.0       0.0
 5 C  dx2y2           1.6       0.2       0.2       4.9       0.1       0.1
 5 C  dxy             2.6       0.2       0.5       0.1       0.1       0.1
 5 C  f0              3.4       0.0       0.8       0.9       0.1       0.2
 5 C  f+1             0.0       0.0       0.0       0.3       0.1       0.1
 5 C  f-1             0.2       0.0       0.0       0.0       0.0       0.1
 5 C  f+2             1.1       0.1       0.0       0.6       0.1       0.0
 5 C  f-2             0.8       0.0       0.6       0.1       0.0       0.1
 5 C  f+3             5.3       0.1       0.6       2.7       0.7       0.2
 5 C  f-3             0.2       0.1       0.3       0.3       0.1       0.0
 6 C  s               2.2       0.3       1.0      10.9       1.5       2.2
 6 C  pz              0.0       0.0       0.0       0.3       0.0       0.0
 6 C  px              0.6       0.3       0.5       5.9       0.3       1.2
 6 C  py              0.1       0.0       0.0       1.1       1.4       2.5
 6 C  dz2             0.1       0.1       0.2       1.2       0.3       1.2
 6 C  dxz             0.2       0.0       0.1       0.7       0.1       0.0
 6 C  dx2y2           1.0       0.0       0.1       2.1       5.3       0.4
 6 C  dxy             0.2       0.1       0.1       0.3       0.3       4.2
 6 C  f0              0.5       0.0       0.1       0.9       0.1       0.0
 6 C  f+1             0.2       0.0       0.4       0.4       0.0       0.2
 6 C  f-1             1.1       0.2       0.0       1.0       0.5       0.0
 6 C  f+2             0.0       0.1       0.0       0.8       0.1       0.1
 6 C  f-2             0.0       0.0       0.0       0.2       0.0       0.0
 6 C  f+3             0.6       0.1       0.9       4.6       0.8       0.7
 6 C  f-3             0.0       0.0       0.7       0.5       3.9       1.5
 7 H  s               0.1       0.1       0.0       0.3       0.1       0.0
 8 H  s               0.0       0.1       0.0       0.2       0.0       0.0
 9 H  s               0.1       0.0       0.1       0.1       0.4       0.7
 9 H  py              0.0       0.0       0.0       0.0       0.1       0.1
10 H  s               1.2       0.8       0.2       0.0       0.1       0.9
10 H  px              0.0       0.2       0.0       0.0       0.1       0.0
10 H  py              0.1       0.1       0.0       0.0       0.2       0.4
11 H  s               0.1       0.2       0.5       0.0       0.0       0.0
12 H  s               0.1       0.2       0.2       0.0       0.2       0.1
13 H  s               0.1       0.5       0.0       0.2       0.0       0.0
14 H  s               0.1       0.4       0.0       0.0       0.0       0.0
15 H  s               0.3       0.0       0.1       0.1       0.0       0.1
16 H  s               0.8       0.1       0.0       0.2       0.1       0.1
17 H  s               0.4       0.0       0.1       0.2       0.2       0.1
18 H  s               0.3       0.1       0.0       0.1       0.0       0.0

                    282       283       284       285       286       287   
                  20.67249  20.82078  20.88093  20.92303  20.96545  21.02566
                   0.00000   0.00000   0.00000   0.00000   0.00000   0.00000
                  --------  --------  --------  --------  --------  --------
 0 C  s               5.0      85.3       1.9       1.3       2.5       1.8
 1 C  s              35.1       1.1       1.4       0.0       0.0       2.8
 1 C  px              0.0       0.3       0.0       0.0       0.0       0.0
 1 C  py              0.0       0.0       0.0       0.0       0.0       0.4
 1 C  dx2y2           0.0       0.2       0.0       0.0       0.0       0.0
 1 C  dxy             0.0       0.0       0.0       0.0       0.0       0.2
 2 C  s              41.2       3.6       4.5       0.0       1.2       9.3
 3 C  s               0.9       6.0      18.3       3.2      54.7      15.1
 4 C  s               2.4       0.2      57.0      27.1      11.8       0.2
 5 C  s               3.2       0.1      14.9      64.1       9.6       6.7
 6 C  s              10.8       2.1       0.2       3.2      19.1      62.0
 7 H  s               0.0       0.2       0.0       0.0       0.0       0.0
 8 H  s               0.0       0.2       0.0       0.0       0.0       0.0
 9 H  s               0.1       0.2       0.0       0.0       0.0       0.0
10 H  s               0.2       0.0       0.0       0.0       0.0       0.0
11 H  s               0.0       0.0       0.0       0.0       0.1       0.1
12 H  s               0.0       0.0       0.1       0.0       0.1       0.0
13 H  s               0.0       0.0       0.2       0.0       0.0       0.0
14 H  s               0.0       0.0       0.2       0.1       0.0       0.0
15 H  s               0.0       0.0       0.0       0.1       0.0       0.0
16 H  s               0.0       0.0       0.1       0.1       0.0       0.0
17 H  s               0.0       0.0       0.0       0.0       0.0       0.2
18 H  s               0.0       0.0       0.0       0.0       0.1       0.2

                    288   
                  21.49130
                   0.00000
                  --------
 0 C  s               0.3
 1 C  s              58.4
 1 C  px              0.2
 1 C  py              0.4
 2 C  s              38.1
 2 C  px              0.3
 2 C  py              0.2
 3 C  s               0.2
 6 C  s               1.1


                      *****************************
                      * MAYER POPULATION ANALYSIS *
                      *****************************

  NA   - Mulliken gross atomic population
  ZA   - Total nuclear charge
  QA   - Mulliken gross atomic charge
  VA   - Mayer's total valence
  BVA  - Mayer's bonded valence
  FA   - Mayer's free valence

  ATOM       NA         ZA         QA         VA         BVA        FA
  0 C      6.4102     6.0000    -0.4102     3.8741     3.8741     0.0000
  1 C      6.0088     6.0000    -0.0088     3.7243     3.7243     0.0000
  2 C      6.2984     6.0000    -0.2984     3.8752     3.8752    -0.0000
  3 C      6.1353     6.0000    -0.1353     3.9149     3.9149    -0.0000
  4 C      6.2110     6.0000    -0.2110     3.9393     3.9393    -0.0000
  5 C      6.1996     6.0000    -0.1996     3.9354     3.9354    -0.0000
  6 C      6.1867     6.0000    -0.1867     3.9264     3.9264     0.0000
  7 H      0.8612     1.0000     0.1388     0.9668     0.9668     0.0000
  8 H      0.8623     1.0000     0.1377     0.9669     0.9669     0.0000
  9 H      0.8620     1.0000     0.1380     0.9694     0.9694    -0.0000
 10 H      0.8610     1.0000     0.1390     0.9682     0.9682    -0.0000
 11 H      0.8923     1.0000     0.1077     0.9703     0.9703     0.0000
 12 H      0.8835     1.0000     0.1165     0.9678     0.9678     0.0000
 13 H      0.8851     1.0000     0.1149     0.9684     0.9684    -0.0000
 14 H      0.8994     1.0000     0.1006     0.9743     0.9743     0.0000
 15 H      0.9000     1.0000     0.1000     0.9756     0.9756    -0.0000
 16 H      0.8828     1.0000     0.1172     0.9672     0.9672    -0.0000
 17 H      0.8762     1.0000     0.1238     0.9657     0.9657    -0.0000
 18 H      0.8842     1.0000     0.1158     0.9691     0.9691     0.0000

  Mayer bond orders larger than 0.100000
B(  0-C ,  1-C ) :   0.9193 B(  0-C ,  7-H ) :   0.9744 B(  0-C ,  8-H ) :   0.9717 
B(  0-C ,  9-H ) :   0.9949 B(  1-C ,  2-C ) :   1.8796 B(  1-C ,  6-C ) :   0.9811 
B(  2-C ,  3-C ) :   0.9873 B(  2-C , 10-H ) :   0.9777 B(  3-C ,  4-C ) :   1.0024 
B(  3-C , 11-H ) :   0.9556 B(  3-C , 12-H ) :   0.9708 B(  4-C ,  5-C ) :   0.9623 
B(  4-C , 13-H ) :   0.9763 B(  4-C , 14-H ) :   0.9773 B(  5-C ,  6-C ) :   1.0037 
B(  5-C , 15-H ) :   0.9765 B(  5-C , 16-H ) :   0.9767 B(  6-C , 17-H ) :   0.9677 
B(  6-C , 18-H ) :   0.9570 

-------
TIMINGS
-------

Total SCF time: 0 days 0 hours 2 min 17 sec 

Total time                  ....     137.975 sec
Sum of individual times     ....     135.523 sec  ( 98.2%)

SCF preparation             ....       0.359 sec  (  0.3%)
Fock matrix formation       ....     133.300 sec  ( 96.6%)
  Startup                   ....       0.061 sec  (  0.0% of F)
  Split-RI-J                ....       4.008 sec  (  3.0% of F)
  Chain of spheres X        ....     112.885 sec  ( 84.7% of F)
  XC integration            ....      12.655 sec  (  9.5% of F)
    XC Preparation          ....       0.000 sec  (  0.0% of XC)
    Basis function eval.    ....       2.976 sec  ( 23.5% of XC)
    Density eval.           ....       2.688 sec  ( 21.2% of XC)
    XC-Functional eval.     ....       2.637 sec  ( 20.8% of XC)
    XC-Potential eval.      ....       3.638 sec  ( 28.7% of XC)
  CPCM terms                ....       5.231 sec  (  3.9% of F)
Diagonalization             ....       0.000 sec  (  0.0%)
Density matrix formation    ....       0.192 sec  (  0.1%)
Total Energy calculation    ....       0.054 sec  (  0.0%)
Population analysis         ....       0.191 sec  (  0.1%)
Orbital Transformation      ....       0.077 sec  (  0.1%)
Orbital Orthonormalization  ....       0.000 sec  (  0.0%)
DIIS solution               ....       1.008 sec  (  0.7%)
  MO trafo                  ....       0.000 sec  (  0.0 % of DIIS)
  Orb grad                  ....       0.000 sec  (  0.0 % of DIIS)
  Energy W gradient         ....       0.000 sec  (  0.0 % of DIIS)
  DIIS error                ....       0.014 sec  (  1.4 % of DIIS)
  DIIS work                 ....       0.937 sec  ( 93.0 % of DIIS)
  Form Q                    ....       0.000 sec  (  0.0 % of DIIS)
  Form QpQm                 ....       0.000 sec  (  0.0 % of DIIS)
  Exp/Cayley                ....       0.000 sec  (  0.0 % of DIIS)
  Orb update                ....       0.000 sec  (  0.0 % of DIIS)
  Wake-sleep                ....       0.017 sec  (  1.7 % of DIIS)
SOSCF solution              ....       0.164 sec  (  0.1%)
  MO trafo                  ....       0.074 sec  ( 45.0 % of SOSCF)
  Orb grad                  ....       0.002 sec  (  1.3 % of SOSCF)
  Rot update                ....       0.044 sec  ( 26.9 % of SOSCF)
  Step                      ....       0.044 sec  ( 26.7 % of SOSCF)
Grid generation             ....       0.178 sec  (  0.1%)
Finished LeanSCF after 138.1 sec

Maximum memory used throughout the entire LEANSCF-calculation: 39.5 MB
------------------   -----------------
gCP correction             0.012392710
------------------   -----------------

-------------------------   --------------------
FINAL SINGLE POINT ENERGY      -273.972229945320
-------------------------   --------------------


------------------------------------------------------------------------------
                              ORCA PROPERTY CALCULATIONS
------------------------------------------------------------------------------

GBWName                                 ... sp_solv.gbw
Number of atoms                         ...     19
Number of basis functions               ...    289
Max core memory                         ...   1024 MB

Electric properties:
Dipole moment                           ... YES
Quadrupole moment                       ...  NO
Static polarizability (Dipole/Dipole)   ...  NO
Static polarizability (Dipole/Quad.)    ...  NO
Static polarizability (Quad./Quad.)     ...  NO
Static polarizability (Velocity)        ...  NO

Atomic electric properties:
Dipole moment                           ...  NO
Quadrupole moment                       ...  NO
Static polarizability                   ...  NO

Choice of electric origin               ... Center of mass
Position of electric origin             ...    -0.003870     0.003563     0.005065

General magnetic properties:
Magnetizability                         ...  NO

EPR properties:
g-Tensor (aka g-matrix)                 ...  NO
Zero-Field splitting spin-orbit         ...  NO
Zero-field splitting spin-spin          ...  NO
Hyperfine couplings                     ...  NO (   0 nuclei)
Quadrupole couplings                    ...  NO (   0 nuclei)
Contact density                         ...  NO (   0 nuclei)

NMR properties:
Chemical shifts                         ...  NO (   0 nuclei)
Spin-rotation constants                 ...  NO (   0 nuclei)
Spin-spin couplings                     ...  NO (   0 nuclei,    0 pairs)

Choice of magnetic origin               ... GIAO
Position of magnetic origin             ...     0.000000     0.000000     0.000000

Properties with geometric perturbations:
SCF Hessian                             ...  NO
IR spectrum                             ...  NO
VCD spectrum                            ...  NO
X-ray spectroscopy properties:
SCF XES/XAS/RIXS spectra                ...  NO


-------------
DIPOLE MOMENT
-------------

Method             : SCF
Type of density    : Electron Density
Multiplicity       :   1
Irrep              :   0
Energy             :  -273.9846226550200754 Eh
Relativity type    : 
Basis              : AO
                                X                 Y                 Z
Electronic contribution:     -0.299937454       0.859816400       0.149735217
Nuclear contribution   :      0.294326596      -1.020360780      -0.178405627
                        -----------------------------------------
Total Dipole Moment    :     -0.005610858      -0.160544380      -0.028670410
                        -----------------------------------------
Magnitude (a.u.)       :      0.163180795
Magnitude (Debye)      :      0.414772620



--------------------
Rotational spectrum 
--------------------
 
Rotational constants in cm-1:             0.149997             0.075295             0.053985 
Rotational constants in MHz :          4496.807448          2257.290078          1618.418584 

Dipole components along the rotational axes: 
x,y,z [a.u.] :     0.006685    -0.160804    -0.026935 
x,y,z [Debye]:     0.016991    -0.408730    -0.068462 

 

Dipole moment calculation done in   0.0 sec 

Maximum memory used throughout the entire PROP-calculation: 23.5 MB

--------------------------------
SUGGESTED CITATIONS FOR THIS RUN
--------------------------------

Below you find a list of papers that are relevant to this ORCA run
We neither can nor want to force you to cite these papers, but we appreciate if you do
You receive ORCA, which is the product of decades of hard work by many enthusiastic individuals, for free
The only thing we kindly ask in return is that you cite our papers,
We deeply appreciate it, if you show your appreciation for ORCA by not just citing the generic ORCA reference.

Please note that relegating all ORCA citations to the supporting information does *not* help us.
SI sections are not indexed - citations you put there will not count into any citation statistics
But we need these citations in order to attract the funding resources that allow us to do what we are doing

Therefore, if you are a happy ORCA user, please consider citing a few of the papers listed below in the main body of your paper

In addition to the list printed below, the program has created the file sp_solv.bibtex that contains the list in bibtex format
You can import this file easily into all common literature databanks and citation aid programs


List of essential papers. We consider these as the minimum necessary citations

  1. Neese,F.
     Software update: the ORCA program system, version 5.0
     WIRES Comput. Molec. Sci., 2022 12(1)e1606
     doi.org/10.1002/wcms.1606

List of papers to cite with high priority. The work reported in these papers was absolutely
necessary for this run to complete.
Our perspective: the developers of density functionals and basis sets usually get cited in chemistry papers
Good! But without the algorithms to do something with them, the functionals or basis sets would not do anything.
Hence, in our opinion, the algorithm design and method developments papers are equally worthy of getting cited

  1. Neese,F.
     An improvement of the resolution of the identity approximation for the formation of the Coulomb matrix
     J. Comp. Chem., 2003 24(14)1740-1747
     doi.org/10.1002/jcc.10318
  2. Neese,F.; Wennmohs,F.; Hansen,A.; Becker,U.
     Efficient, approximate and parallel Hartree-Fock and hybrid DFT calculations. A 'chain-of-spheres' algorithm for the Hartree-Fock exchange
     Chem. Phys., 2009 356(1-3)98-109
     doi.org/10.1016/j.chemphys.2008.10.036
  3. Garcia-Rates,M.; Neese,F.
     Effect of the Solute Cavity on the Solvation Energy and its Derivatives within the Framework of the Gaussian Charge Scheme
     J. Comput. Chem., 2020 41 922-939
     doi.org/10.1002/jcc.26139
  4. Helmich-Paris,B.; de Souza,B.; Neese,F.; Izsák,R.
     An improved chain of spheres for exchange algorithm
     J. Chem. Phys., 2021 155 104109
     doi.org/doi: 10.1063/5.0058766.
  5. Neese,F.
     The SHARK Integral Generation and Digestion System
     J. Comp. Chem., 2022  1-16
     doi.org/10.1002/jcc.26942

List of suggested additional citations. These are papers that are important in the 'surrounding' of 
of this run, or papers that preceded the highly important papers. If you like your results we are grateful for a citation.

  1. Izsak,R.; Neese,F.
     An overlap fitted chain of spheres exchange method
     J. Chem. Phys., 2011 135 144105
     doi.org/10.1063/1.3646921
  2. Izsak,R.; Hansen,A.; Neese,F.
     The resolution of identity and chain of spheres approximations for the LPNO-CCSD singles Fock term
     Molec. Phys., 2012 110 2413-2417
     doi.org/10.1080/00268976.2012.687466
  3. Neese,F.
     The ORCA program system
     WIRES Comput. Molec. Sci., 2012 2(1)73-78
     doi.org/10.1002/wcms.81
  4. Izsak,R.; Neese,F.; Klopper,W.
     Robust fitting techniques in the chain of spheres approximation to the Fock exchange: The role of the complementary space
     J. Chem. Phys., 2013 139 
     doi.org/10.1063/1.4819264
  5. Neese,F.
     Software update: the ORCA program system, version 4.0
     WIRES Comput. Molec. Sci., 2018 8(1)1-6
     doi.org/10.1002/wcms.1327
  6. Neese,F.; Wennmohs,F.; Becker,U.; Riplinger,C.
     The ORCA quantum chemistry program package
     J. Chem. Phys., 2020 152 Art. No. L224108
     doi.org/10.1063/5.0004608

List of optional additional citations

  1. Neese,F.
     Approximate second-order SCF convergence for spin unrestricted wavefunctions
     Chem. Phys. Lett., 2000 325(1-3)93-98
     doi.org/10.1016/s0009-2614(00)00662-x

Timings for individual modules:

Sum of individual times          ...      140.612 sec (=   2.344 min)
Startup calculation              ...        2.086 sec (=   0.035 min)   1.5 %
SCF iterations                   ...      138.417 sec (=   2.307 min)  98.4 %
Property calculations            ...        0.109 sec (=   0.002 min)   0.1 %
                             ****ORCA TERMINATED NORMALLY****
TOTAL RUN TIME: 0 days 0 hours 2 minutes 21 seconds 316 msec
