16
 energy: -271.706603425954 gnorm: 0.001270657908 xtb: 6.7.1 (edcfbbe)
C           -1.46631630500829        0.76689518835905       -0.06927371340392
C           -1.27539677879275       -0.68620362023435       -0.52145236293220
C           -0.18151471154196       -1.17908991114088        0.42974053662475
C            0.81482155469656       -0.01408256397019        0.47919379323799
C           -0.03637168828657        1.25527862975171        0.25822400493495
O            1.76692019280320       -0.09331327417686       -0.61296702404236
H           -2.08390893067936        0.78398796313983        0.83678361244199
H           -1.96190439473146        1.39132980011053       -0.81895064585654
H           -2.19464830857431       -1.27713571812614       -0.46480173918935
H           -0.91578130000929       -0.71860632844512       -1.55738721925348
H           -0.60601642814662       -1.32637786117340        1.43138536687007
H            0.29974017180934       -2.11500000101915        0.12626730102681
H            1.36895295015542        0.01364584822815        1.42610060405276
H           -0.01507936953091        1.91275213438661        1.13243580399098
H            0.39006467094925        1.81580029325893       -0.58085846553849
H            2.26980550503376       -0.90922873329230       -0.49118118204597
16
 energy: -271.706608640316 gnorm: 0.000445513314 xtb: 6.7.1 (edcfbbe)
C           -1.46567388009489        0.76671807216453       -0.06985811074826
C           -1.27565401188174       -0.68646331106947       -0.52138949311441
C           -0.18179543062306       -1.17856232643625        0.43012642259791
C            0.81472325553875       -0.01379138560525        0.47809938761825
C           -0.03652589236068        1.25500870315434        0.25854579890636
O            1.76614285800700       -0.09350116761101       -0.61496839052502
H           -2.08397884055268        0.78417118746037        0.83503761508299
H           -1.95995568502280        1.39111994075338       -0.81949896694020
H           -2.19463860303758       -1.27734675117363       -0.46479923988049
H           -0.91564487786869       -0.71958179128053       -1.55677991667899
H           -0.60631412281116       -1.32405982879619        1.43170933766700
H            0.29931586710712       -2.11489017351882        0.12851465066985
H            1.37007807461446        0.01364943689467        1.42375781486227
H           -0.01629933376874        1.90926269942466        1.13386270063648
H            0.38987782069321        1.81774789646289       -0.57769200326806
H            2.26970965821745       -0.90882932246528       -0.49140891258170
16
 energy: -271.706612582602 gnorm: 0.000530128728 xtb: 6.7.1 (edcfbbe)
C           -1.46534888009510        0.76681935463881       -0.07129602600577
C           -1.27513255894099       -0.68675554894065       -0.52129518679374
C           -0.18188360586261       -1.17833850692078        0.43121144267607
C            0.81484070172723       -0.01386001552331        0.47723378247059
C           -0.03676238682133        1.25457609113647        0.25981849411837
O            1.76389761439991       -0.09391546042288       -0.61835017647450
H           -2.08514478192655        0.78518277931007        0.83239868096261
H           -1.95810604448384        1.39079312928041       -0.82214112161079
H           -2.19422907693977       -1.27731156330874       -0.46445786045042
H           -0.91471942869484       -0.72110559654429       -1.55643302205876
H           -0.60651361561081       -1.32112988893371        1.43308554804823
H            0.29863952157010       -2.11558224309574        0.13171393898840
H            1.37265679230874        0.01329485521897        1.42127046252913
H           -0.01815141079067        1.90534652113696        1.13751890560114
H            0.39022491228123        1.82069781289545       -0.57351847477004
H            2.26909914086102       -0.90805978315065       -0.49350065996518
16
 energy: -271.706612582602 gnorm: 0.000530128728 xtb: 6.7.1 (edcfbbe)
C           -1.46534888009510        0.76681935463881       -0.07129602600577
C           -1.27513255894099       -0.68675554894065       -0.52129518679374
C           -0.18188360586261       -1.17833850692078        0.43121144267607
C            0.81484070172723       -0.01386001552331        0.47723378247059
C           -0.03676238682133        1.25457609113647        0.25981849411837
O            1.76389761439991       -0.09391546042288       -0.61835017647450
H           -2.08514478192655        0.78518277931007        0.83239868096261
H           -1.95810604448384        1.39079312928041       -0.82214112161079
H           -2.19422907693977       -1.27731156330874       -0.46445786045042
H           -0.91471942869484       -0.72110559654429       -1.55643302205876
H           -0.60651361561081       -1.32112988893371        1.43308554804823
H            0.29863952157010       -2.11558224309574        0.13171393898840
H            1.37265679230874        0.01329485521897        1.42127046252913
H           -0.01815141079067        1.90534652113696        1.13751890560114
H            0.39022491228123        1.82069781289545       -0.57351847477004
H            2.26909914086102       -0.90805978315065       -0.49350065996518
