
                                 *****************
                                 * O   R   C   A *
                                 *****************

                                            #,                                       
                                            ###                                      
                                            ####                                     
                                            #####                                    
                                            ######                                   
                                           ########,                                 
                                     ,,################,,,,,                         
                               ,,#################################,,                 
                          ,,##########################################,,             
                       ,#########################################, ''#####,          
                    ,#############################################,,   '####,        
                  ,##################################################,,,,####,       
                ,###########''''           ''''###############################       
              ,#####''   ,,,,##########,,,,          '''####'''          '####       
            ,##' ,,,,###########################,,,                        '##       
           ' ,,###''''                  '''############,,,                           
         ,,##''                                '''############,,,,        ,,,,,,###''
      ,#''                                            '''#######################'''  
     '                                                          ''''####''''         
             ,#######,   #######,   ,#######,      ##                                
            ,#'     '#,  ##    ##  ,#'     '#,    #''#        ,####,   ,####,        
            ##       ##  ##   ,#'  ##            #'  '#       #'       #'  '#        
            ##       ##  #######   ##           ,######,      #####,   #    #        
            '#,     ,#'  ##    ##  '#,     ,#' ,#      #,     #,   #   #,  ,#        
             '#######'   ##     ##  '#######'  #'      '#     '####' # '####'        



                #########################################################
                #                        -***-                          #
                #          Department of theory and spectroscopy        #
                #                                                       #
                #                      Frank Neese                      #
                #                                                       #
                #     Directorship, Architecture, Infrastructure        #
                #                    SHARK, DRIVERS                     #
                #        Core code/Algorithms in most modules           #
                #                                                       #
                #        Max Planck Institute fuer Kohlenforschung      #
                #                Kaiser Wilhelm Platz 1                 #
                #                 D-45470 Muelheim/Ruhr                 #
                #                      Germany                          #
                #                                                       #
                #                  All rights reserved                  #
                #                        -***-                          #
                #########################################################


                         Program Version 6.0.0  -   RELEASE  -


 With contributions from (in alphabetic order):
   Daniel Aravena         : Magnetic Suceptibility
   Michael Atanasov       : Ab Initio Ligand Field Theory (pilot matlab implementation)
   Alexander A. Auer      : GIAO ZORA, VPT2 properties, NMR spectrum
   Ute Becker             : All parallelization in ORCA, NUMFREQ, NUMCALC
   Giovanni Bistoni       : ED, misc. LED, open-shell LED, HFLD
   Martin Brehm           : Molecular dynamics
   Dmytro Bykov           : pre 5.0 version of the SCF Hessian
   Marcos Casanova-Páez   : Triplet and SCS-CIS(D). UHF-(DLPNO)-IP/EA/STEOM-CCSD. UHF-CVS-IP/STEOM-CCSD
   Vijay G. Chilkuri      : MRCI spin determinant printing, contributions to CSF-ICE
   Pauline Colinet        : FMM embedding
   Dipayan Datta          : RHF DLPNO-CCSD density
   Achintya Kumar Dutta   : EOM-CC, STEOM-CC
   Nicolas Foglia         : Exact transition moments, OPA infrastructure, MCD improvements
   Dmitry Ganyushin       : Spin-Orbit,Spin-Spin,Magnetic field MRCI
   Miquel Garcia          : C-PCM and meta-GGA Hessian, CCSD/C-PCM, Gaussian charge scheme
   Tiago L. C. Gouveia    : GS-ROHF, GS-ROCIS
   Yang Guo               : DLPNO-NEVPT2, F12-NEVPT2, CIM, IAO-localization
   Andreas Hansen         : Spin unrestricted coupled pair/coupled cluster methods
   Ingolf Harden          : AUTO-CI MPn and infrastructure 
   Benjamin Helmich-Paris : MC-RPA, TRAH-(SCF,CASSCF), AVAS, COSX integrals, SCF dyn. polar.
   Lee Huntington         : MR-EOM, pCC
   Robert Izsak           : Overlap fitted RIJCOSX, COSX-SCS-MP3, EOM
   Riya Kayal             : Wick's Theorem for AUTO-CI, AUTO-CI UHF-CCSDT
   Emily Kempfer          : AUTO-CI, RHF CISDT and CCSDT
   Christian Kollmar      : KDIIS, OOCD, Brueckner-CCSD(T), CCSD density, CASPT2, CASPT2-K, improved NEVPT2
   Axel Koslowski         : Symmetry handling
   Simone Kossmann        : Meta GGA functionals, TD-DFT gradient, OOMP2, (MP2 Hessian; deprecated post 5.0)
   Lucas Lang             : DCDCAS
   Marvin Lechner         : AUTO-CI (C++ implementation), FIC-MRCC
   Spencer Leger          : CASSCF response
   Dagmar Lenk            : GEPOL surface, SMD, ORCA-2-JSON
   Dimitrios Liakos       : Extrapolation schemes; Compound Job, initial MDCI parallelization
   Dimitrios Manganas     : Further ROCIS development; embedding schemes. LFT, Crystal Embedding
   Dimitrios Pantazis     : SARC Basis sets
   Anastasios Papadopoulos: AUTO-CI, single reference methods and gradients
   Taras Petrenko         : pre 6.0 DFT Hessian and TD-DFT gradient, (ASA, deprecated), ECA, 1-Electron XAS/XES, NRVS
   Peter Pinski           : DLPNO-MP2, DLPNO-MP2 Gradient
   Christoph Reimann      : Effective Core Potentials
   Marius Retegan         : Local ZFS, SOC
   Christoph Riplinger    : Optimizer, TS searches, QM/MM, DLPNO-CCSD(T), (RO)-DLPNO pert. Triples
   Michael Roemelt        : Original ROCIS implementation
   Masaaki Saitow         : Open-shell DLPNO-CCSD energy and density
   Barbara Sandhoefer     : DKH picture change effects
   Kantharuban Sivalingam : CASSCF convergence/infrastructure, NEVPT2 and variants, FIC-MRCI
   Bernardo de Souza      : ESD, SOC TD-DFT
   Georgi Stoychev        : AutoAux, RI-MP2 NMR, DLPNO-MP2 response, X2C
   Van Anh Tran           : RI-MP2 g-tensors
   Willem Van den Heuvel  : Paramagnetic NMR
   Zikuan Wang            : NOTCH, Electric field optimization 
   Frank Wennmohs         : Technical directorship and infrastructure
   Hang Xu                : AUTO-CI-Response properties 


 We gratefully acknowledge several colleagues who have allowed us to
 interface, adapt or use parts of their codes:
   Stefan Grimme, W. Hujo, H. Kruse, P. Pracht,  : VdW corrections, initial TS optimization,
                  C. Bannwarth, S. Ehlert,         DFT functionals, gCP, sTDA/sTD-DF
                  L. Wittmann, M. Mueller
   Ed Valeev, F. Pavosevic, A. Kumar             : LibInt (2-el integral package), F12 methods
   Garnet Chan, S. Sharma, J. Yang, R. Olivares  : DMRG
   Ulf Ekstrom                                   : XCFun DFT Library
   Mihaly Kallay                                 : mrcc  (arbitrary order and MRCC methods)
   Frank Weinhold                                : gennbo (NPA and NBO analysis)
   Simon Mueller                                 : openCOSMO-RS
   Christopher J. Cramer and Donald G. Truhlar   : smd solvation model
   Lars Goerigk                                  : TD-DFT with DH, B97 family of functionals
   V. Asgeirsson, H. Jonsson                     : NEB implementation
   FAccTs GmbH                                   : IRC, NEB, NEB-TS, DLPNO-Multilevel, CI-OPT
                                                   MM, QMMM, 2- and 3-layer-ONIOM, Crystal-QMMM,
                                                   LR-CPCM, SF, NACMEs, symmetry and pop. for TD-DFT,
                                                   nearIR, NL-DFT gradient (VV10), updates on ESD,
                                                   ML-optimized integration grids, MBIS, APM,
                                                   GOAT, DOCKER, SOLVATOR, interface openCOSMO-RS
   S Lehtola, MJT Oliveira, MAL Marques          : LibXC Library
   Liviu Ungur et al                             : ANISO software


 Your calculation uses the libint2 library for the computation of 2-el integrals
 For citations please refer to: http://libint.valeyev.net

 Your ORCA version has been built with support for libXC version: 6.2.2
 For citations please refer to: https://libxc.gitlab.io

 This ORCA versions uses:
   CBLAS   interface :  Fast vector & matrix operations
   LAPACKE interface :  Fast linear algebra routines
   SCALAPACK package :  Parallel linear algebra routines
   Shared memory     :  Shared parallel matrices
   BLAS/LAPACK       :  OpenBLAS 0.3.27  USE64BITINT DYNAMIC_ARCH NO_AFFINITY SkylakeX SINGLE_THREADED
        Core in use  :  SkylakeX
   Copyright (c) 2011-2014, The OpenBLAS Project


Your calculation utilizes the geometrical counterpoise correction gCP
Please cite in your paper:
H.Kruse, S. Grimme J.Chem.Phys., 136, (2012), 154101 
   

Your calculation utilizes the atom-pairwise dispersion correction
based on EEQ partial charges (D4)


Your calculation utilizes the SMD solvation module
Please cite in your paper:
A.V. Marenich, C.J. Cramer, D.G. Truhlar J. Phys. Chem. B, 113, (2009), 6378 

================================================================================

----- Orbital basis set information -----
Your calculation utilizes the basis: def2-mTZVPP
   Stefan Grimme, Andreas Hansen, Sebastian Ehlert, and Jan-Michael Mewes 
   J. Chem. Phys. 154, 064103 (2021). DOI: 10.1063/5.0040021

----- AuxJ basis set information -----
Your calculation utilizes the auxiliary basis: def2/J
   F. Weigend, Phys. Chem. Chem. Phys. 8, 1057 (2006).

================================================================================
                                        WARNINGS
                       Please study these warnings very carefully!
================================================================================

Using LibXC functional ID 497 : Re-regularized SCAN exchange by Furness et al
[ 1]  J. W. Furness, A. D. Kaplan, J. Ning, J. P. Perdew, and J. Sun.,  J. Phys. Chem. Lett. 11, 8208-8215 (2020)
[ 2]  J. W. Furness, A. D. Kaplan, J. Ning, J. P. Perdew, and J. Sun.,  J. Phys. Chem. Lett. 11, 9248-9248 (2020)
Using LibXC functional ID 498 : Re-regularized SCAN correlation by Furness et al
[ 1]  J. W. Furness, A. D. Kaplan, J. Ning, J. P. Perdew, and J. Sun.,  J. Phys. Chem. Lett. 11, 8208-8215 (2020)
[ 2]  J. W. Furness, A. D. Kaplan, J. Ning, J. P. Perdew, and J. Sun.,  J. Phys. Chem. Lett. 11, 9248-9248 (2020)
Using LibXC functional ID 497 : Re-regularized SCAN exchange by Furness et al
[ 1]  J. W. Furness, A. D. Kaplan, J. Ning, J. P. Perdew, and J. Sun.,  J. Phys. Chem. Lett. 11, 8208-8215 (2020)
[ 2]  J. W. Furness, A. D. Kaplan, J. Ning, J. P. Perdew, and J. Sun.,  J. Phys. Chem. Lett. 11, 9248-9248 (2020)
Using LibXC functional ID 498 : Re-regularized SCAN correlation by Furness et al
[ 1]  J. W. Furness, A. D. Kaplan, J. Ning, J. P. Perdew, and J. Sun.,  J. Phys. Chem. Lett. 11, 8208-8215 (2020)
[ 2]  J. W. Furness, A. D. Kaplan, J. Ning, J. P. Perdew, and J. Sun.,  J. Phys. Chem. Lett. 11, 9248-9248 (2020)

================================================================================
                                       INPUT FILE
================================================================================
NAME = sp_solv.inp
|  1> ! r2scan-3c def2/J RI DEFGRID2 scfconv6 printgap
|  2> %output
|  3>     printlevel normal
|  4> end
|  5> %cpcm
|  6>     smd true
|  7>     smdsolvent "water"
|  8> end
|  9> * xyz 0 1
| 10> C -2.9066938375 1.4629808204 -0.0001838781
| 11> C -1.8047606499 0.4540506448 -0.0001731287
| 12> C -2.0996153526 -0.9103694164 0.0001655839
| 13> C -1.0971000206 -1.8672575298 0.0003277848
| 14> C 0.2301501114 -1.4834898094 0.0001266424
| 15> C 0.5304936842 -0.1232441028 -8.42395e-05
| 16> C -0.4750442448 0.841897263 -0.0002289627
| 17> N 1.8889551188 0.290716281 -3.28185e-05
| 18> O 2.7630522598 -0.5652092336 -0.0005667522
| 19> O 2.13866133 1.488083366 0.0006617432
| 20> H -3.5325496445 1.333003435 0.8801305216
| 21> H -2.5093397212 2.4731551056 -0.0027897737
| 22> H -3.5359371173 1.3296341044 -0.8775487702
| 23> H -3.1329463239 -1.2217186698 0.0001367875
| 24> H -1.3504851937 -2.914987027 0.000187118
| 25> H 1.0330803935 -2.203148117 0.0001595096
| 26> H -0.1951700289 1.8843441226 -0.0007290036
| 27> *
| 28> 
| 29>                          ****END OF INPUT****
================================================================================

                       ****************************
                       * Single Point Calculation *
                       ****************************

---------------------------------
CARTESIAN COORDINATES (ANGSTROEM)
---------------------------------
  C     -2.906694    1.462981   -0.000184
  C     -1.804761    0.454051   -0.000173
  C     -2.099615   -0.910369    0.000166
  C     -1.097100   -1.867258    0.000328
  C      0.230150   -1.483490    0.000127
  C      0.530494   -0.123244   -0.000084
  C     -0.475044    0.841897   -0.000229
  N      1.888955    0.290716   -0.000033
  O      2.763052   -0.565209   -0.000567
  O      2.138661    1.488083    0.000662
  H     -3.532550    1.333003    0.880131
  H     -2.509340    2.473155   -0.002790
  H     -3.535937    1.329634   -0.877549
  H     -3.132946   -1.221719    0.000137
  H     -1.350485   -2.914987    0.000187
  H      1.033080   -2.203148    0.000160
  H     -0.195170    1.884344   -0.000729

----------------------------
CARTESIAN COORDINATES (A.U.)
----------------------------
  NO LB      ZA    FRAG     MASS         X           Y           Z
   0 C     6.0000    0    12.011   -5.492855    2.764633   -0.000347
   1 C     6.0000    0    12.011   -3.410503    0.858031   -0.000327
   2 C     6.0000    0    12.011   -3.967698   -1.720349    0.000313
   3 C     6.0000    0    12.011   -2.073219   -3.528605    0.000619
   4 C     6.0000    0    12.011    0.434921   -2.803389    0.000239
   5 C     6.0000    0    12.011    1.002488   -0.232898   -0.000159
   6 C     6.0000    0    12.011   -0.897704    1.590955   -0.000433
   7 N     7.0000    0    14.007    3.569608    0.549374   -0.000062
   8 O     8.0000    0    15.999    5.221412   -1.068091   -0.001071
   9 O     8.0000    0    15.999    4.041484    2.812070    0.001251
  10 H     1.0000    0     1.008   -6.675551    2.519011    1.663206
  11 H     1.0000    0     1.008   -4.741965    4.673586   -0.005272
  12 H     1.0000    0     1.008   -6.681953    2.512644   -1.658327
  13 H     1.0000    0     1.008   -5.920411   -2.308714    0.000258
  14 H     1.0000    0     1.008   -2.552047   -5.508527    0.000354
  15 H     1.0000    0     1.008    1.952239   -4.163347    0.000301
  16 H     1.0000    0     1.008   -0.368818    3.560894   -0.001378

--------------------------------
INTERNAL COORDINATES (ANGSTROEM)
--------------------------------
 C      0   0   0     0.000000000000     0.00000000     0.00000000
 C      1   0   0     1.494053830786     0.00000000     0.00000000
 C      2   1   0     1.395916012458   120.28297406     0.00000000
 C      3   2   1     1.385883068217   121.47178733   180.00699336
 C      4   3   2     1.381618839106   120.20700250     0.00000000
 C      5   4   3     1.393009220543   118.57814584     0.00000000
 C      2   1   3     1.385124803171   121.26206853   180.01290652
 N      6   5   4     1.420134032863   119.39859785   179.98795778
 O      8   6   5     1.223378348481   118.65437728     0.04075467
 O      8   6   5     1.223127798134   118.72738092   180.04709015
 H      1   2   3     1.087907649661   110.09706443    59.48624431
 H      1   2   3     1.085517927494   111.00486483   180.13131792
 H      1   2   3     1.087886761447   110.11068957   300.79679334
 H      3   2   1     1.079217890266   118.96213870     0.00000000
 H      4   3   2     1.077933747981   120.07054250   180.02471796
 H      5   4   3     1.078241679166   122.00348686   180.00534307
 H      7   2   1     1.079363368776   121.28897890   359.97222682

---------------------------
INTERNAL COORDINATES (A.U.)
---------------------------
 C      0   0   0     0.000000000000     0.00000000     0.00000000
 C      1   0   0     2.823352569521     0.00000000     0.00000000
 C      2   1   0     2.637898969500   120.28297406     0.00000000
 C      3   2   1     2.618939452569   121.47178733   180.00699336
 C      4   3   2     2.610881227377   120.20700250     0.00000000
 C      5   4   3     2.632405928853   118.57814584     0.00000000
 C      2   1   3     2.617506539294   121.26206853   180.01290652
 N      6   5   4     2.683664395572   119.39859785   179.98795778
 O      8   6   5     2.311850036799   118.65437728     0.04075467
 O      8   6   5     2.311376565260   118.72738092   180.04709015
 H      1   2   3     2.055847516857   110.09706443    59.48624431
 H      1   2   3     2.051331596426   111.00486483   180.13131792
 H      1   2   3     2.055808043853   110.11068957   300.79679334
 H      3   2   1     2.039426251431   118.96213870     0.00000000
 H      4   3   2     2.036999574196   120.07054250   180.02471796
 H      5   4   3     2.037581479803   122.00348686   180.00534307
 H      7   2   1     2.039701165974   121.28897890   359.97222682

---------------------
BASIS SET INFORMATION
---------------------
There are 4 groups of distinct atoms

 Group   1 Type C   : 11s6p1d contracted to 5s3p1d pattern {62111/411/1}
 Group   2 Type N   : 11s6p2d contracted to 5s3p2d pattern {62111/411/11}
 Group   3 Type O   : 11s6p2d contracted to 5s3p2d pattern {62111/411/11}
 Group   4 Type H   : 4s1p contracted to 2s1p pattern {31/1}

Atom   0C    basis set group =>   1
Atom   1C    basis set group =>   1
Atom   2C    basis set group =>   1
Atom   3C    basis set group =>   1
Atom   4C    basis set group =>   1
Atom   5C    basis set group =>   1
Atom   6C    basis set group =>   1
Atom   7N    basis set group =>   2
Atom   8O    basis set group =>   3
Atom   9O    basis set group =>   3
Atom  10H    basis set group =>   4
Atom  11H    basis set group =>   4
Atom  12H    basis set group =>   4
Atom  13H    basis set group =>   4
Atom  14H    basis set group =>   4
Atom  15H    basis set group =>   4
Atom  16H    basis set group =>   4
---------------------------------
AUXILIARY/J BASIS SET INFORMATION
---------------------------------
There are 4 groups of distinct atoms

 Group   1 Type C   : 12s5p4d2f1g contracted to 6s4p3d1f1g pattern {711111/2111/211/2/1}
 Group   2 Type N   : 12s5p4d2f1g contracted to 6s4p3d1f1g pattern {711111/2111/211/2/1}
 Group   3 Type O   : 12s5p4d2f1g contracted to 6s4p3d1f1g pattern {711111/2111/211/2/1}
 Group   4 Type H   : 5s2p1d contracted to 3s1p1d pattern {311/2/1}

Atom   0C    basis set group =>   1
Atom   1C    basis set group =>   1
Atom   2C    basis set group =>   1
Atom   3C    basis set group =>   1
Atom   4C    basis set group =>   1
Atom   5C    basis set group =>   1
Atom   6C    basis set group =>   1
Atom   7N    basis set group =>   2
Atom   8O    basis set group =>   3
Atom   9O    basis set group =>   3
Atom  10H    basis set group =>   4
Atom  11H    basis set group =>   4
Atom  12H    basis set group =>   4
Atom  13H    basis set group =>   4
Atom  14H    basis set group =>   4
Atom  15H    basis set group =>   4
Atom  16H    basis set group =>   4

Checking for AutoStart:
The File: sp_solv.gbw exists
Trying to determine its content:
     ... Fine, the file contains calculation information
     ... Fine, the calculation information was read
     ... Fine, the file contains a basis set
     ... Fine, the basis set was read
     ... Fine, the file contains a geometry
     ... Fine, the geometry was read
     ... Fine, the file contains a set of orbitals
     ... Fine, the orbitals can be read
     => possible old guess file was deleted
     => GBW file was renamed to GES file
     => GES file is set as startup file
     => Guess is set to MORead
     ... now leaving AutoStart

------------------------------------------------------------------------------
                             ORCA STARTUP CALCULATIONS
                           -- RI-GTO INTEGRALS CHOSEN --
------------------------------------------------------------------------------
------------------------------------------------------------------------------
                   ___                                                        
                  /   \      - P O W E R E D   B Y -                         
                 /     \                                                     
                 |  |  |   _    _      __       _____    __    __             
                 |  |  |  | |  | |    /  \     |  _  \  |  |  /  |          
                  \  \/   | |  | |   /    \    | | | |  |  | /  /          
                 / \  \   | |__| |  /  /\  \   | |_| |  |  |/  /          
                |  |  |   |  __  | /  /__\  \  |    /   |      \           
                |  |  |   | |  | | |   __   |  |    \   |  |\   \          
                \     /   | |  | | |  |  |  |  | |\  \  |  | \   \       
                 \___/    |_|  |_| |__|  |__|  |_| \__\ |__|  \__/        
                                                                              
                      - O R C A' S   B I G   F R I E N D -                    
                                      &                                       
                       - I N T E G R A L  F E E D E R -                       
                                                                              
 v1 FN, 2020, v2 2021, v3 2022-2024                                           
------------------------------------------------------------------------------


----------------------
SHARK INTEGRAL PACKAGE
----------------------

Number of atoms                             ...     17
Number of basis functions                   ...    240
Number of shells                            ...    114
Maximum angular momentum                    ...      2
Integral batch strategy                     ... SHARK/LIBINT Hybrid
RI-J (if used) integral strategy            ... SPLIT-RIJ (Revised 2003 algorithm where possible)
Printlevel                                  ...      1
Contraction scheme used                     ... SEGMENTED contraction
Prescreening option                         ... SCHWARTZ
   Thresh                                   ... 1.000e-10
   Tcut                                     ... 1.000e-11
   Tpresel                                  ... 1.000e-11 
Coulomb Range Separation                    ... NOT USED
Exchange Range Separation                   ... NOT USED
Multipole approximations                    ... NOT USED
Finite Nucleus Model                        ... NOT USED
CABS basis                                  ... NOT available
Auxiliary Coulomb fitting basis             ... AVAILABLE
   # of basis functions in Aux-J            ...    567
   # of shells in Aux-J                     ...    185
   Maximum angular momentum in Aux-J        ...      4
Auxiliary J/K fitting basis                 ... NOT available
Auxiliary Correlation fitting basis         ... NOT available
Auxiliary 'external' fitting basis          ... NOT available

Checking pre-screening integrals            ... done (  0.0 sec) Dimension = 114
Check shell pair data                       ... done (  0.0 sec)
Shell pair information
Shell pair cut-off parameter TPreSel        ...   1.0e-11
Total number of shell pairs                 ...      6555
Shell pairs after pre-screening             ...      5719
Total number of primitive shell pairs       ...     24112
Primitive shell pairs kept                  ...     14687
          la=0 lb=0:   1728 shell pairs
          la=1 lb=0:   2094 shell pairs
          la=1 lb=1:    645 shell pairs
          la=2 lb=0:    728 shell pairs
          la=2 lb=1:    440 shell pairs
          la=2 lb=2:     84 shell pairs

Calculating one electron integrals          ... done (  0.0 sec)
Calculating RI/J V-Matrix + Cholesky decomp.... done (  0.1 sec)
Calculating Nuclear repulsion               ... done (  0.0 sec) ENN=    498.604294913680 Eh

Diagonalization of the overlap matrix:
Smallest eigenvalue                        ... 2.771e-05
Time for diagonalization                   ...    0.005 sec
Threshold for overlap eigenvalues          ... 1.000e-07
Number of eigenvalues below threshold      ... 0
Time for construction of square roots      ...    0.014 sec
Total time needed                          ...    0.028 sec

-------------------
DFT GRID GENERATION
-------------------

General Integration Accuracy     IntAcc      ... 4.388
Radial Grid Type                 RadialGrid  ... OptM3 with GC (2021)
Angular Grid (max. ang.)         AngularGrid ... 4 (Lebedev-302)
Angular grid pruning method      GridPruning ... 4 (adaptive)
Weight generation scheme         WeightScheme... mBecke (2022)
Basis function cutoff            BFCut       ... 1.0000e-10
Integration weight cutoff        WCut        ... 1.0000e-14
Partially contracted basis set               ... off
Rotationally invariant grid construction     ... off
Angular grids for H and He will be reduced by one unit
Diffuse basis detected: some atoms will have their outermost
                        angular grid increased by 1.

Total number of grid points                  ...    83333
Total number of batches                      ...     1312
Average number of points per batch           ...       63
Average number of grid points per atom       ...     4902
Initializing property integral containers    ... done (  0.0 sec)

SHARK setup successfully completed in   1.1 seconds

Maximum memory used throughout the entire STARTUP-calculation: 39.2 MB
-------------------------------------------------------------------------------
                                 ORCA GUESS
                   Start orbitals & Density for SCF / CASSCF
-------------------------------------------------------------------------------

------------
SCF SETTINGS
------------
Hamiltonian:
 Density Functional     Method          .... DFT(GTOs)
  Functional kind                       .... Exchange
  Functional name                       .... Re-regularized SCAN exchange by Furness et al
  Functional family                     .... MGGA
  Functional refs                              
    [ 0] J. W. Furness, A. D. Kaplan, J. Ning, J. P. Perdew, and J. Sun.,  J. Phys. Chem. Lett. 11, 8208-8215 (2020), doi: 10.1021/acs.jpclett.0c02405
    [ 1] J. W. Furness, A. D. Kaplan, J. Ning, J. P. Perdew, and J. Sun.,  J. Phys. Chem. Lett. 11, 9248-9248 (2020), doi: 10.1021/acs.jpclett.0c03077
  Functional external parameters        .... 6
    Parameter  0 _c1        =  6.670000e-01 : c1 parameter        
    Parameter  1 _c2        =  8.000000e-01 : c2 parameter        
    Parameter  2 _d         =  1.240000e+00 : d parameter         
    Parameter  3 _k1        =  6.500000e-02 : k1 parameter        
    Parameter  4 _eta       =  1.000000e-03 : eta parameter       
    Parameter  5 _dp2       =  3.610000e-01 : dp2 parameter       
  Functional kind                       .... Correlation
  Functional name                       .... Re-regularized SCAN correlation by Furness et al
  Functional family                     .... MGGA
  Functional refs                              
    [ 0] J. W. Furness, A. D. Kaplan, J. Ning, J. P. Perdew, and J. Sun.,  J. Phys. Chem. Lett. 11, 8208-8215 (2020), doi: 10.1021/acs.jpclett.0c02405
    [ 1] J. W. Furness, A. D. Kaplan, J. Ning, J. P. Perdew, and J. Sun.,  J. Phys. Chem. Lett. 11, 9248-9248 (2020), doi: 10.1021/acs.jpclett.0c03077
  Functional external parameters        .... 1
    Parameter  0 _eta       =  1.000000e-03 : Regularization parameter
 Gradients option       PostSCFGGA      .... off
 RI-approximation to the Coulomb term is turned on
   Number of AuxJ basis functions       .... 567


General Settings:
 Integral files         IntName         .... sp_solv
 Hartree-Fock type      HFTyp           .... RHF
 Total Charge           Charge          ....    0
 Multiplicity           Mult            ....    1
 Number of Electrons    NEL             ....   72
 Basis Dimension        Dim             ....  240
 Nuclear Repulsion      ENuc            ....    498.6042949137 Eh

Convergence Acceleration:
 AO-DIIS                CNVDIIS         .... on
   Start iteration      DIISMaxIt       ....    12
   Startup error        DIISStart       ....  0.200000
   # of expansion vecs  DIISMaxEq       ....     5
   Bias factor          DIISBfac        ....   1.050
   Max. coefficient     DIISMaxC        ....  10.000
 MO-DIIS                CNVKDIIS        .... off
 Trust-Rad. Augm. Hess. CNVTRAH         .... auto
   Auto Start mean grad. ratio tolernc. ....  1.125000
   Auto Start start iteration           ....     1
   Auto Start num. interpolation iter.  ....    10
   Max. Number of Micro iterations      ....    24
   Max. Number of Macro iterations      .... Maxiter - #DIIS iter
   Number of Davidson start vectors     ....     2
   Converg. threshold    (grad. norm)   ....   3.330e-04
   Grad. Scal. Fac. for Micro threshold ....   0.100
   Minimum threshold for Micro iter.    ....   1.000e-02
   NR start threshold (gradient norm)   ....   1.000e-04
   Initial trust radius                 ....   0.400
   Minimum AH scaling param. (alpha)    ....   1.000
   Maximum AH scaling param. (alpha)    .... 1000.000
   Quad. conv. algorithm                .... NR
   White noise on init. David. guess    .... on
   Maximum white noise                  ....   0.010
   Pseudo random numbers                .... off
   Inactive MOs                         .... canonical
   Orbital update algorithm             .... Taylor
   Preconditioner                       .... Diag
   Full preconditioner red. dimension   ....   250
   COSX micro iterations for RIJONX calc.... off
 SOSCF                  CNVSOSCF        .... on
   Start iteration      SOSCFMaxIt      ....   150
   Startup grad/error   SOSCFStart      ....  0.003300
   Hessian update       SOSCFHessUp     .... L-BFGS
 Level Shifting         CNVShift        .... on
   Level shift para.    LevelShift      ....    0.2500
   Turn off err/grad.   ShiftErr        ....    0.0010
 Zerner damping         CNVZerner       .... off
 Static damping         CNVDamp         .... on
   Fraction old density DampFac         ....    0.7000
   Max. Damping (<1)    DampMax         ....    0.9800
   Min. Damping (>=0)   DampMin         ....    0.0000
   Turn off err/grad.   DampErr         ....    0.1000

SCF Procedure:
 Maximum # iterations   MaxIter         ....   125
 SCF integral mode      SCFMode         .... Direct
   Integral package                     .... SHARK and LIBINT hybrid scheme
 Reset frequency        DirectResetFreq ....    20
 Integral Threshold     Thresh          ....  1.000e-10 Eh
 Primitive CutOff       TCut            ....  1.000e-11 Eh

Convergence Tolerance:
 Convergence Check Mode ConvCheckMode   .... Total+1el-Energy
 Convergence forced     ConvForced      .... 0
 Energy Change          TolE            ....  1.000e-06 Eh
 1-El. energy change                    ....  1.000e-03 Eh
 Orbital Gradient       TolG            ....  3.330e-04
 Orbital Rotation angle TolX            ....  3.330e-04
 DIIS Error             TolErr          ....  1.000e-06

---------------------
INITIAL GUESS: MOREAD
---------------------
Guess MOs are being read from file: sp_solv.ges
Input Geometry matches current geometry (good)
Atom 0: N(Shells)= 9 and 6 - projection required
Input basis set needs projection
NBasis(read)= 154
NBasis(calc)= 240
Basis set overlap was calculated
Using GuessMode=FMatrix for the initial guess
C*T matrix was formed
Effective Fockian was calculated
Effective Fockian was diagonalized
Initial density was built
                      ------------------
                      INITIAL GUESS DONE (   0.0 sec)
                      ------------------
             **** ENERGY FILE WAS UPDATED (sp_solv.en.tmp) ****
Finished Guess after   0.3 sec
Maximum memory used throughout the entire GUESS-calculation: 17.3 MB

-------------------------------------------------------------------------------------------
                                      ORCA LEAN-SCF
                              memory conserving SCF solver
-------------------------------------------------------------------------------------------

--------------------
CPCM SOLVATION MODEL
--------------------
CPCM parameters:
  Epsilon                                         ...      78.3550
  Refrac                                          ...       1.3328
  Rsolv                                           ...       1.3000
  Surface type                                    ... GAUSSIAN VDW
  Discretization scheme                           ... Constant charge density
    Threshold for H atoms                         ...       5.0000 (charges/Ang^2)
    Threshold for non-H atoms                     ...       5.0000 (charges/Ang^2)
  Epsilon function type                           ...         CPCM
Solvent:                                          ... WATER
SMD-CDS solvent descriptors:
  Soln                                            ...       1.3328
  Soln25                                          ...       1.3323
  Sola                                            ...       0.0000
  Solb                                            ...       0.0000
  Solg                                            ...       0.0000
  Solc                                            ...       0.0000
  Solh                                            ...       0.0000
Radii:
  Scheme                                          ... Element-dependent radii
  Radius for C  used is    3.4960 Bohr (=   1.8500 Ang.)
  Radius for N  used is    3.5716 Bohr (=   1.8900 Ang.)
  Radius for O  used is    2.8724 Bohr (=   1.5200 Ang.)
  Radius for H  used is    2.2677 Bohr (=   1.2000 Ang.)
Calculating surface                               ...        done! (  0.0s)
Cavity surface points                             ...         1328
Cavity Volume                                     ...     906.0727
Cavity Surface-area                               ...     563.0231
Calculating surface distance matrix               ...        done! (  0.0s)
Performing Cholesky decomposition & store         ...        done! (  0.1s)
Overall time for CPCM initialization              ...                 0.1s

----------------------------------------D-I-I-S--------------------------------------------
Iteration    Energy (Eh)           Delta-E    RMSDP     MaxDP     DIISErr   Damp  Time(sec)
-------------------------------------------------------------------------------------------
               ***  Starting incremental Fock matrix formation  ***
    1    -475.7680676486998550     0.00e+00  9.94e-03  4.51e-01  6.36e-01  0.700   3.4
    2    -475.8350910000569343    -6.70e-02  7.50e-03  3.47e-01  4.48e-01  0.700   3.1
    3    -475.8825443195544835    -4.75e-02  5.37e-03  2.46e-01  3.14e-01  0.700   3.0
    4    -475.9159114962478156    -3.34e-02  3.80e-03  1.73e-01  2.20e-01  0.700   3.2
                               ***Turning on AO-DIIS***
    5    -475.9393395309293169    -2.34e-02  2.69e-03  1.21e-01  1.54e-01  0.700   2.9
    6    -475.9557689638140232    -1.64e-02  1.90e-03  8.47e-02  1.08e-01  0.700   2.9
    7    -475.9672975537499156    -1.15e-02  1.34e-03  5.92e-02  7.53e-02  0.700   2.9
    8    -475.9753790666446207    -8.08e-03  3.13e-03  1.38e-01  5.28e-02  0.000   2.8
                              *** Initializing SOSCF ***
---------------------------------------S-O-S-C-F--------------------------------------
Iteration    Energy (Eh)           Delta-E    RMSDP     MaxDP     MaxGrad    Time(sec)
--------------------------------------------------------------------------------------
    9    -475.9942710142906321    -1.89e-02  2.84e-05  8.09e-04  3.31e-04     3.0
               *** Restarting incremental Fock matrix formation ***
   10    -475.9942716967074716    -6.82e-07  2.14e-05  3.94e-04  1.97e-04     3.5
   11    -475.9942702548683542     1.44e-06  1.35e-05  2.57e-04  2.76e-04     2.6
   12    -475.9942724046215403    -2.15e-06  4.39e-06  9.85e-05  2.89e-05     2.6
                  *** Gradient check signals convergence ***

               *****************************************************
               *                     SUCCESS                       *
               *           SCF CONVERGED AFTER  12 CYCLES          *
               *****************************************************


SMD CDS free energy correction energy :                 6.11131     Kcal/mol
Total Energy after SMD CDS correction =              -475.984533414 Eh
             **** ENERGY FILE WAS UPDATED (sp_solv.en.tmp) ****

----------------
TOTAL SCF ENERGY
----------------

Total Energy       :       -475.98453341437238 Eh          -12952.19763 eV

Components:
Nuclear Repulsion  :        498.60429491368046 Eh           13567.71263 eV
Electronic Energy  :       -974.58051440566260 Eh          -26519.68403 eV
One Electron Energy:      -1634.38395827720751 Eh          -44473.84851 eV
Two Electron Energy:        659.80344387154491 Eh           17954.16448 eV
CPCM Dielectric    :         -0.01805291263938 Eh              -0.49124 eV
SMD CDS (Gcds)     :          0.00973899024917 Eh               0.26501 eV

Virial components:
Potential Energy   :       -950.27128187363201 Eh          -25858.19619 eV
Kinetic Energy     :        474.28674845925968 Eh           12905.99855 eV
Virial Ratio       :          2.00357965926863

DFT components:
N(Alpha)           :       36.000048466468 electrons
N(Beta)            :       36.000048466468 electrons
N(Total)           :       72.000096932935 electrons
E(X)               :      -62.134823285556 Eh       
E(C)               :       -2.368788825770 Eh       
E(XC)              :      -64.503612111326 Eh       

CPCM Solvation Model Properties:
Surface-charge          :         -0.04289910753283
Corrected charge        :         -0.00000000000000
Outlying charge corr.   :          0.00014010645599 Eh               0.00381 eV
Free-energy (cav+disp)  :          0.00973899024917 Eh               0.26501 eV

---------------
SCF CONVERGENCE
---------------

  Last Energy change         ...    2.1498e-06  Tolerance :   1.0000e-06
  Last MAX-Density change    ...    9.8542e-05  Tolerance :   1.0000e-05
  Last RMS-Density change    ...    4.3948e-06  Tolerance :   1.0000e-06
  Last DIIS Error            ...    3.3091e-04  Tolerance :   1.0000e-06
  Last Orbital Gradient      ...    2.8875e-05  Tolerance :   3.3300e-04
  Last Orbital Rotation      ...    1.0857e-04  Tolerance :   3.3300e-04


----------------
ORBITAL ENERGIES
----------------

  NO   OCC          E(Eh)            E(eV) 
   0   2.0000     -18.991748      -516.7917 
   1   2.0000     -18.991428      -516.7830 
   2   2.0000     -14.402960      -391.9245 
   3   2.0000     -10.096781      -274.7474 
   4   2.0000     -10.060309      -273.7549 
   5   2.0000     -10.056753      -273.6582 
   6   2.0000     -10.054587      -273.5992 
   7   2.0000     -10.050506      -273.4882 
   8   2.0000     -10.049488      -273.4605 
   9   2.0000     -10.023418      -272.7511 
  10   2.0000      -1.211384       -32.9634 
  11   2.0000      -1.031569       -28.0704 
  12   2.0000      -0.860890       -23.4260 
  13   2.0000      -0.789920       -21.4948 
  14   2.0000      -0.750464       -20.4212 
  15   2.0000      -0.679730       -18.4964 
  16   2.0000      -0.662215       -18.0198 
  17   2.0000      -0.582926       -15.8622 
  18   2.0000      -0.559272       -15.2186 
  19   2.0000      -0.523929       -14.2568 
  20   2.0000      -0.518961       -14.1216 
  21   2.0000      -0.497985       -13.5509 
  22   2.0000      -0.472549       -12.8587 
  23   2.0000      -0.446262       -12.1434 
  24   2.0000      -0.415467       -11.3054 
  25   2.0000      -0.396607       -10.7922 
  26   2.0000      -0.392303       -10.6751 
  27   2.0000      -0.357869        -9.7381 
  28   2.0000      -0.348160        -9.4739 
  29   2.0000      -0.338618        -9.2143 
  30   2.0000      -0.323017        -8.7898 
  31   2.0000      -0.303609        -8.2616 
  32   2.0000      -0.294467        -8.0128 
  33   2.0000      -0.268854        -7.3159 
  34   2.0000      -0.260863        -7.0985 
  35   2.0000      -0.244782        -6.6609 
  36   0.0000      -0.130258        -3.5445 
  37   0.0000      -0.043391        -1.1807 
  38   0.0000      -0.025500        -0.6939 
  39   0.0000       0.076690         2.0868 
  40   0.0000       0.094767         2.5787 
  41   0.0000       0.110004         2.9934 
  42   0.0000       0.115571         3.1448 
  43   0.0000       0.120968         3.2917 
  44   0.0000       0.141425         3.8484 
  45   0.0000       0.152499         4.1497 
  46   0.0000       0.160083         4.3561 
*Only the first 10 virtual orbitals were printed.

                    ********************************
                    * MULLIKEN POPULATION ANALYSIS *
                    ********************************

-----------------------
MULLIKEN ATOMIC CHARGES
-----------------------
   0 C :   -0.548959
   1 C :    0.188162
   2 C :   -0.145856
   3 C :   -0.187643
   4 C :   -0.219605
   5 C :    0.047480
   6 C :   -0.289404
   7 N :    0.411576
   8 O :   -0.294502
   9 O :   -0.293018
  10 H :    0.182983
  11 H :    0.176033
  12 H :    0.182844
  13 H :    0.189407
  14 H :    0.189543
  15 H :    0.205067
  16 H :    0.205893
Sum of atomic charges:   -0.0000000

--------------------------------
MULLIKEN REDUCED ORBITAL CHARGES
--------------------------------
  0 C s       :     3.384882  s :     3.384882
      pz      :     1.104780  p :     3.137407
      px      :     1.010862
      py      :     1.021764
      dz2     :     0.004942  d :     0.026670
      dxz     :     0.007675
      dyz     :     0.001637
      dx2y2   :     0.005119
      dxy     :     0.007297

  1 C s       :     3.098685  s :     3.098685
      pz      :     0.954366  p :     2.665006
      px      :     0.863217
      py      :     0.847424
      dz2     :     0.003520  d :     0.048146
      dxz     :     0.007075
      dyz     :     0.005885
      dx2y2   :     0.016732
      dxy     :     0.014934

  2 C s       :     3.223025  s :     3.223025
      pz      :     0.928147  p :     2.885778
      px      :     1.045897
      py      :     0.911734
      dz2     :     0.003183  d :     0.037054
      dxz     :     0.002777
      dyz     :     0.005843
      dx2y2   :     0.013191
      dxy     :     0.012060

  3 C s       :     3.257506  s :     3.257506
      pz      :     0.974908  p :     2.892762
      px      :     0.893943
      py      :     1.023911
      dz2     :     0.003221  d :     0.037375
      dxz     :     0.006001
      dyz     :     0.002742
      dx2y2   :     0.013223
      dxy     :     0.012188

  4 C s       :     3.256315  s :     3.256315
      pz      :     0.940613  p :     2.926447
      px      :     1.015969
      py      :     0.969864
      dz2     :     0.003337  d :     0.036843
      dxz     :     0.004610
      dyz     :     0.004916
      dx2y2   :     0.012106
      dxy     :     0.011875

  5 C s       :     3.222116  s :     3.222116
      pz      :     1.058571  p :     2.676465
      px      :     0.830262
      py      :     0.787632
      dz2     :     0.004521  d :     0.053939
      dxz     :     0.005191
      dyz     :     0.007830
      dx2y2   :     0.019890
      dxy     :     0.016507

  6 C s       :     3.265370  s :     3.265370
      pz      :     0.947344  p :     2.987558
      px      :     0.950560
      py      :     1.089654
      dz2     :     0.003347  d :     0.036477
      dxz     :     0.006455
      dyz     :     0.002790
      dx2y2   :     0.010564
      dxy     :     0.013320

  7 N s       :     3.097445  s :     3.097445
      pz      :     1.082765  p :     2.958912
      px      :     1.004579
      py      :     0.871568
      dz2     :     0.011001  d :     0.532066
      dxz     :     0.045769
      dyz     :     0.105792
      dx2y2   :     0.197196
      dxy     :     0.172308

  8 O s       :     3.882101  s :     3.882101
      pz      :     1.437538  p :     4.368125
      px      :     1.487840
      py      :     1.442747
      dz2     :     0.004620  d :     0.044276
      dxz     :     0.011164
      dyz     :     0.010118
      dx2y2   :     0.007523
      dxy     :     0.010851

  9 O s       :     3.882708  s :     3.882708
      pz      :     1.437046  p :     4.365202
      px      :     1.774515
      py      :     1.153641
      dz2     :     0.004612  d :     0.045109
      dxz     :     0.001368
      dyz     :     0.020121
      dx2y2   :     0.008495
      dxy     :     0.010512

 10 H s       :     0.798544  s :     0.798544
      pz      :     0.008612  p :     0.018473
      px      :     0.006264
      py      :     0.003598

 11 H s       :     0.805739  s :     0.805739
      pz      :     0.003632  p :     0.018228
      px      :     0.004279
      py      :     0.010317

 12 H s       :     0.798683  s :     0.798683
      pz      :     0.008581  p :     0.018473
      px      :     0.006291
      py      :     0.003601

 13 H s       :     0.791156  s :     0.791156
      pz      :     0.003615  p :     0.019437
      px      :     0.011982
      py      :     0.003840

 14 H s       :     0.790872  s :     0.790872
      pz      :     0.003781  p :     0.019585
      px      :     0.003526
      py      :     0.012278

 15 H s       :     0.774730  s :     0.774730
      pz      :     0.003719  p :     0.020203
      px      :     0.009044
      py      :     0.007439

 16 H s       :     0.773900  s :     0.773900
      pz      :     0.003733  p :     0.020208
      px      :     0.003976
      py      :     0.012499


------------------------
MULLIKEN OVERLAP CHARGES
------------------------
B(  0-C ,  1-C ) :   0.3462 B(  0-C ,  2-C ) :  -0.1087 B(  0-C ,  6-C ) :  -0.0709 
B(  0-C , 10-H ) :   0.8386 B(  0-C , 11-H ) :   0.8571 B(  0-C , 12-H ) :   0.8386 
B(  1-C ,  2-C ) :   0.7322 B(  1-C ,  4-C ) :  -0.1870 B(  1-C ,  5-C ) :  -0.1070 
B(  1-C ,  6-C ) :   0.5577 B(  1-C , 10-H ) :  -0.0840 B(  1-C , 11-H ) :  -0.1413 
B(  1-C , 12-H ) :  -0.0843 B(  1-C , 13-H ) :  -0.0933 B(  1-C , 16-H ) :  -0.0809 
B(  2-C ,  3-C ) :   0.8145 B(  2-C ,  4-C ) :  -0.0593 B(  2-C ,  5-C ) :  -0.1555 
B(  2-C , 13-H ) :   0.8280 B(  2-C , 14-H ) :  -0.0828 B(  3-C ,  4-C ) :   0.6517 
B(  3-C ,  5-C ) :  -0.1099 B(  3-C ,  6-C ) :  -0.1905 B(  3-C , 13-H ) :  -0.0637 
B(  3-C , 14-H ) :   0.8544 B(  3-C , 15-H ) :  -0.0675 B(  4-C ,  5-C ) :   0.7527 
B(  4-C ,  6-C ) :  -0.4431 B(  4-C ,  8-O ) :   0.0736 B(  4-C , 14-H ) :  -0.0889 
B(  4-C , 15-H ) :   0.8021 B(  5-C ,  6-C ) :   0.5818 B(  5-C ,  7-N ) :   0.5490 
B(  5-C ,  8-O ) :  -0.2205 B(  5-C ,  9-O ) :  -0.1995 B(  6-C ,  9-O ) :   0.0534 
B(  6-C , 16-H ) :   0.7908 B(  7-N ,  8-O ) :   1.1062 B(  7-N ,  9-O ) :   1.1091 
B(  8-O ,  9-O ) :  -0.1702 


                     *******************************
                     * LOEWDIN POPULATION ANALYSIS *
                     *******************************

----------------------
LOEWDIN ATOMIC CHARGES
----------------------
   0 C :   -0.385246
   1 C :   -0.085767
   2 C :   -0.111546
   3 C :   -0.145133
   4 C :   -0.079280
   5 C :    0.189275
   6 C :   -0.073764
   7 N :   -0.493954
   8 O :   -0.059595
   9 O :   -0.059473
  10 H :    0.175646
  11 H :    0.168521
  12 H :    0.175604
  13 H :    0.187605
  14 H :    0.186637
  15 H :    0.204146
  16 H :    0.206323

-------------------------------
LOEWDIN REDUCED ORBITAL CHARGES
-------------------------------
  0 C s       :     2.952740  s :     2.952740
      pz      :     1.161423  p :     3.370431
      px      :     1.100707
      py      :     1.108301
      dz2     :     0.011978  d :     0.062074
      dxz     :     0.018708
      dyz     :     0.002761
      dx2y2   :     0.011701
      dxy     :     0.016926

  1 C s       :     2.869695  s :     2.869695
      pz      :     0.931746  p :     3.116631
      px      :     1.089690
      py      :     1.095195
      dz2     :     0.006428  d :     0.099441
      dxz     :     0.011839
      dyz     :     0.010195
      dx2y2   :     0.036867
      dxy     :     0.034112

  2 C s       :     2.905376  s :     2.905376
      pz      :     0.926866  p :     3.125622
      px      :     1.113527
      py      :     1.085229
      dz2     :     0.005501  d :     0.080548
      dxz     :     0.004193
      dyz     :     0.010687
      dx2y2   :     0.031496
      dxy     :     0.028671

  3 C s       :     2.904054  s :     2.904054
      pz      :     0.957518  p :     3.159340
      px      :     1.090281
      py      :     1.111542
      dz2     :     0.005493  d :     0.081740
      dxz     :     0.011203
      dyz     :     0.004061
      dx2y2   :     0.031898
      dxy     :     0.029085

  4 C s       :     2.895262  s :     2.895262
      pz      :     0.936425  p :     3.105296
      px      :     1.105241
      py      :     1.063631
      dz2     :     0.005399  d :     0.078722
      dxz     :     0.007694
      dyz     :     0.008677
      dx2y2   :     0.028557
      dxy     :     0.028395

  5 C s       :     2.771175  s :     2.771175
      pz      :     0.954952  p :     2.924433
      px      :     0.901515
      py      :     1.067966
      dz2     :     0.009199  d :     0.115116
      dxz     :     0.009961
      dyz     :     0.013863
      dx2y2   :     0.044045
      dxy     :     0.038049

  6 C s       :     2.889913  s :     2.889913
      pz      :     0.948212  p :     3.105449
      px      :     1.052833
      py      :     1.104404
      dz2     :     0.005524  d :     0.078402
      dxz     :     0.011591
      dyz     :     0.004400
      dx2y2   :     0.026189
      dxy     :     0.030698

  7 N s       :     2.940782  s :     2.940782
      pz      :     1.014726  p :     3.288669
      px      :     1.150063
      py      :     1.123880
      dz2     :     0.093429  d :     1.264502
      dxz     :     0.140713
      dyz     :     0.241455
      dx2y2   :     0.402901
      dxy     :     0.386004

  8 O s       :     3.460210  s :     3.460210
      pz      :     1.350553  p :     4.337709
      px      :     1.488489
      py      :     1.498666
      dz2     :     0.029640  d :     0.261676
      dxz     :     0.035235
      dyz     :     0.034250
      dx2y2   :     0.080935
      dxy     :     0.081616

  9 O s       :     3.460043  s :     3.460043
      pz      :     1.350050  p :     4.337506
      px      :     1.686854
      py      :     1.300602
      dz2     :     0.029715  d :     0.261924
      dxz     :     0.006994
      dyz     :     0.062308
      dx2y2   :     0.079029
      dxy     :     0.083877

 10 H s       :     0.780034  s :     0.780034
      pz      :     0.021552  p :     0.044320
      px      :     0.014736
      py      :     0.008032

 11 H s       :     0.787415  s :     0.787415
      pz      :     0.008208  p :     0.044064
      px      :     0.010089
      py      :     0.025767

 12 H s       :     0.780077  s :     0.780077
      pz      :     0.021467  p :     0.044319
      px      :     0.014808
      py      :     0.008044

 13 H s       :     0.766581  s :     0.766581
      pz      :     0.008057  p :     0.045814
      px      :     0.028947
      py      :     0.008809

 14 H s       :     0.767389  s :     0.767389
      pz      :     0.008455  p :     0.045974
      px      :     0.007989
      py      :     0.029529

 15 H s       :     0.748240  s :     0.748240
      pz      :     0.008350  p :     0.047614
      px      :     0.022114
      py      :     0.017150

 16 H s       :     0.746124  s :     0.746124
      pz      :     0.008396  p :     0.047553
      px      :     0.008854
      py      :     0.030303


---------------------------------
LOEWDIN BOND ORDERS (THRESH 0.050000)
---------------------------------
B(  0-C ,  1-C ) :   1.1180 B(  0-C ,  2-C ) :   0.0870 B(  0-C ,  6-C ) :   0.0925 
B(  0-C , 10-H ) :   0.9062 B(  0-C , 11-H ) :   0.9154 B(  0-C , 12-H ) :   0.9063 
B(  1-C ,  2-C ) :   1.4144 B(  1-C ,  3-C ) :   0.0886 B(  1-C ,  4-C ) :   0.1141 
B(  1-C ,  5-C ) :   0.0946 B(  1-C ,  6-C ) :   1.4656 B(  1-C , 13-H ) :   0.0513 
B(  2-C ,  3-C ) :   1.5019 B(  2-C ,  4-C ) :   0.0940 B(  2-C ,  5-C ) :   0.1012 
B(  2-C ,  6-C ) :   0.0955 B(  2-C , 13-H ) :   0.8615 B(  2-C , 14-H ) :   0.0541 
B(  3-C ,  4-C ) :   1.5136 B(  3-C ,  5-C ) :   0.0941 B(  3-C ,  6-C ) :   0.1137 
B(  3-C , 13-H ) :   0.0529 B(  3-C , 14-H ) :   0.8642 B(  3-C , 15-H ) :   0.0517 
B(  4-C ,  5-C ) :   1.2960 B(  4-C ,  6-C ) :   0.0883 B(  4-C ,  7-N ) :   0.1684 
B(  4-C ,  8-O ) :   0.0850 B(  4-C , 14-H ) :   0.0550 B(  4-C , 15-H ) :   0.8424 
B(  5-C ,  6-C ) :   1.2898 B(  5-C ,  7-N ) :   1.1320 B(  5-C ,  8-O ) :   0.1867 
B(  5-C ,  9-O ) :   0.1864 B(  5-C , 15-H ) :   0.0516 B(  5-C , 16-H ) :   0.0511 
B(  6-C ,  7-N ) :   0.1660 B(  6-C ,  9-O ) :   0.0837 B(  6-C , 16-H ) :   0.8353 
B(  7-N ,  8-O ) :   2.5944 B(  7-N ,  9-O ) :   2.5956 B(  8-O ,  9-O ) :   0.5625 


------------------------------------------
LOEWDIN REDUCED ORBITAL POPULATIONS PER MO
-------------------------------------------
THRESHOLD FOR PRINTING IS 0.1%%
                      0         1         2         3         4         5   
                 -18.99175 -18.99143 -14.40296 -10.09678 -10.06031 -10.05675
                   2.00000   2.00000   2.00000   2.00000   2.00000   2.00000
                  --------  --------  --------  --------  --------  --------
 1 C  s               0.0       0.0       0.0       0.0      99.3       0.0
 2 C  py              0.0       0.0       0.0       0.0       0.1       0.0
 3 C  s               0.0       0.0       0.0       0.0       0.0       0.1
 3 C  px              0.0       0.0       0.0       0.0       0.0       0.1
 4 C  s               0.0       0.0       0.0       0.0       0.0      99.5
 4 C  py              0.0       0.0       0.0       0.1       0.0       0.0
 5 C  s               0.0       0.0       0.0      99.2       0.0       0.0
 5 C  py              0.0       0.0       0.0       0.0       0.0       0.1
 6 C  s               0.0       0.0       0.0       0.0       0.2       0.0
 6 C  px              0.0       0.0       0.0       0.1       0.1       0.0
 7 N  s               0.0       0.0      99.4       0.0       0.0       0.0
 7 N  px              0.0       0.0       0.0       0.1       0.0       0.0
 7 N  dx2y2           0.1       0.0       0.0       0.1       0.0       0.0
 8 O  s               0.0      99.8       0.0       0.0       0.0       0.0
 8 O  dxy             0.0       0.0       0.1       0.0       0.0       0.0
 9 O  s              99.8       0.0       0.0       0.0       0.0       0.0
 9 O  dx2y2           0.0       0.0       0.1       0.0       0.0       0.0

                      6         7         8         9        10        11   
                 -10.05459 -10.05051 -10.04949 -10.02342  -1.21138  -1.03157
                   2.00000   2.00000   2.00000   2.00000   2.00000   2.00000
                  --------  --------  --------  --------  --------  --------
 0 C  s               0.0       0.0       0.0      99.7       0.0       0.0
 1 C  s               0.2       0.1       0.0       0.0       0.0       0.0
 1 C  px              0.1       0.0       0.0       0.1       0.0       0.0
 1 C  py              0.0       0.1       0.0       0.0       0.0       0.0
 2 C  s               0.0      94.1       5.4       0.0       0.0       0.0
 3 C  s               0.0       5.4      94.1       0.0       0.0       0.0
 4 C  s               0.0       0.0       0.1       0.0       0.2       0.0
 4 C  px              0.0       0.0       0.1       0.0       0.3       0.1
 4 C  py              0.0       0.0       0.0       0.0       0.3       0.0
 5 C  s               0.0       0.0       0.0       0.0       2.2       0.0
 5 C  px              0.1       0.0       0.0       0.0       3.9       0.1
 5 C  py              0.1       0.0       0.0       0.0       0.4       1.0
 6 C  s              99.4       0.0       0.0       0.0       0.2       0.0
 6 C  px              0.0       0.0       0.0       0.0       0.6       0.1
 7 N  s               0.0       0.0       0.0       0.0      32.5       0.0
 7 N  px              0.0       0.0       0.0       0.0       2.7       3.0
 7 N  py              0.0       0.0       0.0       0.0       0.3      32.3
 7 N  dz2             0.0       0.0       0.0       0.0       1.4       0.0
 7 N  dx2y2           0.0       0.0       0.0       0.0       0.5       1.4
 7 N  dxy             0.0       0.0       0.0       0.0       0.2       3.1
 8 O  s               0.0       0.0       0.0       0.0      17.4      25.5
 8 O  px              0.0       0.0       0.0       0.0       2.9       2.0
 8 O  py              0.0       0.0       0.0       0.0       4.2       1.0
 8 O  dz2             0.0       0.0       0.0       0.0       0.6       0.1
 8 O  dx2y2           0.0       0.0       0.0       0.0       0.1       0.5
 8 O  dxy             0.0       0.0       0.0       0.0       1.7       0.2
 9 O  s               0.0       0.0       0.0       0.0      17.4      25.4
 9 O  px              0.0       0.0       0.0       0.0       0.1       0.7
 9 O  py              0.0       0.0       0.0       0.0       7.1       2.3
 9 O  dz2             0.0       0.0       0.0       0.0       0.6       0.1
 9 O  dx2y2           0.0       0.0       0.0       0.0       1.8       0.4
 9 O  dxy             0.0       0.0       0.0       0.0       0.0       0.3

                     12        13        14        15        16        17   
                  -0.86089  -0.78992  -0.75046  -0.67973  -0.66221  -0.58293
                   2.00000   2.00000   2.00000   2.00000   2.00000   2.00000
                  --------  --------  --------  --------  --------  --------
 0 C  s               1.3       4.7       7.9       7.9      18.8       2.1
 0 C  px              0.6       0.6       0.8       0.2       0.1       0.1
 0 C  py              0.4       0.9       0.3       0.2       0.4       1.8
 1 C  s               9.1      12.7       8.9       0.1       0.0       2.3
 1 C  px              1.3       0.6       0.1      13.8       2.6       1.1
 1 C  py              0.5       0.6       4.1       0.5       9.6       7.2
 1 C  dz2             0.1       0.1       0.1       0.0       0.0       0.0
 1 C  dx2y2           0.0       0.0       0.1       0.2       0.0       0.1
 1 C  dxy             0.0       0.0       0.0       0.1       0.2       0.0
 2 C  s               7.1      12.1       1.3       6.0      10.0       1.7
 2 C  px              1.9       0.4       1.6       0.8       0.1       1.4
 2 C  py              0.3       0.8       7.6       0.1       0.2      10.3
 2 C  dz2             0.1       0.1       0.0       0.0       0.0       0.0
 2 C  dxy             0.0       0.0       0.2       0.0       0.0       0.2
 3 C  s               7.5       3.9      17.7       1.1       0.0      11.6
 3 C  px              0.3       1.7       1.2       2.5      10.6       0.2
 3 C  py              2.0       0.9       0.3       0.0       0.7       4.2
 3 C  dz2             0.1       0.0       0.1       0.0       0.0       0.0
 3 C  dxy             0.0       0.1       0.0       0.1       0.2       0.0
 4 C  s              10.9       0.3      12.5       0.6      12.1       1.6
 4 C  px              0.6       2.7       2.9       0.1       0.5       6.8
 4 C  py              2.2       1.4       1.0       0.6       0.1       4.6
 4 C  dz2             0.1       0.0       0.1       0.0       0.0       0.0
 4 C  dx2y2           0.0       0.1       0.1       0.0       0.0       0.2
 5 C  s              17.3       8.4       0.2       0.9       0.3       0.8
 5 C  px              1.2       3.8       0.1      13.9       0.3       0.1
 5 C  py              0.1       0.1       7.7       0.4       6.9       9.9
 5 C  dz2             0.3       0.1       0.0       0.0       0.0       0.0
 5 C  dx2y2           0.0       0.1       0.1       0.2       0.2       0.1
 5 C  dxy             0.0       0.1       0.1       0.4       0.0       0.0
 6 C  s              11.8       0.3       8.1      14.2       0.7       4.3
 6 C  px              0.0       7.3       1.0       0.3       0.1       0.9
 6 C  py              2.7       0.0       0.3       0.4       0.1       3.6
 6 C  dz2             0.1       0.0       0.1       0.1       0.0       0.0
 6 C  dxy             0.0       0.1       0.0       0.0       0.0       0.0
 7 N  s               0.8       2.6       0.3       4.3       0.8       0.6
 7 N  px              8.1      14.4       1.1       5.9       0.7       0.0
 7 N  py              0.7       1.3       0.1       0.6       0.1       0.2
 7 N  dz2             0.1       0.0       0.0       0.7       0.2       0.2
 7 N  dx2y2           1.0       0.9       0.3       0.0       0.2       0.6
 7 N  dxy             0.4       0.5       0.2       0.3       0.3       1.3
 8 O  s               1.1       3.0       0.1       3.9       0.2       0.0
 8 O  px              0.5       1.3       0.1       2.2       0.1       0.0
 8 O  py              0.2       0.2       0.0       0.1       0.1       0.3
 8 O  dz2             0.0       0.1       0.0       0.1       0.0       0.0
 8 O  dx2y2           0.6       0.9       0.0       0.3       0.0       0.0
 8 O  dxy             0.0       0.2       0.1       0.3       0.1       0.1
 9 O  s               1.1       2.8       0.6       2.6       1.1       2.1
 9 O  px              0.6       1.2       0.2       0.7       0.3       0.5
 9 O  py              0.1       0.3       0.1       1.0       0.4       1.5
 9 O  dx2y2           0.0       0.0       0.0       0.2       0.0       0.0
 9 O  dxy             0.6       1.1       0.1       0.5       0.1       0.0
10 H  s               0.1       0.6       1.1       1.8       4.2       0.6
10 H  pz              0.0       0.0       0.1       0.1       0.2       0.0
10 H  px              0.0       0.0       0.0       0.1       0.1       0.0
11 H  s               0.1       0.6       1.2       1.3       4.5       1.5
11 H  py              0.0       0.0       0.1       0.1       0.3       0.1
12 H  s               0.1       0.6       1.1       1.8       4.2       0.6
12 H  pz              0.0       0.0       0.1       0.1       0.2       0.0
12 H  px              0.0       0.0       0.0       0.1       0.1       0.0
13 H  s               0.6       1.4       0.1       1.8       2.1       0.5
13 H  px              0.0       0.1       0.0       0.2       0.2       0.0
14 H  s               0.6       0.4       2.5       0.3       0.0       6.6
14 H  py              0.0       0.0       0.2       0.0       0.0       0.5
15 H  s               1.0       0.1       1.7       0.0       3.2       0.8
15 H  px              0.0       0.0       0.1       0.0       0.2       0.0
15 H  py              0.0       0.0       0.1       0.0       0.1       0.1
16 H  s               1.0       0.0       1.4       2.5       0.1       3.6
16 H  py              0.1       0.0       0.1       0.2       0.0       0.3

                     18        19        20        21        22        23   
                  -0.55927  -0.52393  -0.51896  -0.49799  -0.47255  -0.44626
                   2.00000   2.00000   2.00000   2.00000   2.00000   2.00000
                  --------  --------  --------  --------  --------  --------
 0 C  s               1.7       2.3       0.0       0.1       0.1       0.0
 0 C  px              1.7       4.4       0.0       0.0       0.0       2.6
 0 C  py              0.3       1.0       0.0       0.8       0.5       5.0
 1 C  s               3.2       4.0       0.0       0.4       0.9       0.1
 1 C  px              2.1       0.5       0.0       0.9       1.7       5.8
 1 C  py              0.3       1.3       0.0       0.7       0.1       6.4
 1 C  dxy             0.0       0.1       0.0       0.0       0.2       0.0
 2 C  s               1.8       0.1       0.0       0.0       2.7       0.3
 2 C  px              1.1       0.1       0.0       0.2      20.9       0.5
 2 C  py              2.6       0.6       0.0       2.7       1.1      12.5
 3 C  s               0.0       0.6       0.0       0.1       1.3       0.1
 3 C  px              4.0       0.6       0.0       2.6       0.4      12.2
 3 C  py              0.0       3.9       0.0       0.1       2.5       2.0
 3 C  dx2y2           0.0       0.0       0.0       0.0       0.1       0.0
 4 C  s               1.1       0.7       0.0       0.6       2.6       0.0
 4 C  pz              0.0       0.0       0.7       0.0       0.0       0.0
 4 C  px              0.2       1.5       0.0       0.2       9.4       6.3
 4 C  py              1.6       9.5       0.0       2.2       2.0       6.8
 4 C  dx2y2           0.0       0.1       0.0       0.0       0.1       0.1
 5 C  s               2.9       2.3       0.0       0.1       0.2       0.0
 5 C  pz              0.0       0.0       6.3       0.0       0.0       0.0
 5 C  px              0.4      10.5       0.0       0.0       0.8       0.8
 5 C  py              1.4       0.0       0.0       1.2       0.0      10.3
 5 C  dxz             0.0       0.0       0.2       0.0       0.0       0.0
 5 C  dx2y2           0.0       0.1       0.0       0.0       0.5       0.1
 5 C  dxy             0.0       0.0       0.0       0.1       0.3       0.1
 6 C  s               0.0       0.2       0.0       0.3       2.7       0.0
 6 C  pz              0.0       0.0       0.7       0.0       0.0       0.0
 6 C  px              9.0       6.3       0.0       0.2       3.8       9.5
 6 C  py              0.0       6.6       0.0       0.2       6.1       1.2
 6 C  dx2y2           0.0       0.2       0.0       0.0       0.1       0.0
 6 C  dxy             0.2       0.3       0.0       0.0       0.0       0.0
 7 N  s               4.7       0.2       0.0       0.0       0.1       0.0
 7 N  pz              0.0       0.0      49.8       0.0       0.0       0.0
 7 N  px              4.1       6.9       0.0       1.9       4.2       0.1
 7 N  py              0.1       1.7       0.0      14.1       0.2       2.6
 7 N  dz2             1.8       0.1       0.0       0.0       0.0       0.0
 7 N  dx2y2           0.2       3.0       0.0       1.2       0.3       0.1
 7 N  dxy             1.0       0.2       0.0       3.9       0.1       0.3
 8 O  s              10.9       0.8       0.0       8.1       0.9       0.6
 8 O  pz              0.0       0.0      18.3       0.0       0.0       0.0
 8 O  px              4.8       0.2       0.0      16.5       0.2       1.8
 8 O  py             10.5       5.4       0.0       7.6       2.4       1.9
 8 O  dz2             0.1       0.0       0.0       0.1       0.0       0.0
 8 O  dxz             0.0       0.0       1.4       0.0       0.0       0.0
 8 O  dyz             0.0       0.0       1.3       0.0       0.0       0.0
 8 O  dx2y2           0.1       0.3       0.0       0.0       0.1       0.0
 8 O  dxy             0.3       0.1       0.0       0.2       0.2       0.0
 9 O  s               7.3       3.2       0.0       7.5       0.6       0.7
 9 O  pz              0.0       0.0      18.4       0.0       0.0       0.0
 9 O  px              0.2       0.7       0.0       4.5       0.4       0.1
 9 O  py             11.9       7.7       0.0      18.4       1.4       4.2
 9 O  dxz             0.0       0.0       0.1       0.0       0.0       0.0
 9 O  dyz             0.0       0.0       2.6       0.0       0.0       0.0
 9 O  dx2y2           0.5       0.1       0.0       0.1       0.1       0.0
 9 O  dxy             0.0       0.1       0.0       0.1       0.1       0.0
10 H  s               1.0       1.8       0.0       0.0       0.0       0.4
11 H  s               0.5       0.8       0.0       0.4       0.2       2.4
12 H  s               1.0       1.8       0.0       0.0       0.0       0.4
13 H  s               1.8       0.1       0.0       0.0      12.5       0.3
13 H  px              0.1       0.0       0.0       0.0       0.5       0.0
14 H  s               0.0       1.4       0.0       0.1       0.1       0.2
14 H  px              0.0       0.0       0.0       0.0       0.0       0.1
15 H  s               0.4       3.7       0.0       1.0       7.0       0.0
15 H  px              0.1       0.1       0.0       0.0       0.2       0.0
15 H  py              0.0       0.1       0.0       0.0       0.2       0.1
16 H  s               0.1       1.4       0.0       0.3       6.2       0.0
16 H  px              0.0       0.1       0.0       0.0       0.0       0.1
16 H  py              0.0       0.0       0.0       0.0       0.3       0.0

                     24        25        26        27        28        29   
                  -0.41547  -0.39661  -0.39230  -0.35787  -0.34816  -0.33862
                   2.00000   2.00000   2.00000   2.00000   2.00000   2.00000
                  --------  --------  --------  --------  --------  --------
 0 C  s               0.1       0.0       0.3       0.0       0.0       0.2
 0 C  pz              0.0      37.7       0.0       0.0      16.3       0.0
 0 C  px              1.1       0.0      10.8      13.1       0.0      15.7
 0 C  py              2.8       0.0       8.3      20.6       0.0       1.2
 0 C  dz2             0.0       0.0       0.1       0.2       0.0       0.2
 0 C  dxz             0.0       0.2       0.0       0.0       0.3       0.0
 0 C  dx2y2           0.0       0.0       0.0       0.2       0.0       0.2
 0 C  dxy             0.1       0.0       0.2       0.1       0.0       0.0
 1 C  s               1.5       0.0       0.2       0.0       0.0       0.3
 1 C  pz              0.0      18.8       0.0       0.0       1.4       0.0
 1 C  px              0.1       0.0      11.0       0.3       0.0      10.7
 1 C  py              1.9       0.0       6.9       0.1       0.0       0.9
 1 C  dxz             0.0       0.0       0.0       0.0       0.2       0.0
 1 C  dyz             0.0       0.0       0.0       0.0       0.1       0.0
 1 C  dx2y2           0.3       0.0       0.0       0.1       0.0       0.7
 1 C  dxy             0.0       0.0       0.0       0.0       0.0       0.4
 2 C  s               1.5       0.0       0.3       0.4       0.0       0.3
 2 C  pz              0.0       6.9       0.0       0.0       6.9       0.0
 2 C  px              3.0       0.0       2.2       8.7       0.0      12.5
 2 C  py              0.3       0.0       0.2       0.1       0.0       1.4
 2 C  dx2y2           0.2       0.0       0.0       0.2       0.0       0.6
 2 C  dxy             0.0       0.0       0.1       0.2       0.0       0.3
 3 C  s               0.7       0.0       0.4       0.3       0.0       0.1
 3 C  pz              0.0       2.8       0.0       0.0      14.4       0.0
 3 C  px              2.8       0.0       2.3       5.8       0.0       5.7
 3 C  py             27.6       0.0       0.5       0.1       0.0       0.1
 3 C  dx2y2           0.2       0.0       0.0       0.2       0.0       0.2
 3 C  dxy             0.1       0.0       0.3       0.0       0.0       0.2
 4 C  s               1.0       0.0       0.2       0.1       0.0       0.1
 4 C  pz              0.0       2.1       0.0       0.0      17.9       0.0
 4 C  px              1.4       0.0      11.0       3.6       0.0       6.2
 4 C  py              1.2       0.0      10.3       1.7       0.0       0.3
 4 C  dx2y2           0.4       0.0       0.0       0.0       0.0       0.0
 4 C  dxy             0.1       0.0       0.4       0.0       0.0       0.1
 5 C  s               2.4       0.0       0.4       0.0       0.0       0.5
 5 C  pz              0.0       2.5       0.0       0.0      15.3       0.0
 5 C  px              1.0       0.0       0.0       0.3       0.0       0.2
 5 C  py              0.1       0.0       2.9       2.2       0.0       0.9
 5 C  dxz             0.0       0.1       0.0       0.0       0.1       0.0
 5 C  dx2y2           0.0       0.0       0.1       0.2       0.0       0.2
 5 C  dxy             0.1       0.0       0.4       0.0       0.0       0.2
 6 C  s               0.3       0.0       0.5       0.3       0.0       0.7
 6 C  pz              0.0       6.2       0.0       0.0       8.5       0.0
 6 C  px              0.8       0.0       0.5       0.1       0.0      10.1
 6 C  py             14.5       0.0       7.3       4.5       0.0       0.3
 6 C  dyz             0.0       0.0       0.0       0.0       0.1       0.0
 6 C  dx2y2           0.2       0.0       0.0       0.1       0.0       0.0
 6 C  dxy             0.2       0.0       0.1       0.1       0.0       0.1
 7 N  s               0.1       0.0       0.0       0.0       0.0       0.2
 7 N  pz              0.0       0.3       0.0       0.0       0.5       0.0
 7 N  px              0.1       0.0       0.0       0.2       0.0       0.7
 7 N  py              0.1       0.0       0.0       0.2       0.0       0.0
 7 N  dxz             0.0       0.2       0.0       0.0       1.6       0.0
 7 N  dyz             0.0       0.0       0.0       0.0       0.2       0.0
 7 N  dx2y2           0.3       0.0       0.2       0.1       0.0       0.8
 7 N  dxy             0.6       0.0       0.0       0.1       0.0       0.1
 8 O  pz              0.0       0.4       0.0       0.0       1.6       0.0
 8 O  px              0.4       0.0       0.8       0.0       0.0       0.6
 8 O  py              0.0       0.0       0.3       0.0       0.0       1.5
 8 O  dxy             0.0       0.0       0.1       0.0       0.0       0.1
 9 O  pz              0.0       0.3       0.0       0.0       2.0       0.0
 9 O  px              1.5       0.0       0.0       0.0       0.0       1.4
 9 O  py              0.1       0.0       0.0       0.5       0.0       0.0
10 H  s               0.1      10.1       1.7       3.5       5.7       2.9
10 H  pz              0.0       0.0       0.1       0.2       0.0       0.1
10 H  px              0.0       0.3       0.0       0.0       0.1       0.0
10 H  py              0.0       0.0       0.1       0.1       0.0       0.0
11 H  s               0.9       0.0       1.4      15.9       0.0       3.5
11 H  pz              0.0       0.2       0.0       0.0       0.1       0.0
11 H  px              0.0       0.0       0.2       0.0       0.0       0.0
11 H  py              0.0       0.0       0.0       0.3       0.0       0.1
12 H  s               0.1      10.1       1.8       3.6       5.7       2.9
12 H  pz              0.0       0.0       0.1       0.2       0.0       0.1
12 H  px              0.0       0.3       0.0       0.0       0.1       0.0
12 H  py              0.0       0.0       0.1       0.1       0.0       0.0
13 H  s               0.1       0.0       0.5       6.5       0.0       9.7
13 H  px              0.0       0.0       0.0       0.1       0.0       0.1
14 H  s              16.7       0.0       0.1       0.8       0.0       0.5
14 H  py              0.5       0.0       0.0       0.0       0.0       0.0
15 H  s               0.4       0.0      11.2       0.1       0.0       2.4
15 H  pz              0.0       0.0       0.0       0.0       0.1       0.0
15 H  px              0.0       0.0       0.1       0.0       0.0       0.0
16 H  s               9.2       0.0       2.3       3.3       0.0       0.3
16 H  py              0.2       0.0       0.0       0.1       0.0       0.0

                     30        31        32        33        34        35   
                  -0.32302  -0.30361  -0.29447  -0.26885  -0.26086  -0.24478
                   2.00000   2.00000   2.00000   2.00000   2.00000   2.00000
                  --------  --------  --------  --------  --------  --------
 0 C  s               0.4       0.0       0.0       0.0       0.0       0.0
 0 C  pz              0.0       0.0       0.0       0.0       0.2       3.8
 0 C  px              2.3       0.0       0.9       0.1       0.0       0.0
 0 C  py             11.0       0.0       0.0       0.0       0.0       0.0
 0 C  dxz             0.0       0.0       0.0       0.0       0.0       0.5
 0 C  dx2y2           0.1       0.0       0.0       0.0       0.0       0.0
 0 C  dxy             0.2       0.0       0.0       0.0       0.0       0.0
 1 C  pz              0.0       0.1       0.0       0.0       0.3      25.9
 1 C  px              0.5       0.0       0.9       0.3       0.0       0.0
 1 C  py             13.5       0.0       0.0       0.0       0.0       0.0
 1 C  dxz             0.0       0.0       0.0       0.0       0.2       0.2
 1 C  dyz             0.0       0.0       0.0       0.0       0.3       0.0
 1 C  dx2y2           0.3       0.0       0.0       0.0       0.0       0.0
 1 C  dxy             0.6       0.0       0.1       0.0       0.0       0.0
 2 C  pz              0.0       0.0       0.0       0.0      25.7       6.8
 2 C  px              0.3       0.0       0.0       0.0       0.0       0.0
 2 C  py             13.3       0.0       0.0       0.1       0.0       0.0
 2 C  dyz             0.0       0.0       0.0       0.0       0.1       0.4
 2 C  dx2y2           0.2       0.0       0.0       0.0       0.0       0.0
 2 C  dxy             0.2       0.0       0.0       0.0       0.0       0.0
 3 C  s               0.1       0.0       0.0       0.1       0.0       0.0
 3 C  pz              0.0       0.1       0.0       0.0      23.8       6.7
 3 C  px              0.6       0.0       0.5       0.3       0.0       0.0
 3 C  py             10.2       0.0       0.3       0.0       0.0       0.0
 3 C  dxz             0.0       0.0       0.0       0.0       0.1       0.4
 3 C  dx2y2           0.5       0.0       0.0       0.0       0.0       0.0
 3 C  dxy             0.3       0.0       0.0       0.0       0.0       0.0
 4 C  s               0.1       0.0       0.0       0.3       0.0       0.0
 4 C  pz              0.0       0.3       0.0       0.0       0.1      25.8
 4 C  px              0.5       0.0       0.1       0.8       0.0       0.0
 4 C  py              6.0       0.0       1.0       0.0       0.0       0.0
 4 C  dxz             0.0       0.0       0.0       0.0       0.3       0.0
 4 C  dyz             0.0       0.0       0.0       0.0       0.3       0.0
 4 C  dx2y2           0.1       0.0       0.0       0.0       0.0       0.0
 4 C  dxy             0.5       0.0       0.1       0.0       0.0       0.0
 5 C  s               0.0       0.0       0.3       0.0       0.0       0.0
 5 C  pz              0.0       0.0       0.0       0.0      20.7       3.0
 5 C  px              0.7       0.0       6.7       0.1       0.0       0.0
 5 C  py              6.8       0.0       0.6       0.5       0.0       0.0
[...]
 8 O  px              0.1       0.4       2.0       0.9       0.4       0.0
 8 O  py              0.0       0.7       1.3       0.5       4.2       0.7
 8 O  dz2             0.1       0.2       0.3       0.0       0.5       0.3
 8 O  dx2y2           0.1       4.9       8.0       3.8      10.8       0.9
 8 O  dxy             0.0       0.0       0.0       0.2       0.1       0.1
 9 O  s               3.1       0.0       0.0      17.6       0.7       0.5
 9 O  px              0.1       3.8       0.1       0.5       3.6       0.1
 9 O  py              0.2       0.2       0.2       0.1       1.8       0.5
 9 O  dz2             0.2       0.5       0.0       0.1       0.4       0.3
 9 O  dx2y2           0.0       2.9       0.1       0.7       1.3       0.2
 9 O  dxy             0.2       9.5       1.5       0.7      11.9       0.5
10 H  s               2.0       0.1       0.4       0.1       0.0       0.0
10 H  pz              4.5       0.1       0.7       0.1       0.0       0.0
10 H  px              0.8       0.0       0.1       0.2       0.0       0.0
11 H  s               4.9       1.9       3.3       0.2       0.0       0.1
11 H  px              1.3       0.8       1.0       0.0       0.0       0.0
11 H  py             11.4       3.9       6.8       0.5       0.1       0.1
12 H  s               2.0       0.1       0.4       0.1       0.0       0.0
12 H  pz              4.5       0.1       0.7       0.1       0.0       0.0
12 H  px              0.8       0.0       0.1       0.2       0.0       0.0
13 H  s               0.3       1.0       0.2       0.0       1.3       1.8
13 H  px              1.2       2.8       0.4       0.0       2.6       3.1
13 H  py              0.0       0.1       0.4       0.0       0.3       0.3
14 H  s               0.4       0.0       2.0       0.0       1.3       2.3
14 H  px              0.0       0.1       0.4       0.1       0.3       0.2
14 H  py              1.1       0.0       5.5       0.0       2.8       4.0
15 H  s               0.9       1.2       0.5       0.1       0.3       2.6
15 H  px              1.4       2.0       1.1       0.0       0.4       2.7
15 H  py              1.5       1.7       0.4       0.7       0.5       2.4
16 H  s               2.2       0.2       3.3       0.0       0.0       1.8
16 H  px              0.2       0.3       0.8       0.3       0.0       0.2
16 H  py              7.4       0.2       8.5       0.1       0.1       3.3

                    228       229       230       231       232       233   
                   4.80292   4.87113  21.44638  21.85866  22.02802  22.06933
                   0.00000   0.00000   0.00000   0.00000   0.00000   0.00000
                  --------  --------  --------  --------  --------  --------
 0 C  s               0.0       0.0       1.4      31.1      36.2      23.6
 1 C  s               0.0       0.0      29.0      20.2       2.6       2.0
 1 C  px              0.0       0.0       0.0       0.0       0.2       0.0
 1 C  py              0.0       0.0       0.0       0.0       0.0       0.1
 2 C  s               0.0       0.0      20.9       0.1       8.2      37.3
 3 C  s               0.0       0.0      16.4      20.2      11.8       0.1
 4 C  s               0.0       0.1      10.7      21.1       1.0      27.5
 4 C  dxy             0.1       0.0       0.0       0.0       0.0       0.0
 5 C  s               0.1       0.0       5.1       3.2       8.0       4.0
 5 C  px              0.2       0.0       0.0       0.0       0.0       0.0
 5 C  py              0.0       0.3       0.0       0.1       0.0       0.0
 5 C  dx2y2           0.3       0.0       0.0       0.0       0.0       0.0
 5 C  dxy             0.1       0.0       0.0       0.0       0.0       0.0
 6 C  s               0.0       0.1      16.1       3.6      31.5       5.0
 7 N  s               8.8       0.0       0.2       0.0       0.1       0.1
 7 N  px              4.9       1.7       0.0       0.0       0.0       0.0
 7 N  py              0.4      18.5       0.0       0.0       0.0       0.0
 7 N  dz2             6.8       0.0       0.0       0.0       0.0       0.0
 7 N  dx2y2           5.8       6.0       0.0       0.0       0.0       0.0
 7 N  dxy             2.6      13.3       0.0       0.0       0.0       0.0
 8 O  s              10.9       7.6       0.0       0.0       0.0       0.0
 8 O  px              5.7       4.1       0.0       0.0       0.0       0.0
 8 O  py              4.8       3.9       0.0       0.0       0.0       0.0
 8 O  dz2             4.2       2.3       0.0       0.0       0.0       0.0
 8 O  dxy             9.0      12.0       0.0       0.0       0.0       0.0
 9 O  s              10.9       7.6       0.0       0.0       0.0       0.0
 9 O  px              0.6       0.3       0.0       0.0       0.0       0.0
 9 O  py              9.8       7.7       0.0       0.0       0.0       0.0
 9 O  dz2             4.2       2.3       0.0       0.0       0.0       0.0
 9 O  dx2y2           7.2      10.4       0.0       0.0       0.0       0.0
 9 O  dxy             1.9       1.6       0.0       0.0       0.0       0.0

                    234       235       236       237       238       239   
                  22.17726  22.21282  22.32948  31.93110  43.87448  44.01074
                   0.00000   0.00000   0.00000   0.00000   0.00000   0.00000
                  --------  --------  --------  --------  --------  --------
 0 C  s               3.4       3.7       0.0       0.0       0.0       0.0
 1 C  s              24.8      10.9      10.3       0.0       0.0       0.0
 2 C  s               0.1      19.5      13.6       0.0       0.0       0.0
 3 C  s              19.8      17.5      13.8       0.0       0.0       0.0
 4 C  s              23.9       0.0      15.2       0.0       0.0       0.0
 5 C  s               0.1      46.9      31.4       0.1       0.0       0.0
 6 C  s              27.5       0.7      15.2       0.0       0.0       0.0
 7 N  s               0.0       0.2       0.1      99.5       0.2       0.0
 8 O  s               0.0       0.0       0.0       0.1      50.4      49.3
 9 O  s               0.0       0.0       0.0       0.1      49.3      50.5



                      *****************************
                      * MAYER POPULATION ANALYSIS *
                      *****************************

  NA   - Mulliken gross atomic population
  ZA   - Total nuclear charge
  QA   - Mulliken gross atomic charge
  VA   - Mayer's total valence
  BVA  - Mayer's bonded valence
  FA   - Mayer's free valence

  ATOM       NA         ZA         QA         VA         BVA        FA
  0 C      6.5490     6.0000    -0.5490     3.7560     3.7560     0.0000
  1 C      5.8118     6.0000     0.1882     3.3919     3.3919     0.0000
  2 C      6.1459     6.0000    -0.1459     3.7872     3.7872     0.0000
  3 C      6.1876     6.0000    -0.1876     3.7394     3.7394    -0.0000
  4 C      6.2196     6.0000    -0.2196     3.7960     3.7960    -0.0000
  5 C      5.9525     6.0000     0.0475     3.7665     3.7665    -0.0000
  6 C      6.2894     6.0000    -0.2894     3.9443     3.9443    -0.0000
  7 N      6.5884     7.0000     0.4116     4.6153     4.6153    -0.0000
  8 O      8.2945     8.0000    -0.2945     2.1800     2.1800     0.0000
  9 O      8.2930     8.0000    -0.2930     2.1898     2.1898     0.0000
 10 H      0.8170     1.0000     0.1830     0.9516     0.9516     0.0000
 11 H      0.8240     1.0000     0.1760     0.9571     0.9571     0.0000
 12 H      0.8172     1.0000     0.1828     0.9517     0.9517     0.0000
 13 H      0.8106     1.0000     0.1894     0.9541     0.9541     0.0000
 14 H      0.8105     1.0000     0.1895     0.9547     0.9547    -0.0000
 15 H      0.7949     1.0000     0.2051     0.9483     0.9483    -0.0000
 16 H      0.7941     1.0000     0.2059     0.9487     0.9487    -0.0000

  Mayer bond orders larger than 0.100000
B(  0-C ,  1-C ) :   0.8004 B(  0-C , 10-H ) :   0.9661 B(  0-C , 11-H ) :   0.9865 
B(  0-C , 12-H ) :   0.9663 B(  1-C ,  2-C ) :   1.3306 B(  1-C ,  6-C ) :   1.3741 
B(  2-C ,  3-C ) :   1.3986 B(  2-C , 13-H ) :   0.9456 B(  3-C ,  4-C ) :   1.3409 
B(  3-C , 14-H ) :   0.9621 B(  4-C ,  5-C ) :   1.3501 B(  4-C , 15-H ) :   0.9397 
B(  5-C ,  6-C ) :   1.3809 B(  5-C ,  7-N ) :   1.0007 B(  6-C , 16-H ) :   0.9251 
B(  7-N ,  8-O ) :   1.7828 B(  7-N ,  9-O ) :   1.7849 B(  8-O ,  9-O ) :   0.2281 


-------
TIMINGS
-------

Total SCF time: 0 days 0 hours 0 min 36 sec 

Total time                  ....      36.538 sec
Sum of individual times     ....      35.930 sec  ( 98.3%)

SCF preparation             ....       0.280 sec  (  0.8%)
Fock matrix formation       ....      34.575 sec  ( 94.6%)
  Startup                   ....       0.064 sec  (  0.2% of F)
  Split-RI-J                ....       6.146 sec  ( 17.8% of F)
  XC integration            ....      21.389 sec  ( 61.9% of F)
    XC Preparation          ....       0.000 sec  (  0.0% of XC)
    Basis function eval.    ....       3.572 sec  ( 16.7% of XC)
    Density eval.           ....       6.827 sec  ( 31.9% of XC)
    XC-Functional eval.     ....       2.252 sec  ( 10.5% of XC)
    XC-Potential eval.      ....       7.584 sec  ( 35.5% of XC)
  CPCM terms                ....       6.327 sec  ( 18.3% of F)
Diagonalization             ....       0.000 sec  (  0.0%)
Density matrix formation    ....       0.272 sec  (  0.7%)
Total Energy calculation    ....       0.056 sec  (  0.2%)
Population analysis         ....       0.119 sec  (  0.3%)
Orbital Transformation      ....       0.058 sec  (  0.2%)
Orbital Orthonormalization  ....       0.000 sec  (  0.0%)
DIIS solution               ....       0.428 sec  (  1.2%)
  MO trafo                  ....       0.000 sec  (  0.0 % of DIIS)
  Orb grad                  ....       0.000 sec  (  0.0 % of DIIS)
  Energy W gradient         ....       0.000 sec  (  0.0 % of DIIS)
  DIIS error                ....       0.016 sec  (  3.6 % of DIIS)
  DIIS work                 ....       0.363 sec  ( 84.8 % of DIIS)
  Form Q                    ....       0.000 sec  (  0.0 % of DIIS)
  Form QpQm                 ....       0.000 sec  (  0.0 % of DIIS)
  Exp/Cayley                ....       0.000 sec  (  0.0 % of DIIS)
  Orb update                ....       0.000 sec  (  0.0 % of DIIS)
  Wake-sleep                ....       0.021 sec  (  5.0 % of DIIS)
SOSCF solution              ....       0.143 sec  (  0.4%)
  MO trafo                  ....       0.059 sec  ( 41.1 % of SOSCF)
  Orb grad                  ....       0.002 sec  (  1.3 % of SOSCF)
  Rot update                ....       0.044 sec  ( 30.8 % of SOSCF)
  Step                      ....       0.038 sec  ( 26.7 % of SOSCF)
Finished LeanSCF after  36.6 sec

Maximum memory used throughout the entire LEANSCF-calculation: 28.5 MB


-------------------------------------------------------------------------------
                          DFT DISPERSION CORRECTION                            
                                                                               
                                DFTD4 V3.4.0                                   
-------------------------------------------------------------------------------
The R2SCAN3C composite method is recognized
Using three-body term ABC
Active option DFTDOPT                   ...         5   

-------------------------   ----------------
Dispersion correction           -0.005827697
-------------------------   ----------------

------------------   -----------------
gCP correction             0.010760381
------------------   -----------------

-------------------------   --------------------
FINAL SINGLE POINT ENERGY      -475.979600730454
-------------------------   --------------------


------------------------------------------------------------------------------
                              ORCA PROPERTY CALCULATIONS
------------------------------------------------------------------------------

GBWName                                 ... sp_solv.gbw
Number of atoms                         ...     17
Number of basis functions               ...    240
Max core memory                         ...   1024 MB

Electric properties:
Dipole moment                           ... YES
Quadrupole moment                       ...  NO
Static polarizability (Dipole/Dipole)   ...  NO
Static polarizability (Dipole/Quad.)    ...  NO
Static polarizability (Quad./Quad.)     ...  NO
Static polarizability (Velocity)        ...  NO

Atomic electric properties:
Dipole moment                           ...  NO
Quadrupole moment                       ...  NO
Static polarizability                   ...  NO

Choice of electric origin               ... Center of mass
Position of electric origin             ...    -0.000037    -0.000003    -0.000000

General magnetic properties:
Magnetizability                         ...  NO

EPR properties:
g-Tensor (aka g-matrix)                 ...  NO
Zero-Field splitting spin-orbit         ...  NO
Zero-field splitting spin-spin          ...  NO
Hyperfine couplings                     ...  NO (   0 nuclei)
Quadrupole couplings                    ...  NO (   0 nuclei)
Contact density                         ...  NO (   0 nuclei)

NMR properties:
Chemical shifts                         ...  NO (   0 nuclei)
Spin-rotation constants                 ...  NO (   0 nuclei)
Spin-spin couplings                     ...  NO (   0 nuclei,    0 pairs)

Choice of magnetic origin               ... GIAO
Position of magnetic origin             ...     0.000000     0.000000     0.000000

Properties with geometric perturbations:
SCF Hessian                             ...  NO
IR spectrum                             ...  NO
VCD spectrum                            ...  NO
X-ray spectroscopy properties:
SCF XES/XAS/RIXS spectra                ...  NO


-------------
DIPOLE MOMENT
-------------

Method             : SCF
Type of density    : Electron Density
Multiplicity       :   1
Irrep              :   0
Energy             :  -475.9845334143723790 Eh
Relativity type    : 
Basis              : AO
                                X                 Y                 Z
Electronic contribution:      9.487906100      -1.270770172       0.000302242
Nuclear contribution   :    -12.322807399       0.653485256      -0.000424338
                        -----------------------------------------
Total Dipole Moment    :     -2.834901300      -0.617284916      -0.000122097
                        -----------------------------------------
Magnitude (a.u.)       :      2.901328327
Magnitude (Debye)      :      7.374590539



--------------------
Rotational spectrum 
--------------------
 
Rotational constants in cm-1:             0.090290             0.033318             0.024447 
Rotational constants in MHz :          2706.833285           998.839993           732.904297 

Dipole components along the rotational axes: 
x,y,z [a.u.] :    -2.834898    -0.617299    -0.000122 
x,y,z [Debye]:    -7.205739    -1.569048    -0.000310 

 

Dipole moment calculation done in   0.0 sec 

Maximum memory used throughout the entire PROP-calculation: 15.8 MB

--------------------------------
SUGGESTED CITATIONS FOR THIS RUN
--------------------------------

Below you find a list of papers that are relevant to this ORCA run
We neither can nor want to force you to cite these papers, but we appreciate if you do
You receive ORCA, which is the product of decades of hard work by many enthusiastic individuals, for free
The only thing we kindly ask in return is that you cite our papers,
We deeply appreciate it, if you show your appreciation for ORCA by not just citing the generic ORCA reference.

Please note that relegating all ORCA citations to the supporting information does *not* help us.
SI sections are not indexed - citations you put there will not count into any citation statistics
But we need these citations in order to attract the funding resources that allow us to do what we are doing

Therefore, if you are a happy ORCA user, please consider citing a few of the papers listed below in the main body of your paper

In addition to the list printed below, the program has created the file sp_solv.bibtex that contains the list in bibtex format
You can import this file easily into all common literature databanks and citation aid programs


List of essential papers. We consider these as the minimum necessary citations

  1. Neese,F.
     Software update: the ORCA program system, version 5.0
     WIRES Comput. Molec. Sci., 2022 12(1)e1606
     doi.org/10.1002/wcms.1606
  2. Grimme,S.; Hansen,A.; Ehlert,S.; Mewes,J.
     r2SCAN-3c: A 'Swiss army knife' composite electronic-structure method
     J. Chem. Phys., 2021 154 064103
     doi.org/10.1063/5.0040021

List of papers to cite with high priority. The work reported in these papers was absolutely
necessary for this run to complete.
Our perspective: the developers of density functionals and basis sets usually get cited in chemistry papers
Good! But without the algorithms to do something with them, the functionals or basis sets would not do anything.
Hence, in our opinion, the algorithm design and method developments papers are equally worthy of getting cited

  1. Neese,F.
     An improvement of the resolution of the identity approximation for the formation of the Coulomb matrix
     J. Comp. Chem., 2003 24(14)1740-1747
     doi.org/10.1002/jcc.10318
  2. Garcia-Rates,M.; Neese,F.
     Effect of the Solute Cavity on the Solvation Energy and its Derivatives within the Framework of the Gaussian Charge Scheme
     J. Comput. Chem., 2020 41 922-939
     doi.org/10.1002/jcc.26139
  3. Neese,F.
     The SHARK Integral Generation and Digestion System
     J. Comp. Chem., 2022  1-16
     doi.org/10.1002/jcc.26942
  4. Lehtola,S.; Steigemann,C.; Oliveira,M.; Marques,M.
     Recent developments in Libxc - A comprehensive library of functionals for density functional theory
     Software X, 2018 7 
     doi.org/10.1016/j.softx.2017.11.002
  5. Caldeweyher,E.; Bannwarth,C.; Grimme,S.
     Extension of the D3 dispersion coefficient model
     J. Chem. Phys., 2017 147 034112-XXXX
     doi.org/10.1063/1.4993215
  6. Caldeweyher,E.; Ehlert,S.; Hansen,A.; Neugebauer,H.; Spicher,S.; Bannwarth,C.; Grimme,S.
     A generally applicable atomic-charge dependent London dispersion correction
     J. Chem. Phys., 2019 150 154122-XXXX
     doi.org/10.1063/1.5090222
  7. Caldeweyher,E.; Mewes,J.; Ehlert,S.; Grimme,S.
     Extension and evaluation of the D4 London-dispersion model for periodic systems
     Phys. Chem. Chem. Phys., 2020 22(16)8499-8512
     doi.org/10.1039/D0CP00502A

List of suggested additional citations. These are papers that are important in the 'surrounding' of 
of this run, or papers that preceded the highly important papers. If you like your results we are grateful for a citation.

  1. Neese,F.
     The ORCA program system
     WIRES Comput. Molec. Sci., 2012 2(1)73-78
     doi.org/10.1002/wcms.81
  2. Neese,F.
     Software update: the ORCA program system, version 4.0
     WIRES Comput. Molec. Sci., 2018 8(1)1-6
     doi.org/10.1002/wcms.1327
  3. Neese,F.; Wennmohs,F.; Becker,U.; Riplinger,C.
     The ORCA quantum chemistry program package
     J. Chem. Phys., 2020 152 Art. No. L224108
     doi.org/10.1063/5.0004608

List of optional additional citations

  1. Neese,F.
     Approximate second-order SCF convergence for spin unrestricted wavefunctions
     Chem. Phys. Lett., 2000 325(1-3)93-98
     doi.org/10.1016/s0009-2614(00)00662-x

Timings for individual modules:

Sum of individual times          ...       38.257 sec (=   0.638 min)
Startup calculation              ...        1.177 sec (=   0.020 min)   3.1 %
SCF iterations                   ...       36.974 sec (=   0.616 min)  96.6 %
Property calculations            ...        0.106 sec (=   0.002 min)   0.3 %
                             ****ORCA TERMINATED NORMALLY****
TOTAL RUN TIME: 0 days 0 hours 0 minutes 38 seconds 950 msec
