      -----------------------------------------------------------      
     |                   =====================                   |     
     |                           x T B                           |     
     |                   =====================                   |     
     |                         S. Grimme                         |     
     |          Mulliken Center for Theoretical Chemistry        |     
     |                    University of Bonn                     |     
      -----------------------------------------------------------      

   * xtb version 6.7.1 (edcfbbe) compiled by 'albert@albert-system' on 2024-07-22

   xtb is free software: you can redistribute it and/or modify it under
   the terms of the GNU Lesser General Public License as published by
   the Free Software Foundation, either version 3 of the License, or
   (at your option) any later version.
   
   xtb is distributed in the hope that it will be useful,
   but WITHOUT ANY WARRANTY; without even the implied warranty of
   MERCHANTABILITY or FITNESS FOR A PARTICULAR PURPOSE.  See the
   GNU Lesser General Public License for more details.
   
   Cite this work as:
   * C. Bannwarth, E. Caldeweyher, S. Ehlert, A. Hansen, P. Pracht,
     J. Seibert, S. Spicher, S. Grimme, WIREs Comput. Mol. Sci., 2020, 11,
     e01493. DOI: 10.1002/wcms.1493
   
   for GFN2-xTB:
   * C. Bannwarth, S. Ehlert and S. Grimme., J. Chem. Theory Comput., 2019,
     15, 1652-1671. DOI: 10.1021/acs.jctc.8b01176
   for GFN1-xTB:
   * S. Grimme, C. Bannwarth, P. Shushkov, J. Chem. Theory Comput., 2017,
     13, 1989-2009. DOI: 10.1021/acs.jctc.7b00118
   for GFN0-xTB:
   * P. Pracht, E. Caldeweyher, S. Ehlert, S. Grimme, ChemRxiv, 2019, preprint.
     DOI: 10.26434/chemrxiv.8326202.v1
   for GFN-FF:
   * S. Spicher and S. Grimme, Angew. Chem. Int. Ed., 2020, 59, 15665-15673.
     DOI: 10.1002/anie.202004239
   
   for ALPB and GBSA implicit solvation:
   * S. Ehlert, M. Stahn, S. Spicher, S. Grimme, J. Chem. Theory Comput.,
     2021, 17, 4250-4261. DOI: 10.1021/acs.jctc.1c00471
   
   for ddCOSMO and CPCM-X implicit solvation:
   * M. Stahn, S. Ehlert, S. Grimme, J. Phys. Chem. A,
     2023, XX, XXXX-XXXX. DOI: 10.1021/acs.jpca.3c04382
   
   for DFT-D4:
   * E. Caldeweyher, C. Bannwarth and S. Grimme, J. Chem. Phys., 2017,
     147, 034112. DOI: 10.1063/1.4993215
   * E. Caldeweyher, S. Ehlert, A. Hansen, H. Neugebauer, S. Spicher,
     C. Bannwarth and S. Grimme, J. Chem. Phys., 2019, 150, 154122.
     DOI: 10.1063/1.5090222
   * E. Caldeweyher, J.-M. Mewes, S. Ehlert and S. Grimme, Phys. Chem. Chem. Phys.
     2020, 22, 8499-8512. DOI: 10.1039/D0CP00502A
   
   for sTDA-xTB:
   * S. Grimme and C. Bannwarth, J. Chem. Phys., 2016, 145, 054103.
     DOI: 10.1063/1.4959605
   
   in the mass-spec context:
   * V. Asgeirsson, C. Bauer and S. Grimme, Chem. Sci., 2017, 8, 4879.
     DOI: 10.1039/c7sc00601b
   * J. Koopman and S. Grimme, ACS Omega 2019, 4, 12, 15120-15133.
     DOI: 10.1021/acsomega.9b02011
   
   for metadynamics refer to:
   * S. Grimme, J. Chem. Theory Comput., 2019, 155, 2847-2862
     DOI: 10.1021/acs.jctc.9b00143
   
   for SPH calculations refer to:
   * S. Spicher and S. Grimme, J. Chem. Theory Comput., 2021, 17, 1701-1714
     DOI: 10.1021/acs.jctc.0c01306
   
   for ONIOM refer to:
   * C. Plett, A. Katbashev, S. Ehlert, S. Grimme, M. Bursch,
     Phys. Chem. Chem. Phys., 2023, 25, 17860-17868. DOI: 10.1039/D3CP02178E
   
   for DIPRO refer to:
   * J. Kohn, N. Gildemeister, S. Grimme, D. Fazzi, A. Hansen,
     J. Chem. Phys., 2023, just accepted.
   
   for PTB refer to:
   * S. Grimme, M. Mueller, A. Hansen, J. Chem. Phys., 2023, 158, 124111.
     DOI: 10.1063/5.0137838
   
   with help from (in alphabetical order)
   P. Atkinson, C. Bannwarth, F. Bohle, G. Brandenburg, E. Caldeweyher
   M. Checinski, S. Dohm, S. Ehlert, S. Ehrlich, I. Gerasimov, C. Hölzer
   A. Katbashev, J. Kohn, J. Koopman, C. Lavigne, S. Lehtola, F. März, M. Müller,
   F. Musil, H. Neugebauer, J. Pisarek, C. Plett, P. Pracht, F. Pultar,
   J. Seibert, P. Shushkov, S. Spicher, M. Stahn, M. Steiner, T. Strunk,
   J. Stückrath, T. Rose, and J. Unsleber
   
 * started run on 2025/04/06 at 18:00:42.760     
   ID    Z sym.   atoms
    1    6 C      1, 2, 4, 6, 8, 10
    2    1 H      3, 5, 7, 9, 11, 18-24
    3    8 O      12-17

           -------------------------------------------------
          |                Calculation Setup                |
           -------------------------------------------------

          program call               : /srv/scratch/z5358697/.xtb/bin/xtb solv.coord --gfn2 --sp --chrg 0 --norestart --parallel 1 --alpb water reference -I xtb_sp-xcontrol-inp
          hostname                   : k155
          coordinate file            : solv.coord
          omp threads                :                     1


           -------------------------------------------------
          |                 G F N 2 - x T B                 |
           -------------------------------------------------

        Reference                      10.1021/acs.jctc.8b01176
      * Hamiltonian:
        H0-scaling (s, p, d)           1.850000    2.230000    2.230000
        zeta-weighting                 0.500000
      * Dispersion:
        s8                             2.700000
        a1                             0.520000
        a2                             5.000000
        s9                             5.000000
      * Repulsion:
        kExp                           1.500000    1.000000
        rExp                           1.000000
      * Coulomb:
        alpha                          2.000000
        third order                    shell-resolved
        anisotropic                    true
        a3                             3.000000
        a5                             4.000000
        cn-shift                       1.200000
        cn-exp                         4.000000
        max-rad                        5.000000

      * Solvation model:               ALPB
        Solvent                        water
        Parameter file                 internal GFN2-xTB/ALPB
        Dielectric constant                8.0200E+01
        Reference state                gsolv=reference [X=1]
        Free energy shift                  2.8945E-03 Eh       1.8164E+00 kcal/mol
        Temperature                        2.9815E+02 K
        Density                            1.0000E+00 kg/L
        Solvent mass                       1.8000E+01 g/mol
        Interaction kernel             P16
        Born radius scaling (c1)           1.4744E+00
        Born radii integrator          GBOBC
        Born offset                        0.0000E+00 a0       0.0000E+00 AA
        H-bond correction              true
        Ion screening                  false
        Surface tension                    1.0000E-05 Eh       1.5569E+01 dyn/cm
        Grid points                               974 per atom

          ...................................................
          :                      SETUP                      :
          :.................................................:
          :  # basis functions                  60          :
          :  # atomic orbitals                  60          :
          :  # shells                           36          :
          :  # electrons                        72          :
          :  max. iterations                   250          :
          :  Hamiltonian                  GFN2-xTB          :
          :  restarted?                      false          :
          :  GBSA solvation                   true          :
          :  PC potential                    false          :
          :  electronic temp.          300.0000000     K    :
          :  accuracy                    1.0000000          :
          :  -> integral cutoff          0.2500000E+02      :
          :  -> integral neglect         0.1000000E-07      :
          :  -> SCF convergence          0.1000000E-05 Eh   :
          :  -> wf. convergence          0.1000000E-03 e    :
          :  Broyden damping             0.4000000          :
          :  net charge                          0          :
          :  unpaired electrons                  0          :
          ...................................................

 iter      E             dE          RMSdq      gap      omega  full diag
   1    -43.6517887 -0.436518E+02  0.483E+00   10.09       0.0  T
   2    -43.6843406 -0.325519E-01  0.260E+00   10.04       1.0  T
   3    -43.6864943 -0.215371E-02  0.593E-01   10.04       1.0  T
   4    -43.6868653 -0.371027E-03  0.181E-01   10.05       1.0  T
   5    -43.6869245 -0.591954E-04  0.733E-02   10.06       1.0  T
   6    -43.6869402 -0.156421E-04  0.219E-02   10.07       1.0  T
   7    -43.6869409 -0.761379E-06  0.523E-03   10.07       3.9  T
   8    -43.6869411 -0.183393E-06  0.199E-03   10.07      10.3  T
   9    -43.6869411 -0.992674E-08  0.849E-04   10.07      24.0  T
  10    -43.6869411 -0.284705E-08  0.299E-04   10.07      68.3  T

   *** convergence criteria satisfied after 10 iterations ***

         #    Occupation            Energy/Eh            Energy/eV
      -------------------------------------------------------------
         1        2.0000           -0.7310981             -19.8942
       ...           ...                  ...                  ...
        30        2.0000           -0.4645206             -12.6402
        31        2.0000           -0.4548817             -12.3780
        32        2.0000           -0.4463190             -12.1450
        33        2.0000           -0.4410246             -12.0009
        34        2.0000           -0.4251702             -11.5695
        35        2.0000           -0.4121196             -11.2143
        36        2.0000           -0.3992960             -10.8654 (HOMO)
        37                         -0.0293708              -0.7992 (LUMO)
        38                          0.0069923               0.1903
        39                          0.0165479               0.4503
        40                          0.0386064               1.0505
        41                          0.0419548               1.1416
       ...                                ...                  ...
        60                          0.3015774               8.2063
      -------------------------------------------------------------
                  HL-Gap            0.3699251 Eh           10.0662 eV
             Fermi-level           -0.2143334 Eh           -5.8323 eV

 SCC (total)                   0 d,  0 h,  0 min,  0.030 sec
 SCC setup                      ...        0 min,  0.002 sec (  5.101%)
 Dispersion                     ...        0 min,  0.000 sec (  0.470%)
 classical contributions        ...        0 min,  0.000 sec (  0.098%)
 integral evaluation            ...        0 min,  0.003 sec (  9.041%)
 iterations                     ...        0 min,  0.017 sec ( 58.408%)
 molecular gradient             ...        0 min,  0.008 sec ( 26.341%)
 printout                       ...        0 min,  0.000 sec (  0.483%)

         :::::::::::::::::::::::::::::::::::::::::::::::::::::
         ::                     SUMMARY                     ::
         :::::::::::::::::::::::::::::::::::::::::::::::::::::
         :: total energy             -43.384863331362 Eh    ::
         :: total w/o Gsasa/hb       -43.367210037874 Eh    ::
         :: gradient norm              0.000064964715 Eh/a0 ::
         :: HOMO-LUMO gap             10.066175643470 eV    ::
         ::.................................................::
         :: SCC energy               -43.686750433266 Eh    ::
         :: -> isotropic ES            0.169183694554 Eh    ::
         :: -> anisotropic ES         -0.006851770525 Eh    ::
         :: -> anisotropic XC         -0.009645429959 Eh    ::
         :: -> dispersion             -0.019558914223 Eh    ::
         :: -> Gsolv                  -0.035478847971 Eh    ::
         ::    -> Gelec               -0.017825554482 Eh    ::
         ::    -> Gsasa                0.005093388877 Eh    ::
         ::    -> Ghb                 -0.025641231526 Eh    ::
         ::    -> Gshift               0.002894549160 Eh    ::
         :: repulsion energy           0.301887101903 Eh    ::
         :: add. restraining           0.000000000000 Eh    ::
         :: total charge               0.000000000000 e     ::
         :::::::::::::::::::::::::::::::::::::::::::::::::::::

           -------------------------------------------------
          |                Property Printout                |
           -------------------------------------------------

    * Orbital Energies and Occupations

         #    Occupation            Energy/Eh            Energy/eV
      -------------------------------------------------------------
         1        2.0000           -0.7310981             -19.8942
       ...           ...                  ...                  ...
        24        2.0000           -0.5170241             -14.0689
        25        2.0000           -0.5068748             -13.7928
        26        2.0000           -0.4976828             -13.5426
        27        2.0000           -0.4914852             -13.3740
        28        2.0000           -0.4728440             -12.8667
        29        2.0000           -0.4702955             -12.7974
        30        2.0000           -0.4645206             -12.6402
        31        2.0000           -0.4548817             -12.3780
        32        2.0000           -0.4463190             -12.1450
        33        2.0000           -0.4410246             -12.0009
        34        2.0000           -0.4251702             -11.5695
        35        2.0000           -0.4121196             -11.2143
        36        2.0000           -0.3992960             -10.8654 (HOMO)
        37                         -0.0293708              -0.7992 (LUMO)
        38                          0.0069923               0.1903
        39                          0.0165479               0.4503
        40                          0.0386064               1.0505
        41                          0.0419548               1.1416
        42                          0.0584080               1.5894
        43                          0.0736720               2.0047
        44                          0.0871475               2.3714
        45                          0.0929903               2.5304
        46                          0.1070894               2.9141
        47                          0.1229323               3.3452
       ...                                ...                  ...
        60                          0.3015774               8.2063
      -------------------------------------------------------------
                  HL-Gap            0.3699251 Eh           10.0662 eV
             Fermi-level           -0.2143334 Eh           -5.8323 eV

     #   Z          covCN         q      C6AA      α(0)
     1   6 C        3.675     0.068    19.664     6.354
     2   6 C        3.755     0.092    19.118     6.235
     3   1 H        0.923     0.039     2.461     2.453
     4   6 C        3.725     0.086    19.258     6.266
     5   1 H        0.924     0.056     2.251     2.346
     6   6 C        3.728     0.100    19.030     6.228
     7   1 H        0.924     0.065     2.143     2.289
     8   6 C        3.724     0.085    19.262     6.267
     9   1 H        0.924     0.052     2.290     2.367
    10   6 C        3.631     0.244    17.166     5.965
    11   1 H        0.921     0.010     2.895     2.661
    12   8 O        1.700    -0.367    20.208     6.069
    13   8 O        1.657    -0.499    22.873     6.456
    14   8 O        1.656    -0.511    23.126     6.492
    15   8 O        1.655    -0.489    22.648     6.424
    16   8 O        1.655    -0.492    22.715     6.434
    17   8 O        1.655    -0.501    22.903     6.460
    18   1 H        0.924     0.068     2.108     2.270
    19   1 H        0.924     0.047     2.361     2.403
    20   1 H        0.804     0.394     0.495     1.106
    21   1 H        0.805     0.383     0.517     1.130
    22   1 H        0.804     0.349     0.590     1.207
    23   1 H        0.804     0.357     0.572     1.188
    24   1 H        0.805     0.364     0.557     1.172

 Mol. C6AA /au·bohr⁶  :       4725.119854
 Mol. C8AA /au·bohr⁸  :     100715.879839
 Mol. α(0) /au        :         98.241722


Wiberg/Mayer (AO) data.
largest (>0.10) Wiberg bond orders for each atom

 ---------------------------------------------------------------------------
     #   Z sym  total        # sym  WBO       # sym  WBO       # sym  WBO
 ---------------------------------------------------------------------------
     1   6 C    3.957 --    17 O    1.009     2 C    0.980    18 H    0.968
                            19 H    0.966
     2   6 C    3.940 --     1 C    0.980     4 C    0.958    12 O    0.957
                             3 H    0.955
     3   1 H    0.998 --     2 C    0.955
     4   6 C    3.959 --    16 O    1.007     5 H    0.960     6 C    0.958
                             2 C    0.958
     5   1 H    0.997 --     4 C    0.960
     6   6 C    3.957 --    15 O    1.007     8 C    0.966     7 H    0.958
                             4 C    0.958
     7   1 H    0.995 --     6 C    0.958
     8   6 C    3.957 --    14 O    1.000     6 C    0.966     9 H    0.961
                            10 C    0.949
     9   1 H    0.997 --     8 C    0.961
    10   6 C    3.926 --    13 O    1.021    12 O    0.952     8 C    0.949
                            11 H    0.943
    11   1 H    1.000 --    10 C    0.943
    12   8 O    2.061 --     2 C    0.957    10 C    0.952
    13   8 O    1.937 --    10 C    1.021    20 H    0.826
    14   8 O    1.920 --     8 C    1.000    21 H    0.839
    15   8 O    1.941 --     6 C    1.007    22 H    0.855
    16   8 O    1.936 --     4 C    1.007    23 H    0.848
    17   8 O    1.924 --     1 C    1.009    24 H    0.854
    18   1 H    0.995 --     1 C    0.968
    19   1 H    0.997 --     1 C    0.966
    20   1 H    0.845 --    13 O    0.826
    21   1 H    0.853 --    14 O    0.839
    22   1 H    0.878 --    15 O    0.855
    23   1 H    0.873 --    16 O    0.848
    24   1 H    0.868 --    17 O    0.854
 ---------------------------------------------------------------------------

Topologies differ in total number of bonds
Writing topology from bond orders to xtbtopo.mol

molecular dipole:
                 x           y           z       tot (Debye)
 q only:        0.516      -0.739       1.223
   full:        0.690      -1.023       1.562       5.059
molecular quadrupole (traceless):
                xx          xy          yy          xz          yz          zz
 q only:        0.173      -3.144      -4.873       3.489       0.724       4.700
  q+dip:        0.167      -3.552      -5.669       5.677      -1.496       5.502
   full:       -0.159      -3.773      -5.869       5.341      -0.560       6.028


           -------------------------------------------------
          | TOTAL ENERGY              -43.384863331362 Eh   |
          | GRADIENT NORM               0.000064964715 Eh/α |
          | HOMO-LUMO GAP              10.066175643470 eV   |
           -------------------------------------------------

------------------------------------------------------------------------
 * finished run on 2025/04/06 at 18:00:42.823     
------------------------------------------------------------------------
 total:
 * wall-time:     0 d,  0 h,  0 min,  0.062 sec
 *  cpu-time:     0 d,  0 h,  0 min,  0.029 sec
 * ratio c/w:     0.465 speedup
 SCF:
 * wall-time:     0 d,  0 h,  0 min,  0.030 sec
 *  cpu-time:     0 d,  0 h,  0 min,  0.020 sec
 * ratio c/w:     0.683 speedup

