
                                 *****************
                                 * O   R   C   A *
                                 *****************

                                            #,                                       
                                            ###                                      
                                            ####                                     
                                            #####                                    
                                            ######                                   
                                           ########,                                 
                                     ,,################,,,,,                         
                               ,,#################################,,                 
                          ,,##########################################,,             
                       ,#########################################, ''#####,          
                    ,#############################################,,   '####,        
                  ,##################################################,,,,####,       
                ,###########''''           ''''###############################       
              ,#####''   ,,,,##########,,,,          '''####'''          '####       
            ,##' ,,,,###########################,,,                        '##       
           ' ,,###''''                  '''############,,,                           
         ,,##''                                '''############,,,,        ,,,,,,###''
      ,#''                                            '''#######################'''  
     '                                                          ''''####''''         
             ,#######,   #######,   ,#######,      ##                                
            ,#'     '#,  ##    ##  ,#'     '#,    #''#        ,####,   ,####,        
            ##       ##  ##   ,#'  ##            #'  '#       #'       #'  '#        
            ##       ##  #######   ##           ,######,      #####,   #    #        
            '#,     ,#'  ##    ##  '#,     ,#' ,#      #,     #,   #   #,  ,#        
             '#######'   ##     ##  '#######'  #'      '#     '####' # '####'        



                #########################################################
                #                        -***-                          #
                #          Department of theory and spectroscopy        #
                #                                                       #
                #                      Frank Neese                      #
                #                                                       #
                #     Directorship, Architecture, Infrastructure        #
                #                    SHARK, DRIVERS                     #
                #        Core code/Algorithms in most modules           #
                #                                                       #
                #        Max Planck Institute fuer Kohlenforschung      #
                #                Kaiser Wilhelm Platz 1                 #
                #                 D-45470 Muelheim/Ruhr                 #
                #                      Germany                          #
                #                                                       #
                #                  All rights reserved                  #
                #                        -***-                          #
                #########################################################


                         Program Version 6.0.0  -   RELEASE  -


 With contributions from (in alphabetic order):
   Daniel Aravena         : Magnetic Suceptibility
   Michael Atanasov       : Ab Initio Ligand Field Theory (pilot matlab implementation)
   Alexander A. Auer      : GIAO ZORA, VPT2 properties, NMR spectrum
   Ute Becker             : All parallelization in ORCA, NUMFREQ, NUMCALC
   Giovanni Bistoni       : ED, misc. LED, open-shell LED, HFLD
   Martin Brehm           : Molecular dynamics
   Dmytro Bykov           : pre 5.0 version of the SCF Hessian
   Marcos Casanova-Páez   : Triplet and SCS-CIS(D). UHF-(DLPNO)-IP/EA/STEOM-CCSD. UHF-CVS-IP/STEOM-CCSD
   Vijay G. Chilkuri      : MRCI spin determinant printing, contributions to CSF-ICE
   Pauline Colinet        : FMM embedding
   Dipayan Datta          : RHF DLPNO-CCSD density
   Achintya Kumar Dutta   : EOM-CC, STEOM-CC
   Nicolas Foglia         : Exact transition moments, OPA infrastructure, MCD improvements
   Dmitry Ganyushin       : Spin-Orbit,Spin-Spin,Magnetic field MRCI
   Miquel Garcia          : C-PCM and meta-GGA Hessian, CCSD/C-PCM, Gaussian charge scheme
   Tiago L. C. Gouveia    : GS-ROHF, GS-ROCIS
   Yang Guo               : DLPNO-NEVPT2, F12-NEVPT2, CIM, IAO-localization
   Andreas Hansen         : Spin unrestricted coupled pair/coupled cluster methods
   Ingolf Harden          : AUTO-CI MPn and infrastructure 
   Benjamin Helmich-Paris : MC-RPA, TRAH-(SCF,CASSCF), AVAS, COSX integrals, SCF dyn. polar.
   Lee Huntington         : MR-EOM, pCC
   Robert Izsak           : Overlap fitted RIJCOSX, COSX-SCS-MP3, EOM
   Riya Kayal             : Wick's Theorem for AUTO-CI, AUTO-CI UHF-CCSDT
   Emily Kempfer          : AUTO-CI, RHF CISDT and CCSDT
   Christian Kollmar      : KDIIS, OOCD, Brueckner-CCSD(T), CCSD density, CASPT2, CASPT2-K, improved NEVPT2
   Axel Koslowski         : Symmetry handling
   Simone Kossmann        : Meta GGA functionals, TD-DFT gradient, OOMP2, (MP2 Hessian; deprecated post 5.0)
   Lucas Lang             : DCDCAS
   Marvin Lechner         : AUTO-CI (C++ implementation), FIC-MRCC
   Spencer Leger          : CASSCF response
   Dagmar Lenk            : GEPOL surface, SMD, ORCA-2-JSON
   Dimitrios Liakos       : Extrapolation schemes; Compound Job, initial MDCI parallelization
   Dimitrios Manganas     : Further ROCIS development; embedding schemes. LFT, Crystal Embedding
   Dimitrios Pantazis     : SARC Basis sets
   Anastasios Papadopoulos: AUTO-CI, single reference methods and gradients
   Taras Petrenko         : pre 6.0 DFT Hessian and TD-DFT gradient, (ASA, deprecated), ECA, 1-Electron XAS/XES, NRVS
   Peter Pinski           : DLPNO-MP2, DLPNO-MP2 Gradient
   Christoph Reimann      : Effective Core Potentials
   Marius Retegan         : Local ZFS, SOC
   Christoph Riplinger    : Optimizer, TS searches, QM/MM, DLPNO-CCSD(T), (RO)-DLPNO pert. Triples
   Michael Roemelt        : Original ROCIS implementation
   Masaaki Saitow         : Open-shell DLPNO-CCSD energy and density
   Barbara Sandhoefer     : DKH picture change effects
   Kantharuban Sivalingam : CASSCF convergence/infrastructure, NEVPT2 and variants, FIC-MRCI
   Bernardo de Souza      : ESD, SOC TD-DFT
   Georgi Stoychev        : AutoAux, RI-MP2 NMR, DLPNO-MP2 response, X2C
   Van Anh Tran           : RI-MP2 g-tensors
   Willem Van den Heuvel  : Paramagnetic NMR
   Zikuan Wang            : NOTCH, Electric field optimization 
   Frank Wennmohs         : Technical directorship and infrastructure
   Hang Xu                : AUTO-CI-Response properties 


 We gratefully acknowledge several colleagues who have allowed us to
 interface, adapt or use parts of their codes:
   Stefan Grimme, W. Hujo, H. Kruse, P. Pracht,  : VdW corrections, initial TS optimization,
                  C. Bannwarth, S. Ehlert,         DFT functionals, gCP, sTDA/sTD-DF
                  L. Wittmann, M. Mueller
   Ed Valeev, F. Pavosevic, A. Kumar             : LibInt (2-el integral package), F12 methods
   Garnet Chan, S. Sharma, J. Yang, R. Olivares  : DMRG
   Ulf Ekstrom                                   : XCFun DFT Library
   Mihaly Kallay                                 : mrcc  (arbitrary order and MRCC methods)
   Frank Weinhold                                : gennbo (NPA and NBO analysis)
   Simon Mueller                                 : openCOSMO-RS
   Christopher J. Cramer and Donald G. Truhlar   : smd solvation model
   Lars Goerigk                                  : TD-DFT with DH, B97 family of functionals
   V. Asgeirsson, H. Jonsson                     : NEB implementation
   FAccTs GmbH                                   : IRC, NEB, NEB-TS, DLPNO-Multilevel, CI-OPT
                                                   MM, QMMM, 2- and 3-layer-ONIOM, Crystal-QMMM,
                                                   LR-CPCM, SF, NACMEs, symmetry and pop. for TD-DFT,
                                                   nearIR, NL-DFT gradient (VV10), updates on ESD,
                                                   ML-optimized integration grids, MBIS, APM,
                                                   GOAT, DOCKER, SOLVATOR, interface openCOSMO-RS
   S Lehtola, MJT Oliveira, MAL Marques          : LibXC Library
   Liviu Ungur et al                             : ANISO software


 Your calculation uses the libint2 library for the computation of 2-el integrals
 For citations please refer to: http://libint.valeyev.net

 Your ORCA version has been built with support for libXC version: 6.2.2
 For citations please refer to: https://libxc.gitlab.io

 This ORCA versions uses:
   CBLAS   interface :  Fast vector & matrix operations
   LAPACKE interface :  Fast linear algebra routines
   SCALAPACK package :  Parallel linear algebra routines
   Shared memory     :  Shared parallel matrices
   BLAS/LAPACK       :  OpenBLAS 0.3.27  USE64BITINT DYNAMIC_ARCH NO_AFFINITY SkylakeX SINGLE_THREADED
        Core in use  :  SkylakeX
   Copyright (c) 2011-2014, The OpenBLAS Project


Your calculation utilizes the geometrical counterpoise correction gCP
Please cite in your paper:
H.Kruse, S. Grimme J.Chem.Phys., 136, (2012), 154101 
   

Your calculation utilizes the DFT-NL dispersion correction.
Cite in your paper:
Vydrov, O. A.; Van Voorhis, T. J. Chem. Phys. 2010, 133, 244103
Hujo, W.; Grimme, S. J. Chem. Theory Comput. 2011, 7, 3866 
   

Your calculation utilizes the SMD solvation module
Please cite in your paper:
A.V. Marenich, C.J. Cramer, D.G. Truhlar J. Phys. Chem. B, 113, (2009), 6378 

================================================================================

----- Orbital basis set information -----
Your calculation utilizes the basis: def2-TZVP
   F. Weigend and R. Ahlrichs, Phys. Chem. Chem. Phys. 7, 3297 (2005).

----- AuxJ basis set information -----
Your calculation utilizes the auxiliary basis: def2/J
   F. Weigend, Phys. Chem. Chem. Phys. 8, 1057 (2006).

================================================================================
                                        WARNINGS
                       Please study these warnings very carefully!
================================================================================


================================================================================
                                       INPUT FILE
================================================================================
NAME = sp_solv.inp
|  1> ! wb97x-v def2-tzvp def2/J RIJCOSX DEFGRID2 scfconv7 GCP(DFT/TZ) printgap
|  2> %output
|  3>     printlevel normal
|  4> end
|  5> %cpcm
|  6>     smd true
|  7>     smdsolvent "water"
|  8> end
|  9> * xyz 0 1
| 10> C -3.44820495652225 -0.1214012774232875 0.00032280466498403886
| 11> C -3.0053589679342356 1.2040131372329885 0.0002466667539546605
| 12> C -1.6435564478600906 1.4996586562414032 -8.020135159177183e-06
| 13> C -0.7309301264108415 0.44534038709716767 -0.00015643483662394715
| 14> C -1.1776462990380685 -0.8912826151210116 -0.00011193964027922347
| 15> C -2.53486401978295 -1.178428465174525 0.0001194541233298082
| 16> C -1.0340515547069458e-05 -1.8313315761316074 -0.00024105662293769553
| 17> C 1.1776403879276438 -0.8913010749880633 -8.40503896042181e-05
| 18> C 0.7309443992914492 0.4453299928750709 -0.0001514863006779066
| 19> C 1.6435864854221507 1.4996331749234646 -6.184973960799926e-05
| 20> C 3.0053852862969177 1.2039662140700946 0.00017355908866452263
| 21> C 3.4482108880455264 -0.12145398486391511 0.0003214160843401827
| 22> C 2.534852865056974 -1.178467762615196 0.00017395211057917709
| 23> H -4.513338422726524 -0.3310970252952737 0.0005622724664255652
| 24> H -3.7310608124478435 2.0114724893172715 0.0004122780383751362
| 25> H -1.3023568484009524 2.530730632515815 -3.185349411699358e-05
| 26> H -2.8846049059698884 -2.206893279580628 0.00019159599379104842
| 27> H -3.40617698897535e-05 -2.4884774412498083 0.8785096771210291
| 28> H 3.134938544898794e-06 -2.4880541154148457 -0.8793192748551555
| 29> H 1.302407600056104 2.5307119033213126 -0.0001647183799158131
| 30> H 3.7310995615791827 2.011414377950735 0.0002809602527780942
| 31> H 4.513340659786971 -0.3311684685067852 0.0005886446624483757
| 32> H 2.8845788201956135 -2.206937689423869 0.00029503570480348014
| 33> *
| 34> 
| 35>                          ****END OF INPUT****
================================================================================

                       ****************************
                       * Single Point Calculation *
                       ****************************

---------------------------------
CARTESIAN COORDINATES (ANGSTROEM)
---------------------------------
  C     -3.448205   -0.121401    0.000323
  C     -3.005359    1.204013    0.000247
  C     -1.643556    1.499659   -0.000008
  C     -0.730930    0.445340   -0.000156
  C     -1.177646   -0.891283   -0.000112
  C     -2.534864   -1.178428    0.000119
  C     -0.000010   -1.831332   -0.000241
  C      1.177640   -0.891301   -0.000084
  C      0.730944    0.445330   -0.000151
  C      1.643586    1.499633   -0.000062
  C      3.005385    1.203966    0.000174
  C      3.448211   -0.121454    0.000321
  C      2.534853   -1.178468    0.000174
  H     -4.513338   -0.331097    0.000562
  H     -3.731061    2.011472    0.000412
  H     -1.302357    2.530731   -0.000032
  H     -2.884605   -2.206893    0.000192
  H     -0.000034   -2.488477    0.878510
  H      0.000003   -2.488054   -0.879319
  H      1.302408    2.530712   -0.000165
  H      3.731100    2.011414    0.000281
  H      4.513341   -0.331168    0.000589
  H      2.884579   -2.206938    0.000295

----------------------------
CARTESIAN COORDINATES (A.U.)
----------------------------
  NO LB      ZA    FRAG     MASS         X           Y           Z
   0 C     6.0000    0    12.011   -6.516163   -0.229415    0.000610
   1 C     6.0000    0    12.011   -5.679305    2.275255    0.000466
   2 C     6.0000    0    12.011   -3.105872    2.833944   -0.000015
   3 C     6.0000    0    12.011   -1.381258    0.841571   -0.000296
   4 C     6.0000    0    12.011   -2.225429   -1.684280   -0.000212
   5 C     6.0000    0    12.011   -4.790199   -2.226907    0.000226
   6 C     6.0000    0    12.011   -0.000020   -3.460715   -0.000456
   7 C     6.0000    0    12.011    2.225418   -1.684315   -0.000159
   8 C     6.0000    0    12.011    1.381285    0.841552   -0.000286
   9 C     6.0000    0    12.011    3.105928    2.833896   -0.000117
  10 C     6.0000    0    12.011    5.679355    2.275166    0.000328
  11 C     6.0000    0    12.011    6.516174   -0.229515    0.000607
  12 C     6.0000    0    12.011    4.790178   -2.226981    0.000329
  13 H     1.0000    0     1.008   -8.528974   -0.625683    0.001063
  14 H     1.0000    0     1.008   -7.050683    3.801132    0.000779
  15 H     1.0000    0     1.008   -2.461098    4.782388   -0.000060
  16 H     1.0000    0     1.008   -5.451113   -4.170424    0.000362
  17 H     1.0000    0     1.008   -0.000064   -4.702541    1.660143
  18 H     1.0000    0     1.008    0.000006   -4.701741   -1.661673
  19 H     1.0000    0     1.008    2.461194    4.782352   -0.000311
  20 H     1.0000    0     1.008    7.050756    3.801022    0.000531
  21 H     1.0000    0     1.008    8.528978   -0.625818    0.001112
  22 H     1.0000    0     1.008    5.451064   -4.170508    0.000558

--------------------------------
INTERNAL COORDINATES (ANGSTROEM)
--------------------------------
 C      0   0   0     0.000000000000     0.00000000     0.00000000
 C      1   0   0     1.397439067002     0.00000000     0.00000000
 C      2   1   0     1.393525185081   120.72421011     0.00000000
 C      3   2   1     1.394443916864   118.63096341     0.00000000
 C      4   3   2     1.409296416984   120.63999958     0.00000000
 C      5   4   3     1.387260874619   120.42615262     0.00000000
 C      5   4   3     1.506823983275   110.11837405   180.00226798
 C      7   5   4     1.506824012927   102.80360097     0.00000000
 C      8   7   5     1.409297669901   110.11835713     0.00000000
 C      9   8   7     1.394442822452   120.63998645   180.00145759
 C     10   9   8     1.393526096355   118.63096453     0.00000000
 C     11  10   9     1.397438098510   120.72423660     0.00000000
 C      8   7   5     1.387260062542   129.45548545   179.98472121
 H      1   2   3     1.085578953761   119.61298944   179.99756271
 H      2   1   3     1.085649022394   119.57702101   180.00149535
 H      3   2   1     1.086060121493   120.55903772   180.00213048
 H      6   5   4     1.086305006500   120.72705026   180.00226085
 H      7   5   4     1.097289178230   111.93368503   120.30743910
 H      7   5   4     1.097298048642   111.92874770   239.72452286
 H     10   9   8     1.086060028984   120.81025240   179.99685305
 H     11  10   9     1.085649003241   119.69875709   180.00209260
 H     12  11  10     1.085578954619   119.61312999   180.00512098
 H     13   8   7     1.086305044041   120.72710506     0.00000000

---------------------------
INTERNAL COORDINATES (A.U.)
---------------------------
 C      0   0   0     0.000000000000     0.00000000     0.00000000
 C      1   0   0     2.640777125477     0.00000000     0.00000000
 C      2   1   0     2.633380960525   120.72421011     0.00000000
 C      3   2   1     2.635117111986   118.63096341     0.00000000
 C      4   3   2     2.663184269617   120.63999958     0.00000000
 C      5   4   3     2.621543129335   120.42615262     0.00000000
 C      5   4   3     2.847484660415   110.11837405   180.00226798
 C      7   5   4     2.847484716449   102.80360097     0.00000000
 C      8   7   5     2.663186637286   110.11835713     0.00000000
 C      9   8   7     2.635115043847   120.63998645   180.00145759
 C     10   9   8     2.633382682583   118.63096453     0.00000000
 C     11  10   9     2.640775295292   120.72423660     0.00000000
 C      8   7   5     2.621541594731   129.45548545   179.98472121
 H      1   2   3     2.051446919357   119.61298944   179.99756271
 H      2   1   3     2.051579329885   119.57702101   180.00149535
 H      3   2   1     2.052356194595   120.55903772   180.00213048
 H      6   5   4     2.052818960192   120.72705026   180.00226085
 H      7   5   4     2.073576036570   111.93368503   120.30743910
 H      7   5   4     2.073592799220   111.92874770   239.72452286
 H     10   9   8     2.052356019778   120.81025240   179.99685305
 H     11  10   9     2.051579293690   119.69875709   180.00209260
 H     12  11  10     2.051446920978   119.61312999   180.00512098
 H     13   8   7     2.052819031135   120.72710506     0.00000000

---------------------
BASIS SET INFORMATION
---------------------
There are 2 groups of distinct atoms

 Group   1 Type C   : 11s6p2d1f contracted to 5s3p2d1f pattern {62111/411/11/1}
 Group   2 Type H   : 5s1p contracted to 3s1p pattern {311/1}

Atom   0C    basis set group =>   1
Atom   1C    basis set group =>   1
Atom   2C    basis set group =>   1
Atom   3C    basis set group =>   1
Atom   4C    basis set group =>   1
Atom   5C    basis set group =>   1
Atom   6C    basis set group =>   1
Atom   7C    basis set group =>   1
Atom   8C    basis set group =>   1
Atom   9C    basis set group =>   1
Atom  10C    basis set group =>   1
Atom  11C    basis set group =>   1
Atom  12C    basis set group =>   1
Atom  13H    basis set group =>   2
Atom  14H    basis set group =>   2
Atom  15H    basis set group =>   2
Atom  16H    basis set group =>   2
Atom  17H    basis set group =>   2
Atom  18H    basis set group =>   2
Atom  19H    basis set group =>   2
Atom  20H    basis set group =>   2
Atom  21H    basis set group =>   2
Atom  22H    basis set group =>   2
---------------------------------
AUXILIARY/J BASIS SET INFORMATION
---------------------------------
There are 2 groups of distinct atoms

 Group   1 Type C   : 12s5p4d2f1g contracted to 6s4p3d1f1g pattern {711111/2111/211/2/1}
 Group   2 Type H   : 5s2p1d contracted to 3s1p1d pattern {311/2/1}

Atom   0C    basis set group =>   1
Atom   1C    basis set group =>   1
Atom   2C    basis set group =>   1
Atom   3C    basis set group =>   1
Atom   4C    basis set group =>   1
Atom   5C    basis set group =>   1
Atom   6C    basis set group =>   1
Atom   7C    basis set group =>   1
Atom   8C    basis set group =>   1
Atom   9C    basis set group =>   1
Atom  10C    basis set group =>   1
Atom  11C    basis set group =>   1
Atom  12C    basis set group =>   1
Atom  13H    basis set group =>   2
Atom  14H    basis set group =>   2
Atom  15H    basis set group =>   2
Atom  16H    basis set group =>   2
Atom  17H    basis set group =>   2
Atom  18H    basis set group =>   2
Atom  19H    basis set group =>   2
Atom  20H    basis set group =>   2
Atom  21H    basis set group =>   2
Atom  22H    basis set group =>   2

Checking for AutoStart:
The File: sp_solv.gbw exists
Trying to determine its content:
     ... Fine, the file contains calculation information
     ... Fine, the calculation information was read
     ... Fine, the file contains a basis set
     ... Fine, the basis set was read
     ... Fine, the file contains a geometry
     ... Fine, the geometry was read
     ... Fine, the file contains a set of orbitals
     ... Fine, the orbitals can be read
     => possible old guess file was deleted
     => GBW file was renamed to GES file
     => GES file is set as startup file
     => Guess is set to MORead
     ... now leaving AutoStart

------------------------------------------------------------------------------
                             ORCA STARTUP CALCULATIONS
                           -- RI-GTO INTEGRALS CHOSEN --
------------------------------------------------------------------------------
------------------------------------------------------------------------------
                   ___                                                        
                  /   \      - P O W E R E D   B Y -                         
                 /     \                                                     
                 |  |  |   _    _      __       _____    __    __             
                 |  |  |  | |  | |    /  \     |  _  \  |  |  /  |          
                  \  \/   | |  | |   /    \    | | | |  |  | /  /          
                 / \  \   | |__| |  /  /\  \   | |_| |  |  |/  /          
                |  |  |   |  __  | /  /__\  \  |    /   |      \           
                |  |  |   | |  | | |   __   |  |    \   |  |\   \          
                \     /   | |  | | |  |  |  |  | |\  \  |  | \   \       
                 \___/    |_|  |_| |__|  |__|  |_| \__\ |__|  \__/        
                                                                              
                      - O R C A' S   B I G   F R I E N D -                    
                                      &                                       
                       - I N T E G R A L  F E E D E R -                       
                                                                              
 v1 FN, 2020, v2 2021, v3 2022-2024                                           
------------------------------------------------------------------------------


----------------------
SHARK INTEGRAL PACKAGE
----------------------

Number of atoms                             ...     23
Number of basis functions                   ...    463
Number of shells                            ...    183
Maximum angular momentum                    ...      3
Integral batch strategy                     ... SHARK/LIBINT Hybrid
RI-J (if used) integral strategy            ... SPLIT-RIJ (Revised 2003 algorithm where possible)
Printlevel                                  ...      1
Contraction scheme used                     ... SEGMENTED contraction
Prescreening option                         ... SCHWARTZ
   Thresh                                   ... 3.000e-11
   Tcut                                     ... 1.000e-12
   Tpresel                                  ... 1.000e-12 
Coulomb Range Separation                    ... NOT USED
Exchange Range Separation                   ... Long Range
   Mu parameter                             ... 3.000e-01
   Scaling (regular/separated)              ... 1.670e-01 8.330e-01
Multipole approximations                    ... NOT USED
Finite Nucleus Model                        ... NOT USED
CABS basis                                  ... NOT available
Auxiliary Coulomb fitting basis             ... AVAILABLE
   # of basis functions in Aux-J            ...    747
   # of shells in Aux-J                     ...    245
   Maximum angular momentum in Aux-J        ...      4
Auxiliary J/K fitting basis                 ... NOT available
Auxiliary Correlation fitting basis         ... NOT available
Auxiliary 'external' fitting basis          ... NOT available

Checking pre-screening integrals            ... done (  0.0 sec) Dimension = 183
Check shell pair data                       ... done (  0.0 sec)
Shell pair information
Shell pair cut-off parameter TPreSel        ...   1.0e-12
Total number of shell pairs                 ...     16836
Shell pairs after pre-screening             ...     14466
Total number of primitive shell pairs       ...     51676
Primitive shell pairs kept                  ...     31898
          la=0 lb=0:   3705 shell pairs
          la=1 lb=0:   4035 shell pairs
          la=1 lb=1:   1109 shell pairs
          la=2 lb=0:   2144 shell pairs
          la=2 lb=1:   1156 shell pairs
          la=2 lb=2:    322 shell pairs
          la=3 lb=0:   1031 shell pairs
          la=3 lb=1:    573 shell pairs
          la=3 lb=2:    310 shell pairs
          la=3 lb=3:     81 shell pairs

Calculating one electron integrals          ... done (  0.1 sec)
Calculating RI/J V-Matrix + Cholesky decomp.... done (  0.1 sec)
Calculating Nuclear repulsion               ... done (  0.0 sec) ENN=    696.349120202877 Eh

Diagonalization of the overlap matrix:
Smallest eigenvalue                        ... 6.664e-06
Time for diagonalization                   ...    0.024 sec
Threshold for overlap eigenvalues          ... 1.000e-07
Number of eigenvalues below threshold      ... 0
Time for construction of square roots      ...    0.029 sec
Total time needed                          ...    0.063 sec

-------------------
DFT GRID GENERATION
-------------------

General Integration Accuracy     IntAcc      ... 4.388
Radial Grid Type                 RadialGrid  ... OptM3 with GC (2021)
Angular Grid (max. ang.)         AngularGrid ... 4 (Lebedev-302)
Angular grid pruning method      GridPruning ... 4 (adaptive)
Weight generation scheme         WeightScheme... mBecke (2022)
Basis function cutoff            BFCut       ... 1.0000e-11
Integration weight cutoff        WCut        ... 1.0000e-14
Partially contracted basis set               ... off
Rotationally invariant grid construction     ... off
Angular grids for H and He will be reduced by one unit

Total number of grid points                  ...   109705
Total number of batches                      ...     1726
Average number of points per batch           ...       63
Average number of grid points per atom       ...     4770

--------------------
COSX GRID GENERATION
--------------------

GRIDX 1
-------
General Integration Accuracy     IntAcc      ... 3.816
Radial Grid Type                 RadialGrid  ... OptM3 with GC (2021)
Angular Grid (max. ang.)         AngularGrid ... 1 (Lebedev-50)
Angular grid pruning method      GridPruning ... 4 (adaptive)
Weight generation scheme         WeightScheme... mBecke (2022)
Basis function cutoff            BFCut       ... 1.0000e-11
Integration weight cutoff        WCut        ... 1.0000e-14
Partially contracted basis set               ... on
Rotationally invariant grid construction     ... off
Angular grids for H and He will be reduced by one unit

Total number of grid points                  ...    14007
Total number of batches                      ...      121
Average number of points per batch           ...      115
Average number of grid points per atom       ...      609
UseSFitting                                  ... on

GRIDX 2
-------
General Integration Accuracy     IntAcc      ... 4.020
Radial Grid Type                 RadialGrid  ... OptM3 with GC (2021)
Angular Grid (max. ang.)         AngularGrid ... 2 (Lebedev-110)
Angular grid pruning method      GridPruning ... 4 (adaptive)
Weight generation scheme         WeightScheme... mBecke (2022)
Basis function cutoff            BFCut       ... 1.0000e-11
Integration weight cutoff        WCut        ... 1.0000e-14
Partially contracted basis set               ... on
Rotationally invariant grid construction     ... off
Angular grids for H and He will be reduced by one unit

Total number of grid points                  ...    30583
Total number of batches                      ...      248
Average number of points per batch           ...      123
Average number of grid points per atom       ...     1330
UseSFitting                                  ... on

GRIDX 3
-------
General Integration Accuracy     IntAcc      ... 4.338
Radial Grid Type                 RadialGrid  ... OptM3 with GC (2021)
Angular Grid (max. ang.)         AngularGrid ... 3 (Lebedev-194)
Angular grid pruning method      GridPruning ... 4 (adaptive)
Weight generation scheme         WeightScheme... mBecke (2022)
Basis function cutoff            BFCut       ... 1.0000e-11
Integration weight cutoff        WCut        ... 1.0000e-14
Partially contracted basis set               ... on
Rotationally invariant grid construction     ... off
Angular grids for H and He will be reduced by one unit

Total number of grid points                  ...    67015
Total number of batches                      ...      535
Average number of points per batch           ...      125
Average number of grid points per atom       ...     2914
UseSFitting                                  ... on
Initializing property integral containers    ... done (  0.0 sec)

SHARK setup successfully completed in   4.1 seconds

Maximum memory used throughout the entire STARTUP-calculation: 75.5 MB
-------------------------------------------------------------------------------
                                 ORCA GUESS
                   Start orbitals & Density for SCF / CASSCF
-------------------------------------------------------------------------------

------------
SCF SETTINGS
------------
Hamiltonian:
 Density Functional     Method          .... DFT(GTOs)
 Exchange Functional    Exchange        .... WB97X-V
 Correlation Functional Correlation     .... WB97X-V
 Gradients option       PostSCFGGA      .... off
 Hybrid DFT is turned on
   Fraction HF Exchange ScalHFX         ....  0.167000
   Scaling of DF-GGA-X  ScalDFX         ....  0.000000
   Scaling of DF-GGA-C  ScalDFC         ....  1.000000
   Scaling of DF-LDA-C  ScalLDAC        ....  1.000000
   Perturbative correction              ....  0.000000
 Long-range corrected/Screened/Range-Separated Hybrid DFT is turned on
   Amount of maximum screened exact exchange              ....  0.833000
   Range separation parameter mu (erf(mu*r12)/r12)        ....  0.300000
   NL short-range parameter             ....  6.000000
   NL long-range parameter              ....  0.010000
 RI-approximation to the Coulomb term is turned on
   Number of AuxJ basis functions       .... 747
   RIJ-COSX (HFX calculated with COS-X)).... on


General Settings:
 Integral files         IntName         .... sp_solv
 Hartree-Fock type      HFTyp           .... RHF
 Total Charge           Charge          ....    0
 Multiplicity           Mult            ....    1
 Number of Electrons    NEL             ....   88
 Basis Dimension        Dim             ....  463
 Nuclear Repulsion      ENuc            ....    696.3491202029 Eh

Convergence Acceleration:
 AO-DIIS                CNVDIIS         .... on
   Start iteration      DIISMaxIt       ....    12
   Startup error        DIISStart       ....  0.200000
   # of expansion vecs  DIISMaxEq       ....     5
   Bias factor          DIISBfac        ....   1.050
   Max. coefficient     DIISMaxC        ....  10.000
 MO-DIIS                CNVKDIIS        .... off
 Trust-Rad. Augm. Hess. CNVTRAH         .... auto
   Auto Start mean grad. ratio tolernc. ....  1.125000
   Auto Start start iteration           ....     1
   Auto Start num. interpolation iter.  ....    10
   Max. Number of Micro iterations      ....    24
   Max. Number of Macro iterations      .... Maxiter - #DIIS iter
   Number of Davidson start vectors     ....     2
   Converg. threshold    (grad. norm)   ....   1.000e-04
   Grad. Scal. Fac. for Micro threshold ....   0.100
   Minimum threshold for Micro iter.    ....   1.000e-02
   NR start threshold (gradient norm)   ....   1.000e-04
   Initial trust radius                 ....   0.400
   Minimum AH scaling param. (alpha)    ....   1.000
   Maximum AH scaling param. (alpha)    .... 1000.000
   Quad. conv. algorithm                .... NR
   White noise on init. David. guess    .... on
   Maximum white noise                  ....   0.010
   Pseudo random numbers                .... off
   Inactive MOs                         .... canonical
   Orbital update algorithm             .... Taylor
   Preconditioner                       .... Diag
   Full preconditioner red. dimension   ....   250
 SOSCF                  CNVSOSCF        .... on
   Start iteration      SOSCFMaxIt      ....   150
   Startup grad/error   SOSCFStart      ....  0.003300
   Hessian update       SOSCFHessUp     .... L-BFGS
 Level Shifting         CNVShift        .... on
   Level shift para.    LevelShift      ....    0.2500
   Turn off err/grad.   ShiftErr        ....    0.0010
 Zerner damping         CNVZerner       .... off
 Static damping         CNVDamp         .... on
   Fraction old density DampFac         ....    0.7000
   Max. Damping (<1)    DampMax         ....    0.9800
   Min. Damping (>=0)   DampMin         ....    0.0000
   Turn off err/grad.   DampErr         ....    0.1000

SCF Procedure:
 Maximum # iterations   MaxIter         ....   125
 SCF integral mode      SCFMode         .... Direct
   Integral package                     .... SHARK and LIBINT hybrid scheme
 Reset frequency        DirectResetFreq ....    20
 Integral Threshold     Thresh          ....  3.000e-11 Eh
 Primitive CutOff       TCut            ....  1.000e-12 Eh

Convergence Tolerance:
 Convergence Check Mode ConvCheckMode   .... Total+1el-Energy
 Convergence forced     ConvForced      .... 0
 Energy Change          TolE            ....  1.000e-07 Eh
 1-El. energy change                    ....  1.000e-04 Eh
 Orbital Gradient       TolG            ....  1.000e-04
 Orbital Rotation angle TolX            ....  1.000e-04
 DIIS Error             TolErr          ....  1.000e-07

---------------------
INITIAL GUESS: MOREAD
---------------------
Guess MOs are being read from file: sp_solv.ges
Input Geometry matches current geometry (good)
Atom 0: N(Shells)= 11 and 9 - projection required
Input basis set needs projection
NBasis(read)= 297
NBasis(calc)= 463
Basis set overlap was calculated
Using GuessMode=FMatrix for the initial guess
C*T matrix was formed
Effective Fockian was calculated
Effective Fockian was diagonalized
Initial density was built
                      ------------------
                      INITIAL GUESS DONE (   0.1 sec)
                      ------------------
             **** ENERGY FILE WAS UPDATED (sp_solv.en.tmp) ****
Finished Guess after   0.7 sec
Maximum memory used throughout the entire GUESS-calculation: 55.5 MB

-------------------------------------------------------------------------------------------
                                      ORCA LEAN-SCF
                              memory conserving SCF solver
-------------------------------------------------------------------------------------------

--------------------
CPCM SOLVATION MODEL
--------------------
CPCM parameters:
  Epsilon                                         ...      78.3550
  Refrac                                          ...       1.3328
  Rsolv                                           ...       1.3000
  Surface type                                    ... GAUSSIAN VDW
  Discretization scheme                           ... Constant charge density
    Threshold for H atoms                         ...       5.0000 (charges/Ang^2)
    Threshold for non-H atoms                     ...       5.0000 (charges/Ang^2)
  Epsilon function type                           ...         CPCM
Solvent:                                          ... WATER
SMD-CDS solvent descriptors:
  Soln                                            ...       1.3328
  Soln25                                          ...       1.3323
  Sola                                            ...       0.0000
  Solb                                            ...       0.0000
  Solg                                            ...       0.0000
  Solc                                            ...       0.0000
  Solh                                            ...       0.0000
Radii:
  Scheme                                          ... Element-dependent radii
  Radius for C  used is    3.4960 Bohr (=   1.8500 Ang.)
  Radius for H  used is    2.2677 Bohr (=   1.2000 Ang.)
Calculating surface                               ...        done! (  0.0s)
Cavity surface points                             ...         1799
Cavity Volume                                     ...    1207.7450
Cavity Surface-area                               ...     700.8509
Calculating surface distance matrix               ...        done! (  0.0s)
Performing Cholesky decomposition & store         ...        done! (  0.1s)
Overall time for CPCM initialization              ...                 0.2s

----------------------------------------D-I-I-S--------------------------------------------
Iteration    Energy (Eh)           Delta-E    RMSDP     MaxDP     DIISErr   Damp  Time(sec)
-------------------------------------------------------------------------------------------
               ***  Starting incremental Fock matrix formation  ***
    1    -501.7656929475175502     0.00e+00  2.08e-03  1.48e-01  4.79e-02  0.700  52.2
    2    -501.7733353213326382    -7.64e-03  1.64e-03  1.03e-01  3.56e-02  0.700  24.9
                               ***Turning on AO-DIIS***
    3    -501.7791036245477017    -5.77e-03  1.25e-03  6.88e-02  2.59e-02  0.700  24.5
    4    -501.7833509859707419    -4.25e-03  3.00e-03  1.56e-01  1.83e-02  0.000  24.4
                              *** Initializing SOSCF ***
---------------------------------------S-O-S-C-F--------------------------------------
Iteration    Energy (Eh)           Delta-E    RMSDP     MaxDP     MaxGrad    Time(sec)
--------------------------------------------------------------------------------------
    5    -501.7941374025159575    -1.08e-02  6.92e-05  3.89e-03  1.25e-03    25.7
               *** Restarting incremental Fock matrix formation ***
    6    -501.7941467749463982    -9.37e-06  3.54e-05  1.52e-03  7.73e-04    52.2
    7    -501.7941600632876771    -1.33e-05  1.46e-05  6.02e-04  3.28e-04    39.0
    8    -501.7941623490995653    -2.29e-06  3.00e-06  1.11e-04  6.04e-05    37.2
    9    -501.7941623956299964    -4.65e-08  1.26e-06  3.53e-05  5.54e-05    33.1
                 **** Energy Check signals convergence ****

               *****************************************************
               *                     SUCCESS                       *
               *           SCF CONVERGED AFTER   9 CYCLES          *
               *****************************************************


------------------
NL GRID GENERATION
------------------

General Integration Accuracy     IntAcc      ... 4.004
Radial Grid Type                 RadialGrid  ... OptM3 with GC (2021)
Angular Grid (max. ang.)         AngularGrid ... 2 (Lebedev-110)
Angular grid pruning method      GridPruning ... 4 (adaptive)
Weight generation scheme         WeightScheme... mBecke (2022)
Basis function cutoff            BFCut       ... 1.0000e-10
Integration weight cutoff        WCut        ... 1.0000e-14
Partially contracted basis set               ... off
Rotationally invariant grid construction     ... off
Angular grids for H and He will be reduced by one unit

Total number of grid points                  ...    35162
Total number of batches                      ...      565
Average number of points per batch           ...       62
Average number of grid points per atom       ...     1529
Final grid set up in    0.4 sec

-------------------------------------------------------------------------------
                    post-SCF DFT-NL dispersion correction                      
-------------------------------------------------------------------------------

SCF Energy:     -501.794162396 
NL    Energy:      0.326947096 
SC+NL Energy:   -501.467215300 
NL done in  :              5.5 sec
-------------------------------------------------------------------------------
Recomputing exchange energy using gridx3       ... done (   93.153 sec)
Old exchange energy                            :    -23.291341281 Eh
New exchange energy                            :    -23.291361803 Eh
Exchange energy change after final integration :     -0.000020522 Eh
Total energy after final integration           :   -501.467235822 Eh

SMD CDS free energy correction energy :                 3.60082     Kcal/mol
Total Energy after SMD CDS correction =              -501.461497558 Eh
             **** ENERGY FILE WAS UPDATED (sp_solv.en.tmp) ****

----------------
TOTAL SCF ENERGY
----------------

Total Energy       :       -501.46149755762946 Eh          -13645.46107 eV

Components:
Nuclear Repulsion  :        696.34912020287709 Eh           18948.62289 eV
Electronic Energy  :      -1198.13050409659468 Eh          -32602.78851 eV
One Electron Energy:      -2057.09133029552322 Eh          -55976.30088 eV
Two Electron Energy:        858.96082619892854 Eh           23373.51237 eV
CPCM Dielectric    :         -0.01277850191250 Eh              -0.34772 eV
SMD CDS (Gcds)     :          0.00573826392520 Eh               0.15615 eV

Virial components:
Potential Energy   :      -1000.91780214869516 Eh          -27236.35807 eV
Kinetic Energy     :        499.45630459106570 Eh           13590.89700 eV
Virial Ratio       :          2.00401475153708

DFT components:
N(Alpha)           :       43.999996089161 electrons
N(Beta)            :       43.999996089161 electrons
N(Total)           :       87.999992178323 electrons
E(X)               :      -47.696667032520 Eh       
E(C)               :       -3.638435590004 Eh       
NL Energy, E(C,NL) :        0.326947095687 Eh       
E(XC)              :      -51.008155526837 Eh       

CPCM Solvation Model Properties:
Surface-charge          :         -0.05448666383476
Corrected charge        :         -0.00000000000000
Outlying charge corr.   :          0.00020288084837 Eh               0.00552 eV
Free-energy (cav+disp)  :          0.00573826392520 Eh               0.15615 eV

---------------
SCF CONVERGENCE
---------------

  Last Energy change         ...    4.6530e-08  Tolerance :   1.0000e-07
  Last MAX-Density change    ...    3.5274e-05  Tolerance :   1.0000e-05
  Last RMS-Density change    ...    1.2561e-06  Tolerance :   1.0000e-06
  Last DIIS Error            ...    1.2474e-03  Tolerance :   1.0000e-07
  Last Orbital Gradient      ...    5.5427e-05  Tolerance :   1.0000e-04
  Last Orbital Rotation      ...    9.9874e-05  Tolerance :   1.0000e-04


----------------
ORBITAL ENERGIES
----------------

  NO   OCC          E(Eh)            E(eV) 
   0   2.0000     -12.057636      -328.1050 
   1   2.0000     -12.057529      -328.1021 
   2   2.0000     -12.056220      -328.0664 
   3   2.0000     -12.054987      -328.0329 
   4   2.0000     -12.051054      -327.9258 
   5   2.0000     -12.050921      -327.9222 
   6   2.0000     -12.050473      -327.9100 
   7   2.0000     -12.050221      -327.9032 
   8   2.0000     -12.050038      -327.8982 
   9   2.0000     -12.048907      -327.8674 
  10   2.0000     -12.048680      -327.8612 
  11   2.0000     -12.047377      -327.8258 
  12   2.0000     -12.047354      -327.8252 
  13   2.0000      -1.416950       -38.5572 
  14   2.0000      -1.372982       -37.3607 
  15   2.0000      -1.323816       -36.0229 
  16   2.0000      -1.291653       -35.1477 
  17   2.0000      -1.271721       -34.6053 
  18   2.0000      -1.244624       -33.8679 
  19   2.0000      -1.203755       -32.7559 
  20   2.0000      -1.141887       -31.0723 
  21   2.0000      -1.089778       -29.6544 
  22   2.0000      -1.078306       -29.3422 
  23   2.0000      -1.074935       -29.2505 
  24   2.0000      -0.982934       -26.7470 
  25   2.0000      -0.965640       -26.2764 
  26   2.0000      -0.947970       -25.7956 
  27   2.0000      -0.927803       -25.2468 
  28   2.0000      -0.915210       -24.9041 
  29   2.0000      -0.897040       -24.4097 
  30   2.0000      -0.880840       -23.9689 
  31   2.0000      -0.872936       -23.7538 
  32   2.0000      -0.861853       -23.4522 
  33   2.0000      -0.860199       -23.4072 
  34   2.0000      -0.824717       -22.4417 
  35   2.0000      -0.823403       -22.4059 
  36   2.0000      -0.802060       -21.8251 
  37   2.0000      -0.796936       -21.6857 
  38   2.0000      -0.776097       -21.1187 
  39   2.0000      -0.761508       -20.7217 
  40   2.0000      -0.675673       -18.3860 
  41   2.0000      -0.642557       -17.4849 
  42   2.0000      -0.632827       -17.2201 
  43   2.0000      -0.603921       -16.4335 
  44   0.0000      -0.278780        -7.5860 
  45   0.0000      -0.242897        -6.6096 
  46   0.0000      -0.233548        -6.3552 
  47   0.0000      -0.199094        -5.4176 
  48   0.0000      -0.087910        -2.3921 
  49   0.0000      -0.066696        -1.8149 
  50   0.0000      -0.054208        -1.4751 
  51   0.0000      -0.038170        -1.0387 
  52   0.0000      -0.016955        -0.4614 
  53   0.0000      -0.009354        -0.2545 
  54   0.0000      -0.004070        -0.1108 
*Only the first 10 virtual orbitals were printed.

                    ********************************
                    * MULLIKEN POPULATION ANALYSIS *
                    ********************************

-----------------------
MULLIKEN ATOMIC CHARGES
-----------------------
   0 C :   -0.136327
   1 C :   -0.157010
   2 C :   -0.253864
   3 C :    0.082433
   4 C :   -0.048963
   5 C :   -0.267596
   6 C :    0.009175
   7 C :   -0.048794
   8 C :    0.082031
   9 C :   -0.253993
  10 C :   -0.156890
  11 C :   -0.136264
  12 C :   -0.267524
  13 H :    0.160418
  14 H :    0.159010
  15 H :    0.162561
  16 H :    0.157442
  17 H :    0.137408
  18 H :    0.137376
  19 H :    0.162517
  20 H :    0.159023
  21 H :    0.160371
  22 H :    0.157459
Sum of atomic charges:    0.0000000

--------------------------------
MULLIKEN REDUCED ORBITAL CHARGES
--------------------------------
  0 C s       :     3.166475  s :     3.166475
      pz      :     0.972718  p :     2.873970
      px      :     0.985014
      py      :     0.916238
      dz2     :     0.004295  d :     0.088554
      dxz     :     0.006210
      dyz     :     0.022147
      dx2y2   :     0.033391
      dxy     :     0.022511
      f0      :     0.001502  f :     0.007327
      f+1     :     0.000675
      f-1     :     0.000594
      f+2     :     0.000342
      f-2     :     0.000967
      f+3     :     0.001409
      f-3     :     0.001839

  1 C s       :     3.180604  s :     3.180604
      pz      :     0.975584  p :     2.880488
      px      :     0.939906
      py      :     0.964997
      dz2     :     0.004348  d :     0.088551
      dxz     :     0.015713
      dyz     :     0.012766
      dx2y2   :     0.020358
      dxy     :     0.035368
      f0      :     0.001518  f :     0.007367
      f+1     :     0.000625
      f-1     :     0.000646
      f+2     :     0.001085
      f-2     :     0.000228
      f+3     :     0.001464
      f-3     :     0.001800

  2 C s       :     3.248925  s :     3.248925
      pz      :     0.976715  p :     2.906754
      px      :     0.932869
      py      :     0.997169
      dz2     :     0.003759  d :     0.090892
      dxz     :     0.021234
      dyz     :     0.007153
      dx2y2   :     0.032330
      dxy     :     0.026417
      f0      :     0.001476  f :     0.007294
      f+1     :     0.000590
      f-1     :     0.000676
      f+2     :     0.000514
      f-2     :     0.000774
      f+3     :     0.001443
      f-3     :     0.001821

  3 C s       :     3.276526  s :     3.276526
      pz      :     0.949485  p :     2.488256
      px      :     0.696844
      py      :     0.841927
      dz2     :     0.004523  d :     0.142282
      dxz     :     0.024931
      dyz     :     0.022463
      dx2y2   :     0.045648
      dxy     :     0.044717
      f0      :     0.001829  f :     0.010503
      f+1     :     0.000785
      f-1     :     0.000645
      f+2     :     0.000920
      f-2     :     0.001004
      f+3     :     0.001988
      f-3     :     0.003332

  4 C s       :     3.259307  s :     3.259307
      pz      :     0.926421  p :     2.641801
      px      :     0.832564
      py      :     0.882816
      dz2     :     0.004227  d :     0.137332
      dxz     :     0.023934
      dyz     :     0.022042
      dx2y2   :     0.041613
      dxy     :     0.045517
      f0      :     0.001715  f :     0.010522
      f+1     :     0.000795
      f-1     :     0.000682
      f+2     :     0.001100
      f-2     :     0.001049
      f+3     :     0.002498
      f-3     :     0.002683

  5 C s       :     3.274850  s :     3.274850
      pz      :     0.978415  p :     2.893174
      px      :     0.906787
      py      :     1.007973
      dz2     :     0.003349  d :     0.092208
      dxz     :     0.021162
      dyz     :     0.007119
      dx2y2   :     0.032167
      dxy     :     0.028410
      f0      :     0.001496  f :     0.007364
      f+1     :     0.000582
      f-1     :     0.000696
      f+2     :     0.000521
      f-2     :     0.000768
      f+3     :     0.001396
      f-3     :     0.001906

  6 C s       :     2.986862  s :     2.986862
      pz      :     1.056471  p :     2.911223
      px      :     0.881586
      py      :     0.973166
      dz2     :     0.003876  d :     0.087166
      dxz     :     0.018796
      dyz     :     0.021607
      dx2y2   :     0.026598
      dxy     :     0.016289
      f0      :     0.000500  f :     0.005574
      f+1     :     0.000107
      f-1     :     0.001223
      f+2     :     0.000138
      f-2     :     0.000955
      f+3     :     0.001596
      f-3     :     0.001054

  7 C s       :     3.259324  s :     3.259324
      pz      :     0.926420  p :     2.641591
      px      :     0.832375
      py      :     0.882796
      dz2     :     0.004240  d :     0.137357
      dxz     :     0.023936
      dyz     :     0.022042
      dx2y2   :     0.041636
      dxy     :     0.045503
      f0      :     0.001715  f :     0.010522
      f+1     :     0.000795
      f-1     :     0.000682
      f+2     :     0.001100
      f-2     :     0.001049
      f+3     :     0.002498
      f-3     :     0.002683

  8 C s       :     3.276837  s :     3.276837
      pz      :     0.949485  p :     2.488388
      px      :     0.696987
      py      :     0.841915
      dz2     :     0.004524  d :     0.142242
      dxz     :     0.024930
      dyz     :     0.022463
      dx2y2   :     0.045647
      dxy     :     0.044678
      f0      :     0.001829  f :     0.010503
      f+1     :     0.000785
      f-1     :     0.000645
      f+2     :     0.000920
      f-2     :     0.001004
      f+3     :     0.001988
      f-3     :     0.003333

  9 C s       :     3.249049  s :     3.249049
      pz      :     0.976716  p :     2.906782
      px      :     0.933004
      py      :     0.997063
      dz2     :     0.003759  d :     0.090868
      dxz     :     0.021233
      dyz     :     0.007153
      dx2y2   :     0.032325
      dxy     :     0.026397
      f0      :     0.001476  f :     0.007294
      f+1     :     0.000590
      f-1     :     0.000676
      f+2     :     0.000514
      f-2     :     0.000774
      f+3     :     0.001443
      f-3     :     0.001821

 10 C s       :     3.180285  s :     3.180285
      pz      :     0.975586  p :     2.880687
      px      :     0.940084
      py      :     0.965017
      dz2     :     0.004347  d :     0.088552
      dxz     :     0.015712
      dyz     :     0.012766
      dx2y2   :     0.020356
      dxy     :     0.035371
      f0      :     0.001518  f :     0.007366
      f+1     :     0.000625
      f-1     :     0.000646
      f+2     :     0.001085
      f-2     :     0.000228
      f+3     :     0.001463
      f-3     :     0.001800

 11 C s       :     3.166594  s :     3.166594
      pz      :     0.972719  p :     2.873768
      px      :     0.984880
      py      :     0.916170
      dz2     :     0.004297  d :     0.088573
      dxz     :     0.006210
      dyz     :     0.022146
      dx2y2   :     0.033397
      dxy     :     0.022523
      f0      :     0.001502  f :     0.007327
      f+1     :     0.000675
      f-1     :     0.000594
      f+2     :     0.000342
      f-2     :     0.000967
      f+3     :     0.001409
      f-3     :     0.001839

 12 C s       :     3.274490  s :     3.274490
      pz      :     0.978414  p :     2.893397
      px      :     0.906935
      py      :     1.008048
      dz2     :     0.003351  d :     0.092272
      dxz     :     0.021162
      dyz     :     0.007119
      dx2y2   :     0.032238
      dxy     :     0.028402
      f0      :     0.001496  f :     0.007364
      f+1     :     0.000582
      f-1     :     0.000696
      f+2     :     0.000521
      f-2     :     0.000768
      f+3     :     0.001395
      f-3     :     0.001906

 13 H s       :     0.817684  s :     0.817684
      pz      :     0.004480  p :     0.021898
      px      :     0.013579
      py      :     0.003838

 14 H s       :     0.819107  s :     0.819107
      pz      :     0.004473  p :     0.021884
      px      :     0.008152
      py      :     0.009259

 15 H s       :     0.815583  s :     0.815583
      pz      :     0.004361  p :     0.021856
      px      :     0.004454
      py      :     0.013041

 16 H s       :     0.820804  s :     0.820804
      pz      :     0.004341  p :     0.021755
      px      :     0.004501
      py      :     0.012913

 17 H s       :     0.840954  s :     0.840954
      pz      :     0.009807  p :     0.021637
      px      :     0.003991
      py      :     0.007839

 18 H s       :     0.840986  s :     0.840986
      pz      :     0.009812  p :     0.021638
      px      :     0.003992
      py      :     0.007834

 19 H s       :     0.815627  s :     0.815627
      pz      :     0.004361  p :     0.021856
      px      :     0.004453
      py      :     0.013041

 20 H s       :     0.819093  s :     0.819093
      pz      :     0.004473  p :     0.021884
      px      :     0.008152
      py      :     0.009259

 21 H s       :     0.817731  s :     0.817731
      pz      :     0.004480  p :     0.021898
      px      :     0.013580
      py      :     0.003838

 22 H s       :     0.820787  s :     0.820787
      pz      :     0.004341  p :     0.021754
      px      :     0.004501
      py      :     0.012912


------------------------
MULLIKEN OVERLAP CHARGES
------------------------
B(  0-C ,  1-C ) :   0.9337 B(  0-C ,  3-C ) :  -0.1266 B(  0-C ,  4-C ) :  -0.0505 
B(  0-C ,  5-C ) :   0.9268 B(  0-C , 13-H ) :   0.8909 B(  0-C , 14-H ) :  -0.0930 
B(  0-C , 16-H ) :  -0.0952 B(  1-C ,  2-C ) :   0.9422 B(  1-C ,  3-C ) :  -0.0504 
B(  1-C ,  4-C ) :  -0.1215 B(  1-C , 13-H ) :  -0.0963 B(  1-C , 14-H ) :   0.8891 
B(  1-C , 15-H ) :  -0.0830 B(  2-C ,  3-C ) :   0.8923 B(  2-C ,  4-C ) :  -0.0853 
B(  2-C ,  5-C ) :  -0.0891 B(  2-C ,  8-C ) :  -0.2231 B(  2-C , 14-H ) :  -0.1030 
B(  2-C , 15-H ) :   0.8836 B(  3-C ,  4-C ) :   1.0096 B(  3-C ,  5-C ) :  -0.0675 
B(  3-C ,  6-C ) :  -0.1908 B(  3-C ,  7-C ) :  -0.1906 B(  3-C ,  8-C ) :   0.5519 
B(  3-C ,  9-C ) :  -0.2234 B(  3-C , 15-H ) :  -0.0941 B(  4-C ,  5-C ) :   0.8458 
B(  4-C ,  6-C ) :   0.7921 B(  4-C ,  7-C ) :  -0.1899 B(  4-C ,  8-C ) :  -0.1905 
B(  4-C , 16-H ) :  -0.1105 B(  5-C ,  6-C ) :  -0.1863 B(  5-C , 13-H ) :  -0.1051 
B(  5-C , 16-H ) :   0.9005 B(  6-C ,  7-C ) :   0.7916 B(  6-C ,  8-C ) :  -0.1907 
B(  6-C , 12-C ) :  -0.1866 B(  6-C , 17-H ) :   0.7259 B(  6-C , 18-H ) :   0.7252 
B(  7-C ,  8-C ) :   1.0099 B(  7-C ,  9-C ) :  -0.0853 B(  7-C , 10-C ) :  -0.1215 
B(  7-C , 11-C ) :  -0.0507 B(  7-C , 12-C ) :   0.8473 B(  7-C , 22-H ) :  -0.1101 
B(  8-C ,  9-C ) :   0.8924 B(  8-C , 10-C ) :  -0.0504 B(  8-C , 11-C ) :  -0.1265 
B(  8-C , 12-C ) :  -0.0677 B(  8-C , 19-H ) :  -0.0940 B(  9-C , 10-C ) :   0.9423 
B(  9-C , 12-C ) :  -0.0892 B(  9-C , 19-H ) :   0.8837 B(  9-C , 20-H ) :  -0.1028 
B( 10-C , 11-C ) :   0.9338 B( 10-C , 19-H ) :  -0.0831 B( 10-C , 20-H ) :   0.8889 
B( 10-C , 21-H ) :  -0.0962 B( 11-C , 12-C ) :   0.9268 B( 11-C , 20-H ) :  -0.0930 
B( 11-C , 21-H ) :   0.8909 B( 11-C , 22-H ) :  -0.0951 B( 12-C , 21-H ) :  -0.1051 
B( 12-C , 22-H ) :   0.9001 


                     *******************************
                     * LOEWDIN POPULATION ANALYSIS *
                     *******************************

----------------------
LOEWDIN ATOMIC CHARGES
----------------------
   0 C :   -0.149445
   1 C :   -0.152484
   2 C :   -0.109169
   3 C :   -0.079492
   4 C :   -0.090534
   5 C :   -0.119299
   6 C :   -0.139176
   7 C :   -0.090532
   8 C :   -0.079492
   9 C :   -0.109170
  10 C :   -0.152483
  11 C :   -0.149444
  12 C :   -0.119299
  13 H :    0.150205
  14 H :    0.150456
  15 H :    0.154050
  16 H :    0.153653
  17 H :    0.161640
  18 H :    0.161654
  19 H :    0.154050
  20 H :    0.150455
  21 H :    0.150204
  22 H :    0.153653

-------------------------------
LOEWDIN REDUCED ORBITAL CHARGES
-------------------------------
  0 C s       :     2.766377  s :     2.766377
      pz      :     0.890859  p :     2.955697
      px      :     0.997868
      py      :     1.066970
      dz2     :     0.024393  d :     0.385257
      dxz     :     0.015278
      dyz     :     0.078085
      dx2y2   :     0.156844
      dxy     :     0.110656
      f0      :     0.002901  f :     0.042113
      f+1     :     0.003038
      f-1     :     0.004160
      f+2     :     0.002216
      f-2     :     0.006725
      f+3     :     0.010072
      f-3     :     0.013001

  1 C s       :     2.765535  s :     2.765535
      pz      :     0.893302  p :     2.958157
      px      :     1.035495
      py      :     1.029359
      dz2     :     0.024357  d :     0.386458
      dxz     :     0.051561
      dyz     :     0.041990
      dx2y2   :     0.102426
      dxy     :     0.166124
      f0      :     0.002904  f :     0.042334
      f+1     :     0.003688
      f-1     :     0.003544
      f+2     :     0.007575
      f-2     :     0.001381
      f+3     :     0.010297
      f-3     :     0.012946

  2 C s       :     2.756943  s :     2.756943
      pz      :     0.889054  p :     2.933481
      px      :     1.046489
      py      :     0.997937
      dz2     :     0.023743  d :     0.376552
      dxz     :     0.071019
      dyz     :     0.018882
      dx2y2   :     0.138947
      dxy     :     0.123961
      f0      :     0.002898  f :     0.042194
      f+1     :     0.003985
      f-1     :     0.003203
      f+2     :     0.003595
      f-2     :     0.005438
      f+3     :     0.010305
      f-3     :     0.012770

  3 C s       :     2.683921  s :     2.683921
      pz      :     0.843615  p :     2.818593
      px      :     0.961568
      py      :     1.013410
      dz2     :     0.034050  d :     0.518097
      dxz     :     0.074335
      dyz     :     0.072863
      dx2y2   :     0.180519
      dxy     :     0.156330
      f0      :     0.003764  f :     0.058881
      f+1     :     0.003942
      f-1     :     0.004062
      f+2     :     0.006594
      f-2     :     0.006506
      f+3     :     0.012407
      f-3     :     0.021607

  4 C s       :     2.696411  s :     2.696411
      pz      :     0.828123  p :     2.820250
      px      :     1.005827
      py      :     0.986300
      dz2     :     0.033318  d :     0.515282
      dxz     :     0.080354
      dyz     :     0.066394
      dx2y2   :     0.157293
      dxy     :     0.177923
      f0      :     0.003911  f :     0.058591
      f+1     :     0.004330
      f-1     :     0.003514
      f+2     :     0.007360
      f-2     :     0.006366
      f+3     :     0.016156
      f-3     :     0.016954

  5 C s       :     2.758452  s :     2.758452
      pz      :     0.890341  p :     2.937770
      px      :     1.044262
      py      :     1.003166
      dz2     :     0.024049  d :     0.380679
      dxz     :     0.071154
      dyz     :     0.018957
      dx2y2   :     0.140811
      dxy     :     0.125708
      f0      :     0.002887  f :     0.042398
      f+1     :     0.004066
      f-1     :     0.003164
      f+2     :     0.003591
      f-2     :     0.005389
      f+3     :     0.010234
      f-3     :     0.013066

  6 C s       :     2.745561  s :     2.745561
      pz      :     1.028615  p :     2.990740
      px      :     0.969209
      py      :     0.992916
      dz2     :     0.037214  d :     0.363155
      dxz     :     0.055039
      dyz     :     0.093232
      dx2y2   :     0.088891
      dxy     :     0.088780
      f0      :     0.003126  f :     0.039720
      f+1     :     0.003013
      f-1     :     0.004677
      f+2     :     0.003428
      f-2     :     0.006095
      f+3     :     0.011834
      f-3     :     0.007548

  7 C s       :     2.696411  s :     2.696411
      pz      :     0.828123  p :     2.820249
      px      :     1.005826
      py      :     0.986300
      dz2     :     0.033319  d :     0.515281
      dxz     :     0.080354
      dyz     :     0.066394
      dx2y2   :     0.157293
      dxy     :     0.177922
      f0      :     0.003911  f :     0.058591
      f+1     :     0.004330
      f-1     :     0.003514
      f+2     :     0.007360
      f-2     :     0.006366
      f+3     :     0.016156
      f-3     :     0.016953

  8 C s       :     2.683922  s :     2.683922
      pz      :     0.843614  p :     2.818593
      px      :     0.961569
      py      :     1.013410
      dz2     :     0.034050  d :     0.518096
      dxz     :     0.074336
      dyz     :     0.072862
      dx2y2   :     0.180519
      dxy     :     0.156329
      f0      :     0.003764  f :     0.058881
      f+1     :     0.003942
      f-1     :     0.004062
      f+2     :     0.006594
      f-2     :     0.006505
      f+3     :     0.012407
      f-3     :     0.021606

  9 C s       :     2.756943  s :     2.756943
      pz      :     0.889055  p :     2.933482
      px      :     1.046490
      py      :     0.997938
      dz2     :     0.023743  d :     0.376552
      dxz     :     0.071020
      dyz     :     0.018881
      dx2y2   :     0.138950
      dxy     :     0.123958
      f0      :     0.002898  f :     0.042194
      f+1     :     0.003985
      f-1     :     0.003203
      f+2     :     0.003595
      f-2     :     0.005438
      f+3     :     0.010305
      f-3     :     0.012769

 10 C s       :     2.765534  s :     2.765534
      pz      :     0.893303  p :     2.958157
      px      :     1.035494
      py      :     1.029360
      dz2     :     0.024357  d :     0.386458
      dxz     :     0.051560
      dyz     :     0.041991
      dx2y2   :     0.102426
      dxy     :     0.166124
      f0      :     0.002904  f :     0.042334
      f+1     :     0.003688
      f-1     :     0.003544
      f+2     :     0.007575
      f-2     :     0.001381
      f+3     :     0.010298
      f-3     :     0.012945

 11 C s       :     2.766378  s :     2.766378
      pz      :     0.890859  p :     2.955696
      px      :     0.997867
      py      :     1.066969
      dz2     :     0.024393  d :     0.385257
      dxz     :     0.015279
      dyz     :     0.078085
      dx2y2   :     0.156842
      dxy     :     0.110658
      f0      :     0.002901  f :     0.042113
      f+1     :     0.003038
      f-1     :     0.004160
      f+2     :     0.002216
      f-2     :     0.006725
      f+3     :     0.010072
      f-3     :     0.013001

 12 C s       :     2.758451  s :     2.758451
      pz      :     0.890341  p :     2.937770
      px      :     1.044264
      py      :     1.003165
      dz2     :     0.024049  d :     0.380681
      dxz     :     0.071155
      dyz     :     0.018957
      dx2y2   :     0.140814
      dxy     :     0.125706
      f0      :     0.002887  f :     0.042398
      f+1     :     0.004066
      f-1     :     0.003164
      f+2     :     0.003591
      f-2     :     0.005389
      f+3     :     0.010234
      f-3     :     0.013066

 13 H s       :     0.790472  s :     0.790472
      pz      :     0.013101  p :     0.059323
      px      :     0.034750
      py      :     0.011472

 14 H s       :     0.790349  s :     0.790349
      pz      :     0.013070  p :     0.059196
      px      :     0.021688
      py      :     0.024437

 15 H s       :     0.786372  s :     0.786372
      pz      :     0.013024  p :     0.059578
      px      :     0.013040
      py      :     0.033514

 16 H s       :     0.787167  s :     0.787167
      pz      :     0.012933  p :     0.059180
      px      :     0.013019
      py      :     0.033228

 17 H s       :     0.779153  s :     0.779153
      pz      :     0.027678  p :     0.059207
      px      :     0.011920
      py      :     0.019609

 18 H s       :     0.779140  s :     0.779140
      pz      :     0.027687  p :     0.059206
      px      :     0.011921
      py      :     0.019598

 19 H s       :     0.786372  s :     0.786372
      pz      :     0.013024  p :     0.059578
      px      :     0.013039
      py      :     0.033515

 20 H s       :     0.790350  s :     0.790350
      pz      :     0.013070  p :     0.059196
      px      :     0.021689
      py      :     0.024437

 21 H s       :     0.790473  s :     0.790473
      pz      :     0.013101  p :     0.059323
      px      :     0.034750
      py      :     0.011472

 22 H s       :     0.787167  s :     0.787167
      pz      :     0.012933  p :     0.059180
      px      :     0.013019
      py      :     0.033228


---------------------------------
LOEWDIN BOND ORDERS (THRESH 0.050000)
---------------------------------
B(  0-C ,  1-C ) :   1.5757 B(  0-C ,  2-C ) :   0.2386 B(  0-C ,  3-C ) :   0.0995 
B(  0-C ,  4-C ) :   0.2449 B(  0-C ,  5-C ) :   1.5750 B(  0-C , 13-H ) :   0.8289 
B(  0-C , 14-H ) :   0.0953 B(  0-C , 16-H ) :   0.0937 B(  1-C ,  2-C ) :   1.5900 
B(  1-C ,  3-C ) :   0.2432 B(  1-C ,  4-C ) :   0.1002 B(  1-C ,  5-C ) :   0.2366 
B(  1-C , 13-H ) :   0.0954 B(  1-C , 14-H ) :   0.8281 B(  1-C , 15-H ) :   0.0943 
B(  2-C ,  3-C ) :   1.4712 B(  2-C ,  4-C ) :   0.2111 B(  2-C ,  5-C ) :   0.1041 
B(  2-C ,  8-C ) :   0.1523 B(  2-C , 14-H ) :   0.0961 B(  2-C , 15-H ) :   0.8228 
B(  3-C ,  4-C ) :   1.3117 B(  3-C ,  5-C ) :   0.2179 B(  3-C ,  6-C ) :   0.1809 
B(  3-C ,  7-C ) :   0.2013 B(  3-C ,  8-C ) :   1.1081 B(  3-C ,  9-C ) :   0.1523 
B(  3-C , 15-H ) :   0.0934 B(  4-C ,  5-C ) :   1.5143 B(  4-C ,  6-C ) :   1.1098 
B(  4-C ,  7-C ) :   0.1748 B(  4-C ,  8-C ) :   0.2013 B(  4-C , 16-H ) :   0.0952 
B(  4-C , 17-H ) :   0.0744 B(  4-C , 18-H ) :   0.0744 B(  5-C ,  6-C ) :   0.1506 
B(  5-C , 13-H ) :   0.0953 B(  5-C , 16-H ) :   0.8237 B(  6-C ,  7-C ) :   1.1098 
B(  6-C ,  8-C ) :   0.1809 B(  6-C , 12-C ) :   0.1506 B(  6-C , 17-H ) :   0.8233 
B(  6-C , 18-H ) :   0.8233 B(  7-C ,  8-C ) :   1.3117 B(  7-C ,  9-C ) :   0.2111 
B(  7-C , 10-C ) :   0.1002 B(  7-C , 11-C ) :   0.2449 B(  7-C , 12-C ) :   1.5143 
B(  7-C , 17-H ) :   0.0744 B(  7-C , 18-H ) :   0.0744 B(  7-C , 22-H ) :   0.0952 
B(  8-C ,  9-C ) :   1.4712 B(  8-C , 10-C ) :   0.2432 B(  8-C , 11-C ) :   0.0995 
B(  8-C , 12-C ) :   0.2179 B(  8-C , 19-H ) :   0.0934 B(  9-C , 10-C ) :   1.5900 
B(  9-C , 11-C ) :   0.2386 B(  9-C , 12-C ) :   0.1041 B(  9-C , 19-H ) :   0.8228 
B(  9-C , 20-H ) :   0.0961 B( 10-C , 11-C ) :   1.5758 B( 10-C , 12-C ) :   0.2366 
B( 10-C , 19-H ) :   0.0943 B( 10-C , 20-H ) :   0.8281 B( 10-C , 21-H ) :   0.0954 
B( 11-C , 12-C ) :   1.5750 B( 11-C , 20-H ) :   0.0953 B( 11-C , 21-H ) :   0.8289 
B( 11-C , 22-H ) :   0.0937 B( 12-C , 21-H ) :   0.0953 B( 12-C , 22-H ) :   0.8237 


------------------------------------------
LOEWDIN REDUCED ORBITAL POPULATIONS PER MO
-------------------------------------------
THRESHOLD FOR PRINTING IS 0.1%%
                      0         1         2         3         4         5   
                 -12.05764 -12.05753 -12.05622 -12.05499 -12.05105 -12.05092
                   2.00000   2.00000   2.00000   2.00000   2.00000   2.00000
                  --------  --------  --------  --------  --------  --------
 0 C  s               0.0       0.0       0.0       0.1       1.6       4.5
 1 C  s               0.0       0.0       0.0       0.0       9.6      11.2
 2 C  s               0.4       0.1       0.5       3.4      35.5      30.6
 3 C  s              27.6      10.8      20.8      35.2       0.5       1.6
 3 C  dx2y2           0.0       0.1       0.1       0.0       0.0       0.0
 4 C  s              21.0      38.1      26.3      10.1       0.0       0.2
 5 C  s               0.3       0.3       0.8       0.7       0.0       1.3
 6 C  s               0.3       0.0       1.9       0.0       4.5       0.0
 6 C  dxy             0.0       0.2       0.0       0.1       0.0       0.0
 7 C  s              21.0      38.1      26.3      10.1       0.0       0.2
 8 C  s              27.6      10.8      20.8      35.1       0.5       1.6
 8 C  dx2y2           0.0       0.1       0.1       0.0       0.0       0.0
 9 C  s               0.4       0.1       0.5       3.4      35.4      30.7
10 C  s               0.0       0.0       0.0       0.0       9.6      11.2
11 C  s               0.0       0.0       0.0       0.1       1.6       4.5
12 C  s               0.3       0.3       0.8       0.7       0.0       1.3

                      6         7         8         9        10        11   
                 -12.05047 -12.05022 -12.05004 -12.04891 -12.04868 -12.04738
                   2.00000   2.00000   2.00000   2.00000   2.00000   2.00000
                  --------  --------  --------  --------  --------  --------
 0 C  s              18.8      22.6       8.3       5.7       3.0      16.7
 0 C  dxy             0.0       0.0       0.0       0.1       0.1       0.0
 1 C  s               2.7       0.5       0.3      14.7      15.8      23.3
 2 C  s               0.8       7.4       5.1       4.9       4.8       3.0
 3 C  s               0.0       1.5       0.4       0.1       0.0       0.2
 4 C  s               0.0       0.6       1.0       0.3       0.9       0.1
 5 C  s              17.3      16.9       0.5      23.8      23.1       6.6
 6 C  s              20.1       0.0      68.1       0.0       3.7       0.0
 7 C  s               0.0       0.6       1.0       0.3       0.9       0.1
 8 C  s               0.0       1.5       0.4       0.1       0.0       0.2
 9 C  s               0.8       7.4       5.1       4.9       4.8       3.0
10 C  s               2.7       0.5       0.3      14.7      15.9      23.0
11 C  s              18.7      22.7       8.3       5.7       3.0      16.4
11 C  dxy             0.0       0.0       0.0       0.1       0.1       0.0
12 C  s              17.2      16.9       0.5      23.7      23.2       6.5

                     12        13        14        15        16        17   
                 -12.04735  -1.41695  -1.37298  -1.32382  -1.29165  -1.27172
                   2.00000   2.00000   2.00000   2.00000   2.00000   2.00000
                  --------  --------  --------  --------  --------  --------
 0 C  s              17.8       1.9       6.4       7.3       2.9       0.2
 0 C  px              0.0       1.0       1.7       0.6       0.4       0.2
 0 C  py              0.0       0.0       0.1       0.7       1.7       4.6
 0 C  dz2             0.0       0.1       0.3       0.2       0.1       0.0
 0 C  dx2y2           0.0       0.0       0.0       0.2       0.0       0.1
 0 C  dxy             0.0       0.0       0.0       0.0       0.5       1.0
 1 C  s              20.9       1.9       6.1       8.4       0.3       5.1
 1 C  px              0.0       0.7       0.6       0.1       1.8       1.6
 1 C  py              0.0       0.4       1.1       1.0       1.2       0.6
 1 C  dz2             0.0       0.1       0.3       0.3       0.0       0.1
 1 C  dx2y2           0.0       0.0       0.0       0.0       0.8       0.5
 1 C  dxy             0.0       0.0       0.0       0.1       0.0       0.1
 2 C  s               2.5       3.7       4.9       2.7       5.8       7.4
 2 C  px              0.0       0.2       0.6       2.5       0.6       0.9
 2 C  py              0.0       1.7       1.2       0.0       0.4       0.2
 2 C  dz2             0.0       0.2       0.2       0.1       0.1       0.1
 2 C  dx2y2           0.0       0.0       0.0       0.2       0.1       0.3
 2 C  dxy             0.0       0.1       0.0       0.3       0.3       0.0
 3 C  s               0.0      12.0       2.6       0.7       5.4       0.3
 3 C  px              0.0       0.2       4.4       2.2       0.4       0.5
 3 C  py              0.0       0.9       0.0       2.6       4.0       3.0
 3 C  dz2             0.0       0.8       0.1       0.0       0.1       0.0
 3 C  dx2y2           0.0       0.0       0.1       0.1       0.3       0.1
 3 C  dxy             0.0       0.0       0.0       0.0       0.3       1.6
 4 C  s               0.2      10.0       4.2       2.0       2.4       4.3
 4 C  px              0.0       0.6       2.0       4.7       1.2       2.1
 4 C  py              0.0       0.9       0.5       0.2       3.7       0.6
 4 C  dz2             0.0       0.7       0.2       0.1       0.1       0.0
 4 C  dx2y2           0.0       0.0       0.0       0.0       1.1       0.4
 4 C  dxy             0.0       0.0       0.0       0.0       0.2       0.1
 5 C  s               7.4       3.3       6.0       1.3       7.2       7.2
 5 C  px              0.0       1.0       0.1       1.9       0.0       0.6
 5 C  py              0.0       0.7       1.7       1.3       0.3       0.2
 5 C  dz2             0.0       0.2       0.3       0.0       0.1       0.1
 5 C  dx2y2           0.0       0.1       0.0       0.3       0.1       0.3
 5 C  dxy             0.0       0.0       0.0       0.3       0.2       0.0
 6 C  s               0.8       5.4       0.0       5.3       3.4       0.0
 6 C  px              0.0       0.0       1.7       0.0       0.0       2.7
 6 C  py              0.0       2.8       0.0       1.1       0.0       0.0
 6 C  dz2             0.0       0.3       0.0       0.2       0.0       0.0
 6 C  dx2y2           0.0       0.0       0.0       0.0       0.3       0.0
 6 C  dxy             0.0       0.0       0.3       0.0       0.0       0.4
 7 C  s               0.2      10.0       4.2       2.0       2.4       4.3
 7 C  px              0.0       0.6       2.0       4.7       1.2       2.1
 7 C  py              0.0       0.9       0.5       0.2       3.7       0.6
 7 C  dz2             0.0       0.7       0.2       0.1       0.1       0.0
 7 C  dx2y2           0.0       0.0       0.0       0.0       1.1       0.4
 7 C  dxy             0.0       0.0       0.0       0.0       0.2       0.1
 8 C  s               0.0      12.0       2.6       0.7       5.4       0.3
 8 C  px              0.0       0.2       4.4       2.2       0.4       0.5
 8 C  py              0.0       0.9       0.0       2.6       4.0       3.0
 8 C  dz2             0.0       0.8       0.1       0.0       0.1       0.0
 8 C  dx2y2           0.0       0.0       0.1       0.1       0.3       0.1
 8 C  dxy             0.0       0.0       0.0       0.0       0.3       1.6
 9 C  s               2.5       3.7       4.9       2.7       5.8       7.4
 9 C  px              0.0       0.2       0.6       2.5       0.6       0.9
 9 C  py              0.0       1.7       1.2       0.0       0.4       0.2
 9 C  dz2             0.0       0.2       0.2       0.1       0.1       0.1
 9 C  dx2y2           0.0       0.0       0.0       0.2       0.1       0.3
 9 C  dxy             0.0       0.1       0.0       0.3       0.3       0.0
10 C  s              21.2       1.9       6.1       8.4       0.3       5.1
10 C  px              0.0       0.7       0.6       0.1       1.8       1.6
10 C  py              0.0       0.4       1.1       1.0       1.2       0.6
10 C  dz2             0.0       0.1       0.3       0.3       0.0       0.1
10 C  dx2y2           0.0       0.0       0.0       0.0       0.8       0.5
10 C  dxy             0.0       0.0       0.0       0.1       0.0       0.1
11 C  s              18.0       1.9       6.4       7.3       2.9       0.2
11 C  px              0.0       1.0       1.7       0.6       0.4       0.2
11 C  py              0.0       0.0       0.1       0.7       1.7       4.6
11 C  dz2             0.0       0.1       0.3       0.2       0.1       0.0
11 C  dx2y2           0.0       0.0       0.0       0.2       0.0       0.1
11 C  dxy             0.0       0.0       0.0       0.0       0.5       1.0
12 C  s               7.5       3.3       6.0       1.3       7.2       7.2
12 C  px              0.0       1.0       0.1       1.9       0.0       0.6
12 C  py              0.0       0.7       1.7       1.3       0.3       0.2
12 C  dz2             0.0       0.2       0.3       0.0       0.1       0.1
12 C  dx2y2           0.0       0.1       0.0       0.3       0.1       0.3
12 C  dxy             0.0       0.0       0.0       0.3       0.2       0.0
13 H  s               0.0       0.2       0.8       1.0       0.4       0.0
14 H  s               0.0       0.2       0.7       1.1       0.0       0.8
15 H  s               0.0       0.4       0.5       0.3       0.9       1.2
15 H  py              0.0       0.0       0.0       0.0       0.1       0.1
16 H  s               0.0       0.4       0.7       0.2       1.1       1.2
16 H  py              0.0       0.0       0.0       0.0       0.1       0.1
17 H  s               0.0       0.7       0.0       0.8       0.7       0.0
18 H  s               0.0       0.7       0.0       0.8       0.7       0.0
19 H  s               0.0       0.4       0.5       0.3       0.9       1.2
19 H  py              0.0       0.0       0.0       0.0       0.1       0.1
20 H  s               0.0       0.2       0.7       1.1       0.0       0.8
21 H  s               0.0       0.2       0.8       1.0       0.4       0.0
[...]
19 H  px              0.0       0.2       0.0       0.0       0.0       0.0
20 H  s               0.1       0.2       0.1       0.2       0.1       0.1
21 H  s               0.2       0.2       0.0       0.3       0.0       0.0
22 H  s               0.1       0.3       0.0       0.4       0.0       0.0

                    450       451       452       453       454       455   
                  20.31904  20.89598  20.97910  21.01880  21.04894  21.06288
                   0.00000   0.00000   0.00000   0.00000   0.00000   0.00000
                  --------  --------  --------  --------  --------  --------
 0 C  s               8.5      23.2       0.6      20.6       3.5       0.1
 0 C  py              0.0       0.1       0.1       0.0       0.1       0.2
 1 C  s               7.9      20.1       9.5       0.2      14.9      10.9
 1 C  px              0.0       0.0       0.0       0.1       0.0       0.0
 1 C  py              0.0       0.1       0.0       0.1       0.0       0.0
 2 C  s               6.4       2.1       0.9      25.6       3.2       6.5
 2 C  px              0.0       0.3       0.0       0.0       0.3       0.0
 3 C  s               7.4       0.2       0.0       0.4       9.8       0.9
 3 C  px              0.0       0.4       0.0       0.0       0.1       0.1
 3 C  py              0.0       0.0       0.0       0.1       0.2       0.0
 4 C  s              11.3       0.0       0.0       0.0      10.1       0.4
 4 C  px              0.0       0.2       0.1       0.0       0.1       0.2
 4 C  dxy             0.0       0.0       0.1       0.0       0.0       0.0
 5 C  s               7.4       2.7      18.2       0.0       0.0      30.2
 5 C  px              0.0       0.2       0.0       0.1       0.3       0.0
 6 C  s               1.1       0.0      39.8       4.6      13.7       0.0
 7 C  s              11.3       0.0       0.0       0.0      10.1       0.4
 7 C  px              0.0       0.2       0.1       0.0       0.1       0.2
 7 C  dxy             0.0       0.0       0.1       0.0       0.0       0.0
 8 C  s               7.4       0.2       0.0       0.4       9.8       0.9
 8 C  px              0.0       0.4       0.0       0.0       0.1       0.1
 8 C  py              0.0       0.0       0.0       0.1       0.2       0.0
 9 C  s               6.4       2.1       0.9      25.6       3.2       6.5
 9 C  px              0.0       0.3       0.0       0.0       0.3       0.0
10 C  s               7.9      20.1       9.5       0.2      14.9      10.9
10 C  px              0.0       0.0       0.0       0.1       0.0       0.0
10 C  py              0.0       0.1       0.0       0.1       0.0       0.0
11 C  s               8.5      23.2       0.6      20.6       3.5       0.1
11 C  py              0.0       0.1       0.1       0.0       0.1       0.2
12 C  s               7.4       2.7      18.2       0.0       0.0      30.2
12 C  px              0.0       0.2       0.0       0.1       0.3       0.0
17 H  s               0.0       0.0       0.1       0.0       0.0       0.0
18 H  s               0.0       0.0       0.1       0.0       0.0       0.0

                    456       457       458       459       460       461   
                  21.12531  21.16773  21.37576  21.38404  21.53535  21.99969
                   0.00000   0.00000   0.00000   0.00000   0.00000   0.00000
                  --------  --------  --------  --------  --------  --------
 0 C  s              21.7      11.1       4.1       3.2       0.1       0.7
 1 C  s              12.4      11.3       4.4       4.8       0.2       0.8
 2 C  s              13.9       4.6       8.4      21.3       3.8       0.0
 3 C  s               0.1       1.1       2.6       4.7      20.9      27.3
 3 C  px              0.2       0.0       0.0       0.1       0.2       0.0
 3 C  py              0.0       0.0       0.1       0.1       0.2       0.2
 3 C  dx2y2           0.0       0.0       0.0       0.0       0.2       0.2
 3 C  dxy             0.1       0.0       0.0       0.2       0.0       0.0
 4 C  s               0.6       7.5       0.8       0.0      24.0      19.4
 4 C  py              0.0       0.0       0.2       0.1       0.0       0.2
 4 C  dx2y2           0.0       0.0       0.1       0.1       0.0       0.1
 4 C  dxy             0.0       0.0       0.0       0.0       0.0       0.1
 5 C  s               0.3       1.9      21.3      15.0       0.1       0.1
 6 C  s               0.0      23.8      14.8       0.0       0.0       0.4
 7 C  s               0.6       7.5       0.8       0.0      24.0      19.4
 7 C  py              0.0       0.0       0.2       0.1       0.0       0.2
 7 C  dx2y2           0.0       0.0       0.1       0.1       0.0       0.1
 7 C  dxy             0.0       0.0       0.0       0.0       0.0       0.1
 8 C  s               0.1       1.1       2.6       4.7      20.9      27.3
 8 C  px              0.2       0.0       0.0       0.1       0.2       0.0
 8 C  py              0.0       0.0       0.1       0.1       0.2       0.2
 8 C  dx2y2           0.0       0.0       0.0       0.0       0.2       0.2
 8 C  dxy             0.1       0.0       0.0       0.2       0.0       0.0
 9 C  s              13.9       4.6       8.4      21.3       3.8       0.0
10 C  s              12.4      11.3       4.4       4.8       0.2       0.8
11 C  s              21.7      11.1       4.1       3.2       0.1       0.7
12 C  s               0.3       1.9      21.3      15.0       0.1       0.1

                    462   
                  22.13426
                   0.00000
                  --------
 0 C  s               0.7
 1 C  s               0.5
 2 C  s               1.1
 3 C  s              22.7
 3 C  dxy             0.1
 4 C  s              23.6
 4 C  py              0.1
 5 C  s               0.5
 7 C  s              23.6
 7 C  py              0.1
 8 C  s              22.7
 8 C  dxy             0.1
 9 C  s               1.1
10 C  s               0.5
11 C  s               0.7
12 C  s               0.5


                      *****************************
                      * MAYER POPULATION ANALYSIS *
                      *****************************

  NA   - Mulliken gross atomic population
  ZA   - Total nuclear charge
  QA   - Mulliken gross atomic charge
  VA   - Mayer's total valence
  BVA  - Mayer's bonded valence
  FA   - Mayer's free valence

  ATOM       NA         ZA         QA         VA         BVA        FA
  0 C      6.1363     6.0000    -0.1363     3.8621     3.8621     0.0000
  1 C      6.1570     6.0000    -0.1570     3.8895     3.8895    -0.0000
  2 C      6.2539     6.0000    -0.2539     3.9019     3.9019    -0.0000
  3 C      5.9176     6.0000     0.0824     3.5688     3.5688    -0.0000
  4 C      6.0490     6.0000    -0.0490     3.8426     3.8426     0.0000
  5 C      6.2676     6.0000    -0.2676     3.8906     3.8906     0.0000
  6 C      5.9908     6.0000     0.0092     3.8306     3.8306     0.0000
  7 C      6.0488     6.0000    -0.0488     3.8429     3.8429     0.0000
  8 C      5.9180     6.0000     0.0820     3.5692     3.5692     0.0000
  9 C      6.2540     6.0000    -0.2540     3.9021     3.9021    -0.0000
 10 C      6.1569     6.0000    -0.1569     3.8895     3.8895     0.0000
 11 C      6.1363     6.0000    -0.1363     3.8622     3.8622    -0.0000
 12 C      6.2675     6.0000    -0.2675     3.8910     3.8910    -0.0000
 13 H      0.8396     1.0000     0.1604     0.9629     0.9629    -0.0000
 14 H      0.8410     1.0000     0.1590     0.9650     0.9650    -0.0000
 15 H      0.8374     1.0000     0.1626     0.9695     0.9695    -0.0000
 16 H      0.8426     1.0000     0.1574     0.9679     0.9679     0.0000
 17 H      0.8626     1.0000     0.1374     0.9715     0.9715     0.0000
 18 H      0.8626     1.0000     0.1374     0.9715     0.9715     0.0000
 19 H      0.8375     1.0000     0.1625     0.9696     0.9696    -0.0000
 20 H      0.8410     1.0000     0.1590     0.9650     0.9650     0.0000
 21 H      0.8396     1.0000     0.1604     0.9629     0.9629    -0.0000
 22 H      0.8425     1.0000     0.1575     0.9679     0.9679    -0.0000

  Mayer bond orders larger than 0.100000
B(  0-C ,  1-C ) :   1.3893 B(  0-C ,  5-C ) :   1.4086 B(  0-C , 13-H ) :   0.9794 
B(  1-C ,  2-C ) :   1.4373 B(  1-C , 14-H ) :   0.9805 B(  2-C ,  3-C ) :   1.3493 
B(  2-C , 15-H ) :   0.9824 B(  3-C ,  4-C ) :   1.3544 B(  3-C ,  8-C ) :   0.9476 
B(  4-C ,  5-C ) :   1.3660 B(  4-C ,  6-C ) :   1.0401 B(  5-C , 16-H ) :   0.9945 
B(  6-C ,  7-C ) :   1.0397 B(  6-C , 17-H ) :   0.9027 B(  6-C , 18-H ) :   0.9025 
B(  7-C ,  8-C ) :   1.3545 B(  7-C , 12-C ) :   1.3666 B(  8-C ,  9-C ) :   1.3494 
B(  9-C , 10-C ) :   1.4375 B(  9-C , 19-H ) :   0.9824 B( 10-C , 11-C ) :   1.3894 
B( 10-C , 20-H ) :   0.9804 B( 11-C , 12-C ) :   1.4086 B( 11-C , 21-H ) :   0.9794 
B( 12-C , 22-H ) :   0.9943 

-------
TIMINGS
-------

Total SCF time: 0 days 0 hours 6 min 53 sec 

Total time                  ....     413.390 sec
Sum of individual times     ....     407.340 sec  ( 98.5%)

SCF preparation             ....       0.513 sec  (  0.1%)
Fock matrix formation       ....     404.318 sec  ( 97.8%)
  Startup                   ....       0.079 sec  (  0.0% of F)
  Split-RI-J                ....      16.650 sec  (  4.1% of F)
  Chain of spheres X        ....     341.869 sec  ( 84.6% of F)
  XC integration            ....      33.275 sec  (  8.2% of F)
    XC Preparation          ....       0.000 sec  (  0.0% of XC)
    Basis function eval.    ....       6.867 sec  ( 20.6% of XC)
    Density eval.           ....       7.141 sec  ( 21.5% of XC)
    XC-Functional eval.     ....       6.517 sec  ( 19.6% of XC)
    XC-Potential eval.      ....      11.833 sec  ( 35.6% of XC)
  CPCM terms                ....      17.248 sec  (  4.3% of F)
Diagonalization             ....       0.000 sec  (  0.0%)
Density matrix formation    ....       0.283 sec  (  0.1%)
Total Energy calculation    ....       0.089 sec  (  0.0%)
Population analysis         ....       0.401 sec  (  0.1%)
Orbital Transformation      ....       0.179 sec  (  0.0%)
Orbital Orthonormalization  ....       0.000 sec  (  0.0%)
DIIS solution               ....       0.755 sec  (  0.2%)
  MO trafo                  ....       0.000 sec  (  0.0 % of DIIS)
  Orb grad                  ....       0.000 sec  (  0.0 % of DIIS)
  Energy W gradient         ....       0.000 sec  (  0.0 % of DIIS)
  DIIS error                ....       0.050 sec  (  6.6 % of DIIS)
  DIIS work                 ....       0.604 sec  ( 80.0 % of DIIS)
  Form Q                    ....       0.000 sec  (  0.0 % of DIIS)
  Form QpQm                 ....       0.000 sec  (  0.0 % of DIIS)
  Exp/Cayley                ....       0.000 sec  (  0.0 % of DIIS)
  Orb update                ....       0.000 sec  (  0.0 % of DIIS)
  Wake-sleep                ....       0.015 sec  (  2.0 % of DIIS)
SOSCF solution              ....       0.426 sec  (  0.1%)
  MO trafo                  ....       0.167 sec  ( 39.3 % of SOSCF)
  Orb grad                  ....       0.003 sec  (  0.8 % of SOSCF)
  Rot update                ....       0.066 sec  ( 15.5 % of SOSCF)
  Step                      ....       0.189 sec  ( 44.3 % of SOSCF)
Grid generation             ....       0.376 sec  (  0.1%)
Finished LeanSCF after 413.5 sec

Maximum memory used throughout the entire LEANSCF-calculation: 77.5 MB
------------------   -----------------
gCP correction             0.011362731
------------------   -----------------

-------------------------   --------------------
FINAL SINGLE POINT ENERGY      -501.450134827029
-------------------------   --------------------


------------------------------------------------------------------------------
                              ORCA PROPERTY CALCULATIONS
------------------------------------------------------------------------------

GBWName                                 ... sp_solv.gbw
Number of atoms                         ...     23
Number of basis functions               ...    463
Max core memory                         ...   1024 MB

Electric properties:
Dipole moment                           ... YES
Quadrupole moment                       ...  NO
Static polarizability (Dipole/Dipole)   ...  NO
Static polarizability (Dipole/Quad.)    ...  NO
Static polarizability (Quad./Quad.)     ...  NO
Static polarizability (Velocity)        ...  NO

Atomic electric properties:
Dipole moment                           ...  NO
Quadrupole moment                       ...  NO
Static polarizability                   ...  NO

Choice of electric origin               ... Center of mass
Position of electric origin             ...     0.000007     0.000411     0.000089

General magnetic properties:
Magnetizability                         ...  NO

EPR properties:
g-Tensor (aka g-matrix)                 ...  NO
Zero-Field splitting spin-orbit         ...  NO
Zero-field splitting spin-spin          ...  NO
Hyperfine couplings                     ...  NO (   0 nuclei)
Quadrupole couplings                    ...  NO (   0 nuclei)
Contact density                         ...  NO (   0 nuclei)

NMR properties:
Chemical shifts                         ...  NO (   0 nuclei)
Spin-rotation constants                 ...  NO (   0 nuclei)
Spin-spin couplings                     ...  NO (   0 nuclei,    0 pairs)

Choice of magnetic origin               ... GIAO
Position of magnetic origin             ...     0.000000     0.000000     0.000000

Properties with geometric perturbations:
SCF Hessian                             ...  NO
IR spectrum                             ...  NO
VCD spectrum                            ...  NO
X-ray spectroscopy properties:
SCF XES/XAS/RIXS spectra                ...  NO


-------------
DIPOLE MOMENT
-------------

Method             : SCF
Type of density    : Electron Density
Multiplicity       :   1
Irrep              :   0
Energy             :  -501.4614975576294569 Eh
Relativity type    : 
Basis              : AO
                                X                 Y                 Z
Electronic contribution:     -0.000008041       0.558968883      -0.000671974
Nuclear contribution   :     -0.000002719      -0.910476938       0.000799248
                        -----------------------------------------
Total Dipole Moment    :     -0.000010760      -0.351508054       0.000127275
                        -----------------------------------------
Magnitude (a.u.)       :      0.351508078
Magnitude (Debye)      :      0.893462529



--------------------
Rotational spectrum 
--------------------
 
Rotational constants in cm-1:             0.072713             0.019628             0.015500 
Rotational constants in MHz :          2179.887791           588.420647           464.675243 

Dipole components along the rotational axes: 
x,y,z [a.u.] :    -0.000008    -0.351508     0.000137 
x,y,z [Debye]:    -0.000020    -0.893462     0.000349 

 

Dipole moment calculation done in   0.0 sec 

Maximum memory used throughout the entire PROP-calculation: 50.1 MB

--------------------------------
SUGGESTED CITATIONS FOR THIS RUN
--------------------------------

Below you find a list of papers that are relevant to this ORCA run
We neither can nor want to force you to cite these papers, but we appreciate if you do
You receive ORCA, which is the product of decades of hard work by many enthusiastic individuals, for free
The only thing we kindly ask in return is that you cite our papers,
We deeply appreciate it, if you show your appreciation for ORCA by not just citing the generic ORCA reference.

Please note that relegating all ORCA citations to the supporting information does *not* help us.
SI sections are not indexed - citations you put there will not count into any citation statistics
But we need these citations in order to attract the funding resources that allow us to do what we are doing

Therefore, if you are a happy ORCA user, please consider citing a few of the papers listed below in the main body of your paper

In addition to the list printed below, the program has created the file sp_solv.bibtex that contains the list in bibtex format
You can import this file easily into all common literature databanks and citation aid programs


List of essential papers. We consider these as the minimum necessary citations

  1. Neese,F.
     Software update: the ORCA program system, version 5.0
     WIRES Comput. Molec. Sci., 2022 12(1)e1606
     doi.org/10.1002/wcms.1606

List of papers to cite with high priority. The work reported in these papers was absolutely
necessary for this run to complete.
Our perspective: the developers of density functionals and basis sets usually get cited in chemistry papers
Good! But without the algorithms to do something with them, the functionals or basis sets would not do anything.
Hence, in our opinion, the algorithm design and method developments papers are equally worthy of getting cited

  1. Neese,F.
     An improvement of the resolution of the identity approximation for the formation of the Coulomb matrix
     J. Comp. Chem., 2003 24(14)1740-1747
     doi.org/10.1002/jcc.10318
  2. Neese,F.; Wennmohs,F.; Hansen,A.; Becker,U.
     Efficient, approximate and parallel Hartree-Fock and hybrid DFT calculations. A 'chain-of-spheres' algorithm for the Hartree-Fock exchange
     Chem. Phys., 2009 356(1-3)98-109
     doi.org/10.1016/j.chemphys.2008.10.036
  3. Garcia-Rates,M.; Neese,F.
     Effect of the Solute Cavity on the Solvation Energy and its Derivatives within the Framework of the Gaussian Charge Scheme
     J. Comput. Chem., 2020 41 922-939
     doi.org/10.1002/jcc.26139
  4. Helmich-Paris,B.; de Souza,B.; Neese,F.; Izsák,R.
     An improved chain of spheres for exchange algorithm
     J. Chem. Phys., 2021 155 104109
     doi.org/doi: 10.1063/5.0058766.
  5. Neese,F.
     The SHARK Integral Generation and Digestion System
     J. Comp. Chem., 2022  1-16
     doi.org/10.1002/jcc.26942

List of suggested additional citations. These are papers that are important in the 'surrounding' of 
of this run, or papers that preceded the highly important papers. If you like your results we are grateful for a citation.

  1. Izsak,R.; Neese,F.
     An overlap fitted chain of spheres exchange method
     J. Chem. Phys., 2011 135 144105
     doi.org/10.1063/1.3646921
  2. Izsak,R.; Hansen,A.; Neese,F.
     The resolution of identity and chain of spheres approximations for the LPNO-CCSD singles Fock term
     Molec. Phys., 2012 110 2413-2417
     doi.org/10.1080/00268976.2012.687466
  3. Neese,F.
     The ORCA program system
     WIRES Comput. Molec. Sci., 2012 2(1)73-78
     doi.org/10.1002/wcms.81
  4. Izsak,R.; Neese,F.; Klopper,W.
     Robust fitting techniques in the chain of spheres approximation to the Fock exchange: The role of the complementary space
     J. Chem. Phys., 2013 139 
     doi.org/10.1063/1.4819264
  5. Neese,F.
     Software update: the ORCA program system, version 4.0
     WIRES Comput. Molec. Sci., 2018 8(1)1-6
     doi.org/10.1002/wcms.1327
  6. Neese,F.; Wennmohs,F.; Becker,U.; Riplinger,C.
     The ORCA quantum chemistry program package
     J. Chem. Phys., 2020 152 Art. No. L224108
     doi.org/10.1063/5.0004608

List of optional additional citations

  1. Neese,F.
     Approximate second-order SCF convergence for spin unrestricted wavefunctions
     Chem. Phys. Lett., 2000 325(1-3)93-98
     doi.org/10.1016/s0009-2614(00)00662-x

Timings for individual modules:

Sum of individual times          ...      418.622 sec (=   6.977 min)
Startup calculation              ...        4.147 sec (=   0.069 min)   1.0 %
SCF iterations                   ...      414.327 sec (=   6.905 min)  99.0 %
Property calculations            ...        0.148 sec (=   0.002 min)   0.0 %
                             ****ORCA TERMINATED NORMALLY****
TOTAL RUN TIME: 0 days 0 hours 6 minutes 59 seconds 321 msec
