      -----------------------------------------------------------      
     |                   =====================                   |     
     |                           x T B                           |     
     |                   =====================                   |     
     |                         S. Grimme                         |     
     |          Mulliken Center for Theoretical Chemistry        |     
     |                    University of Bonn                     |     
      -----------------------------------------------------------      

   * xtb version 6.7.1 (edcfbbe) compiled by 'albert@albert-system' on 2024-07-22

   xtb is free software: you can redistribute it and/or modify it under
   the terms of the GNU Lesser General Public License as published by
   the Free Software Foundation, either version 3 of the License, or
   (at your option) any later version.
   
   xtb is distributed in the hope that it will be useful,
   but WITHOUT ANY WARRANTY; without even the implied warranty of
   MERCHANTABILITY or FITNESS FOR A PARTICULAR PURPOSE.  See the
   GNU Lesser General Public License for more details.
   
   Cite this work as:
   * C. Bannwarth, E. Caldeweyher, S. Ehlert, A. Hansen, P. Pracht,
     J. Seibert, S. Spicher, S. Grimme, WIREs Comput. Mol. Sci., 2020, 11,
     e01493. DOI: 10.1002/wcms.1493
   
   for GFN2-xTB:
   * C. Bannwarth, S. Ehlert and S. Grimme., J. Chem. Theory Comput., 2019,
     15, 1652-1671. DOI: 10.1021/acs.jctc.8b01176
   for GFN1-xTB:
   * S. Grimme, C. Bannwarth, P. Shushkov, J. Chem. Theory Comput., 2017,
     13, 1989-2009. DOI: 10.1021/acs.jctc.7b00118
   for GFN0-xTB:
   * P. Pracht, E. Caldeweyher, S. Ehlert, S. Grimme, ChemRxiv, 2019, preprint.
     DOI: 10.26434/chemrxiv.8326202.v1
   for GFN-FF:
   * S. Spicher and S. Grimme, Angew. Chem. Int. Ed., 2020, 59, 15665-15673.
     DOI: 10.1002/anie.202004239
   
   for ALPB and GBSA implicit solvation:
   * S. Ehlert, M. Stahn, S. Spicher, S. Grimme, J. Chem. Theory Comput.,
     2021, 17, 4250-4261. DOI: 10.1021/acs.jctc.1c00471
   
   for ddCOSMO and CPCM-X implicit solvation:
   * M. Stahn, S. Ehlert, S. Grimme, J. Phys. Chem. A,
     2023, XX, XXXX-XXXX. DOI: 10.1021/acs.jpca.3c04382
   
   for DFT-D4:
   * E. Caldeweyher, C. Bannwarth and S. Grimme, J. Chem. Phys., 2017,
     147, 034112. DOI: 10.1063/1.4993215
   * E. Caldeweyher, S. Ehlert, A. Hansen, H. Neugebauer, S. Spicher,
     C. Bannwarth and S. Grimme, J. Chem. Phys., 2019, 150, 154122.
     DOI: 10.1063/1.5090222
   * E. Caldeweyher, J.-M. Mewes, S. Ehlert and S. Grimme, Phys. Chem. Chem. Phys.
     2020, 22, 8499-8512. DOI: 10.1039/D0CP00502A
   
   for sTDA-xTB:
   * S. Grimme and C. Bannwarth, J. Chem. Phys., 2016, 145, 054103.
     DOI: 10.1063/1.4959605
   
   in the mass-spec context:
   * V. Asgeirsson, C. Bauer and S. Grimme, Chem. Sci., 2017, 8, 4879.
     DOI: 10.1039/c7sc00601b
   * J. Koopman and S. Grimme, ACS Omega 2019, 4, 12, 15120-15133.
     DOI: 10.1021/acsomega.9b02011
   
   for metadynamics refer to:
   * S. Grimme, J. Chem. Theory Comput., 2019, 155, 2847-2862
     DOI: 10.1021/acs.jctc.9b00143
   
   for SPH calculations refer to:
   * S. Spicher and S. Grimme, J. Chem. Theory Comput., 2021, 17, 1701-1714
     DOI: 10.1021/acs.jctc.0c01306
   
   for ONIOM refer to:
   * C. Plett, A. Katbashev, S. Ehlert, S. Grimme, M. Bursch,
     Phys. Chem. Chem. Phys., 2023, 25, 17860-17868. DOI: 10.1039/D3CP02178E
   
   for DIPRO refer to:
   * J. Kohn, N. Gildemeister, S. Grimme, D. Fazzi, A. Hansen,
     J. Chem. Phys., 2023, just accepted.
   
   for PTB refer to:
   * S. Grimme, M. Mueller, A. Hansen, J. Chem. Phys., 2023, 158, 124111.
     DOI: 10.1063/5.0137838
   
   with help from (in alphabetical order)
   P. Atkinson, C. Bannwarth, F. Bohle, G. Brandenburg, E. Caldeweyher
   M. Checinski, S. Dohm, S. Ehlert, S. Ehrlich, I. Gerasimov, C. Hölzer
   A. Katbashev, J. Kohn, J. Koopman, C. Lavigne, S. Lehtola, F. März, M. Müller,
   F. Musil, H. Neugebauer, J. Pisarek, C. Plett, P. Pracht, F. Pultar,
   J. Seibert, P. Shushkov, S. Spicher, M. Stahn, M. Steiner, T. Strunk,
   J. Stückrath, T. Rose, and J. Unsleber
   
 * started run on 2025/04/04 at 16:18:25.530     
   ID    Z sym.   atoms
    1    6 C      1-4, 6, 7
    2    7 N      5
    3    8 O      8
    4    1 H      9-13

           -------------------------------------------------
          |                Calculation Setup                |
           -------------------------------------------------

          program call               : /srv/scratch/z5358697/.xtb/bin/xtb xtb_rrho.coord --gfn2 --ohess vtight --chrg 0 --enso --norestart -I rrho-xcontrol-inp --parallel 1 --alpb water
          hostname                   : k146
          coordinate file            : xtb_rrho.coord
          omp threads                :                     1


           -------------------------------------------------
          |                 G F N 2 - x T B                 |
           -------------------------------------------------

        Reference                      10.1021/acs.jctc.8b01176
      * Hamiltonian:
        H0-scaling (s, p, d)           1.850000    2.230000    2.230000
        zeta-weighting                 0.500000
      * Dispersion:
        s8                             2.700000
        a1                             0.520000
        a2                             5.000000
        s9                             5.000000
      * Repulsion:
        kExp                           1.500000    1.000000
        rExp                           1.000000
      * Coulomb:
        alpha                          2.000000
        third order                    shell-resolved
        anisotropic                    true
        a3                             3.000000
        a5                             4.000000
        cn-shift                       1.200000
        cn-exp                         4.000000
        max-rad                        5.000000

      * Solvation model:               ALPB
        Solvent                        water
        Parameter file                 internal GFN2-xTB/ALPB
        Dielectric constant                8.0200E+01
        Reference state                gsolv [1 M gas/solution]
        Free energy shift                  1.0808E-03 Eh       6.7819E-01 kcal/mol
        Temperature                        2.9815E+02 K
        Density                            1.0000E+00 kg/L
        Solvent mass                       1.8000E+01 g/mol
        Interaction kernel             P16
        Born radius scaling (c1)           1.4744E+00
        Born radii integrator          GBOBC
        Born offset                        0.0000E+00 a0       0.0000E+00 AA
        H-bond correction              true
        Ion screening                  false
        Surface tension                    1.0000E-05 Eh       1.5569E+01 dyn/cm
        Grid points                               974 per atom

          ...................................................
          :                      SETUP                      :
          :.................................................:
          :  # basis functions                  37          :
          :  # atomic orbitals                  37          :
          :  # shells                           21          :
          :  # electrons                        40          :
          :  max. iterations                   250          :
          :  Hamiltonian                  GFN2-xTB          :
          :  restarted?                      false          :
          :  GBSA solvation                   true          :
          :  PC potential                    false          :
          :  electronic temp.          300.0000000     K    :
          :  accuracy                    1.0000000          :
          :  -> integral cutoff          0.2500000E+02      :
          :  -> integral neglect         0.1000000E-07      :
          :  -> SCF convergence          0.1000000E-05 Eh   :
          :  -> wf. convergence          0.1000000E-03 e    :
          :  Broyden damping             0.4000000          :
          :  net charge                          0          :
          :  unpaired electrons                  0          :
          ...................................................

 iter      E             dE          RMSdq      gap      omega  full diag
   1    -22.6302594 -0.226303E+02  0.612E+00    2.40       0.0  T
   2    -22.6615677 -0.313083E-01  0.333E+00    2.09       1.0  T
   3    -22.6602861  0.128161E-02  0.147E+00    2.27       1.0  T
   4    -22.6651442 -0.485815E-02  0.206E-01    2.05       1.0  T
   5    -22.6653609 -0.216625E-03  0.803E-02    2.03       1.0  T
   6    -22.6653993 -0.384510E-04  0.396E-02    2.02       1.0  T
   7    -22.6653984  0.913471E-06  0.256E-02    2.03       1.1  T
   8    -22.6654027 -0.433870E-05  0.832E-03    2.03       3.3  T
   9    -22.6654031 -0.358105E-06  0.351E-03    2.03       7.9  T
  10    -22.6654032 -0.590552E-07  0.965E-04    2.03      28.7  T
  11    -22.6654032 -0.113559E-08  0.723E-04    2.03      38.4  T

   *** convergence criteria satisfied after 11 iterations ***

         #    Occupation            Energy/Eh            Energy/eV
      -------------------------------------------------------------
         1        2.0000           -0.7292788             -19.8447
       ...           ...                  ...                  ...
        14        2.0000           -0.5053253             -13.7506
        15        2.0000           -0.4827512             -13.1363
        16        2.0000           -0.4620755             -12.5737
        17        2.0000           -0.4542318             -12.3603
        18        2.0000           -0.4375677             -11.9068
        19        2.0000           -0.4205306             -11.4432
        20        2.0000           -0.3870257             -10.5315 (HOMO)
        21                         -0.3125752              -8.5056 (LUMO)
        22                         -0.2675073              -7.2792
        23                         -0.2245175              -6.1094
        24                         -0.1203537              -3.2750
        25                          0.0706863               1.9235
       ...                                ...                  ...
        37                          0.6200592              16.8727
      -------------------------------------------------------------
                  HL-Gap            0.0744505 Eh            2.0259 eV
             Fermi-level           -0.3498004 Eh           -9.5186 eV

 SCC (total)                   0 d,  0 h,  0 min,  0.008 sec
 SCC setup                      ...        0 min,  0.001 sec (  7.955%)
 Dispersion                     ...        0 min,  0.000 sec (  0.732%)
 classical contributions        ...        0 min,  0.000 sec (  0.215%)
 integral evaluation            ...        0 min,  0.001 sec ( 12.935%)
 iterations                     ...        0 min,  0.004 sec ( 48.802%)
 molecular gradient             ...        0 min,  0.002 sec ( 27.904%)
 printout                       ...        0 min,  0.000 sec (  1.325%)

         :::::::::::::::::::::::::::::::::::::::::::::::::::::
         ::                     SUMMARY                     ::
         :::::::::::::::::::::::::::::::::::::::::::::::::::::
         :: total energy             -22.345610063440 Eh    ::
         :: total w/o Gsasa/hb       -22.343923852113 Eh    ::
         :: gradient norm              0.037775299819 Eh/a0 ::
         :: HOMO-LUMO gap              2.025902256203 eV    ::
         ::.................................................::
         :: SCC energy               -22.665392961646 Eh    ::
         :: -> isotropic ES            0.038829654404 Eh    ::
         :: -> anisotropic ES          0.000603465593 Eh    ::
         :: -> anisotropic XC          0.017172655484 Eh    ::
         :: -> dispersion             -0.009728065419 Eh    ::
         :: -> Gsolv                  -0.008812881250 Eh    ::
         ::    -> Gelec               -0.007126669923 Eh    ::
         ::    -> Gsasa               -0.001230794844 Eh    ::
         ::    -> Ghb                 -0.001536176181 Eh    ::
         ::    -> Gshift               0.001080759698 Eh    ::
         :: repulsion energy           0.319782898205 Eh    ::
         :: add. restraining           0.000000000000 Eh    ::
         :: total charge              -0.000000000000 e     ::
         :::::::::::::::::::::::::::::::::::::::::::::::::::::

      ----------------------------------------------------------- 
     |                   =====================                   |
     |                        A N C O P T                        |
     |                   =====================                   |
     |               Approximate Normal Coordinate               |
     |                Rational Function Optimizer                |
      ----------------------------------------------------------- 
      ----------------------------------------------------------- 
     |                   =====================                   |
     |                        A N C O P T                        |
     |                   =====================                   |
     |               Approximate Normal Coordinate               |
     |                Rational Function Optimizer                |
      ----------------------------------------------------------- 

          ...................................................
          :                      SETUP                      :
          :.................................................:
          :   optimization level         verytight          :
          :   max. optcycles                   260          :
          :   ANC micro-cycles                  20          :
          :   degrees of freedom                33          :
          :.................................................:
          :   RF solver                   davidson          :
          :   write xtbopt.log                true          :
          :   linear?                        false          :
          :   energy convergence         0.1000000E-06 Eh   :
          :   grad. convergence          0.2000000E-03 Eh/α :
          :   maxmium RF displ.          1.0000000          :
          :   Hlow (freq-cutoff)         0.1000000E-01      :
          :   Hmax (freq-cutoff)         5.0000000          :
          :   S6 in model hess.         20.0000000          :
          ...................................................

generating ANC from exact Hessian ...
Using Lindh-Hessian (1995)
 Shifting diagonal of input Hessian by   4.156854771791604E-003
 Lowest  eigenvalues of input Hessian
    0.000000    0.000000    0.000000    0.000000    0.000000    0.000000
    0.010000    0.014616    0.021023    0.024727    0.028452    0.044591
    0.060978    0.072490    0.085732    0.101249    0.105268    0.110472
 Highest eigenvalues
    1.500418    1.621169    1.915929    1.960147    2.040244    2.180371
 

........................................................................
.............................. CYCLE    1 ..............................
........................................................................

 iter      E             dE          RMSdq      gap      omega  full diag
   1    -22.6654032 -0.226654E+02  0.147E-04    2.03       0.0  T
   2    -22.6654032 -0.100219E-09  0.912E-05    2.03     304.0  T
   3    -22.6654032 -0.345644E-10  0.596E-05    2.03     465.7  T
     SCC iter.                  ...        0 min,  0.001 sec
     gradient                   ...        0 min,  0.002 sec
 * total energy  :   -22.3456101 Eh     change       -0.2883990E-08 Eh
   gradient norm :     0.0377847 Eh/α   predicted     0.0000000E+00 (-100.00%)
   displ. norm   :     0.0868206 α      lambda       -0.1762285E-02
   maximum displ.:     0.0451811 α      in ANC's #12, #17, #4, ...

........................................................................
.............................. CYCLE    2 ..............................
........................................................................

 iter      E             dE          RMSdq      gap      omega  full diag
   1    -22.6789182 -0.226789E+02  0.115E-01    2.03       0.0  T
   2    -22.6789358 -0.176078E-04  0.741E-02    2.03       1.0  T
   3    -22.6789341  0.170487E-05  0.327E-02    2.02       1.0  T
   4    -22.6789395 -0.540772E-05  0.821E-03    2.03       3.4  T
   5    -22.6789399 -0.347893E-06  0.271E-03    2.03      10.2  T
   6    -22.6789399 -0.492281E-08  0.127E-03    2.03      21.8  T
   7    -22.6789399 -0.537083E-08  0.454E-04    2.03      61.1  T
   8    -22.6789399 -0.429583E-09  0.190E-04    2.03     145.8  T
     SCC iter.                  ...        0 min,  0.002 sec
     gradient                   ...        0 min,  0.002 sec
 * total energy  :   -22.3467336 Eh     change       -0.1123484E-02 Eh
   gradient norm :     0.0112703 Eh/α   predicted    -0.8877832E-03 ( -20.98%)
   displ. norm   :     0.0516068 α      lambda       -0.2570742E-03
   maximum displ.:     0.0328730 α      in ANC's #4, #11, #12, ...

........................................................................
.............................. CYCLE    3 ..............................
........................................................................

 iter      E             dE          RMSdq      gap      omega  full diag
   1    -22.6825911 -0.226826E+02  0.542E-02    2.01       0.0  T
   2    -22.6825941 -0.296769E-05  0.344E-02    2.01       1.0  T
   3    -22.6825935  0.615921E-06  0.163E-02    2.01       1.7  T
   4    -22.6825950 -0.151661E-05  0.278E-03    2.01      10.0  T
   5    -22.6825950 -0.357345E-07  0.960E-04    2.01      28.9  T
   6    -22.6825950 -0.127807E-08  0.519E-04    2.01      53.5  T
     SCC iter.                  ...        0 min,  0.001 sec
     gradient                   ...        0 min,  0.003 sec
 * total energy  :   -22.3468712 Eh     change       -0.1376184E-03 Eh
   gradient norm :     0.0026634 Eh/α   predicted    -0.1288788E-03 (  -6.35%)
   displ. norm   :     0.0346575 α      lambda       -0.4715472E-04
   maximum displ.:     0.0192980 α      in ANC's #4, #1, #2, ...

........................................................................
.............................. CYCLE    4 ..............................
........................................................................

 iter      E             dE          RMSdq      gap      omega  full diag
   1    -22.6825193 -0.226825E+02  0.467E-02    2.00       0.0  T
   2    -22.6825194 -0.159523E-06  0.280E-02    2.00       1.0  T
   3    -22.6825192  0.208383E-06  0.514E-03    2.00       5.4  T
   4    -22.6825195 -0.281108E-06  0.103E-03    2.00      26.9  T
   5    -22.6825195 -0.697050E-09  0.530E-04    2.00      52.3  T
   6    -22.6825195 -0.878771E-09  0.185E-04    2.00     150.2  T
     SCC iter.                  ...        0 min,  0.001 sec
     gradient                   ...        0 min,  0.003 sec
 * total energy  :   -22.3468753 Eh     change       -0.4175211E-05 Eh
   gradient norm :     0.0031147 Eh/α   predicted    -0.2360456E-04 ( 465.35%)
   displ. norm   :     0.0176020 α      lambda       -0.3234533E-04
   maximum displ.:     0.0089046 α      in ANC's #1, #2, #6, ...

........................................................................
.............................. CYCLE    5 ..............................
........................................................................

 iter      E             dE          RMSdq      gap      omega  full diag
   1    -22.6819360 -0.226819E+02  0.284E-02    2.00       0.0  T
   2    -22.6819361 -0.751482E-07  0.172E-02    2.00       1.6  T
   3    -22.6819360  0.358588E-07  0.234E-03    2.00      11.8  T
   4    -22.6819361 -0.557900E-07  0.751E-04    2.00      36.9  T
   5    -22.6819361 -0.188225E-08  0.388E-04    2.00      71.5  T
     SCC iter.                  ...        0 min,  0.001 sec
     gradient                   ...        0 min,  0.003 sec
 * total energy  :   -22.3468925 Eh     change       -0.1718531E-04 Eh
   gradient norm :     0.0007881 Eh/α   predicted    -0.1617725E-04 (  -5.87%)
   displ. norm   :     0.0059714 α      lambda       -0.9033443E-06
   maximum displ.:     0.0054145 α      in ANC's #4, #12, #13, ...

........................................................................
.............................. CYCLE    6 ..............................
........................................................................

 iter      E             dE          RMSdq      gap      omega  full diag
   1    -22.6817650 -0.226818E+02  0.431E-03    2.00       0.0  T
   2    -22.6817651 -0.200080E-07  0.284E-03    2.00       9.8  T
   3    -22.6817651  0.421525E-08  0.118E-03    2.00      23.6  T
   4    -22.6817651 -0.854143E-08  0.262E-04    2.00     105.9  T
   5    -22.6817651 -0.420663E-09  0.755E-05    2.00     367.2  T
     SCC iter.                  ...        0 min,  0.001 sec
     gradient                   ...        0 min,  0.002 sec
 * total energy  :   -22.3468932 Eh     change       -0.6730619E-06 Eh
   gradient norm :     0.0001965 Eh/α   predicted    -0.4520495E-06 ( -32.84%)
   displ. norm   :     0.0020865 α      lambda       -0.1018180E-06
   maximum displ.:     0.0018185 α      in ANC's #4, #11, #1, ...

........................................................................
.............................. CYCLE    7 ..............................
........................................................................

 iter      E             dE          RMSdq      gap      omega  full diag
   1    -22.6818424 -0.226818E+02  0.173E-03    2.00       0.0  T
   2    -22.6818424 -0.414360E-09  0.104E-03    2.00      26.8  T
   3    -22.6818424  0.281819E-09  0.192E-04    2.00     144.7  T
   4    -22.6818424 -0.410999E-09  0.508E-05    2.00     546.5  T
     SCC iter.                  ...        0 min,  0.001 sec
     gradient                   ...        0 min,  0.002 sec
 * total energy  :   -22.3468933 Eh     change       -0.7463689E-07 Eh
   gradient norm :     0.0000656 Eh/α   predicted    -0.4996259E-07 ( -33.06%)
   displ. norm   :     0.0003383 α      lambda       -0.3656309E-08
   maximum displ.:     0.0001955 α      in ANC's #4, #7, #6, ...

   *** GEOMETRY OPTIMIZATION CONVERGED AFTER 7 ITERATIONS ***

------------------------------------------------------------------------
 total energy gain   :        -0.0012832 Eh       -0.8052 kcal/mol
 total RMSD          :         0.0436913 a0        0.0231 Å
 total power (kW/mol):        -0.4812969 (step)  -76.8140 (real)
------------------------------------------------------------------------

 ANCopt (total)                0 d,  0 h,  0 min,  0.044 sec
 optimizer setup                ...        0 min,  0.000 sec (  0.670%)
 model hessian                  ...        0 min,  0.001 sec (  2.186%)
 ANC generation                 ...        0 min,  0.000 sec (  0.372%)
 coordinate transformation      ...        0 min,  0.000 sec (  0.061%)
 single point calculation       ...        0 min,  0.037 sec ( 83.852%)
 optimization log               ...        0 min,  0.005 sec ( 10.898%)
 hessian update                 ...        0 min,  0.000 sec (  0.060%)
 rational function              ...        0 min,  0.001 sec (  1.265%)

================
 final structure:
================
$coord
        2.52330105505206        2.51069565756804        0.00014521280963      C
       -0.05408062736664        2.09225210806486        0.00016164957522      C
       -0.93697411230219       -0.39909017247928        0.00001848244579      C
        0.84915086642202       -2.34635374921611       -0.00011837936257      C
        3.30853686615134       -1.94535329152815       -0.00008588859238      N
        4.12076881909597        0.42561662712869        0.00003795821308      C
       -3.64181683713294       -0.95368726311098       -0.00003774602672      C
       -5.30806114076787        0.61810181944550       -0.00005079646111      O
        3.28528123109639        4.39885265609217        0.00019355474192      H
       -1.40474478985403        3.62248504662312        0.00021987423111      H
        0.26195381339043       -4.30468311867749       -0.00011360086254      H
        6.15110448126659        0.64980975585159        0.00000356664759      H
       -4.10356034378001       -2.98895561680257        0.00020920458342      H
$end
 
 Bond Distances (Angstroems)
 ---------------------------
C1-C2=1.3817         C1-C6=1.3900         C1-H9=1.0775         C2-C1=1.3817         C2-C3=1.3987         C2-H10=1.0801        
C3-C2=1.3987         C3-C4=1.3983         C3-C7=1.4611         C4-C3=1.3983         C4-N5=1.3186         C4-H11=1.0819        
N5-C4=1.3186         N5-C6=1.3262         C6-C1=1.3900         C6-N5=1.3262         C6-H12=1.0809        C7-C3=1.4611         
C7-O8=1.2121         C7-H13=1.1044        O8-C7=1.2121         H9-C1=1.0775         H10-C2=1.0801        H11-C4=1.0819        
H12-C6=1.0809        H13-C7=1.1044        
 C  H  Rav=1.0850 sigma=0.0098  Rmin=1.0775  Rmax=1.1044     5
 C  C  Rav=1.4060 sigma=0.0283  Rmin=1.3817  Rmax=1.4611     5
 N  C  Rav=1.3224 sigma=0.0038  Rmin=1.3186  Rmax=1.3262     2
 O  C  Rav=1.2121 sigma=0.0000  Rmin=1.2121  Rmax=1.2121     1
 
 selected bond angles (degree)
 --------------------
C6-C1-C2=118.24                H9-C1-C2=121.20                H9-C1-C6=120.57                C3-C2-C1=118.74                
H10-C2-C1=122.21               H10-C2-C3=119.05               C4-C3-C2=117.96                C7-C3-C2=121.10                
C7-C3-C4=120.94                N5-C4-C3=123.27                H11-C4-C3=120.78               H11-C4-N5=115.95               
C6-N5-C4=118.17                N5-C6-C1=123.63                H12-C6-C1=121.16               H12-C6-N5=115.21               
O8-C7-C3=125.08                H13-C7-C3=114.37               H13-C7-O8=120.55               
 
 selected dihedral angles (degree)
 ---------------------------------
C3-C2-C1-C6=  0.00            C3-C2-C1-H9=180.00            H10-C2-C1-C6=180.00           H10-C2-C1-H9=  0.00           
C4-C3-C2-C1=  0.00            C4-C3-C2-H10=180.00           C7-C3-C2-C1=180.00            C7-C3-C2-H10=  0.00           
N5-C4-C3-C2=  0.00            N5-C4-C3-C7=180.00            H11-C4-C3-C2=180.00           H11-C4-C3-C7=  0.00           
C6-N5-C4-C3=  0.00            C6-N5-C4-H11=180.00           N5-C6-C1-C2=  0.00            N5-C6-C1-H9=180.00            
H12-C6-C1-C2=180.00           H12-C6-C1-H9=  0.00           C1-C6-N5-C4=  0.00            H12-C6-N5-C4=180.00           
O8-C7-C3-C2=  0.00            O8-C7-C3-C4=180.00            H13-C7-C3-C2=180.01           H13-C7-C3-C4=  0.00           
           -------------------------------------------------
          |                Final Singlepoint                |
           -------------------------------------------------

          ...................................................
          :                      SETUP                      :
          :.................................................:
          :  # basis functions                  37          :
          :  # atomic orbitals                  37          :
          :  # shells                           21          :
          :  # electrons                        40          :
          :  max. iterations                   250          :
          :  Hamiltonian                  GFN2-xTB          :
          :  restarted?                      false          :
          :  GBSA solvation                   true          :
          :  PC potential                    false          :
          :  electronic temp.          300.0000000     K    :
          :  accuracy                    1.0000000          :
          :  -> integral cutoff          0.2500000E+02      :
          :  -> integral neglect         0.1000000E-07      :
          :  -> SCF convergence          0.1000000E-05 Eh   :
          :  -> wf. convergence          0.1000000E-03 e    :
          :  Broyden damping             0.4000000          :
          :  net charge                          0          :
          :  unpaired electrons                  0          :
          ...................................................

 iter      E             dE          RMSdq      gap      omega  full diag
   1    -22.6818424 -0.226818E+02  0.254E-05    2.00       0.0  T
   2    -22.6818424 -0.305533E-12  0.160E-05    2.00    1735.3  T
   3    -22.6818424  0.110134E-12  0.615E-06    2.00    4510.2  T

   *** convergence criteria satisfied after 3 iterations ***

         #    Occupation            Energy/Eh            Energy/eV
      -------------------------------------------------------------
         1        2.0000           -0.7319520             -19.9174
       ...           ...                  ...                  ...
        14        2.0000           -0.5056880             -13.7605
        15        2.0000           -0.4829546             -13.1419
        16        2.0000           -0.4622440             -12.5783
        17        2.0000           -0.4548036             -12.3758
        18        2.0000           -0.4375724             -11.9070
        19        2.0000           -0.4190822             -11.4038
        20        2.0000           -0.3842399             -10.4557 (HOMO)
        21                         -0.3107555              -8.4561 (LUMO)
        22                         -0.2636448              -7.1741
        23                         -0.2212469              -6.0204
        24                         -0.1161398              -3.1603
        25                          0.0823134               2.2399
       ...                                ...                  ...
        37                          0.6432843              17.5047
      -------------------------------------------------------------
                  HL-Gap            0.0734844 Eh            1.9996 eV
             Fermi-level           -0.3474977 Eh           -9.4559 eV

 SCC (total)                   0 d,  0 h,  0 min,  0.005 sec
 SCC setup                      ...        0 min,  0.001 sec ( 11.455%)
 Dispersion                     ...        0 min,  0.000 sec (  0.657%)
 classical contributions        ...        0 min,  0.000 sec (  0.177%)
 integral evaluation            ...        0 min,  0.001 sec ( 20.112%)
 iterations                     ...        0 min,  0.001 sec ( 15.869%)
 molecular gradient             ...        0 min,  0.002 sec ( 49.578%)
 printout                       ...        0 min,  0.000 sec (  1.923%)

         :::::::::::::::::::::::::::::::::::::::::::::::::::::
         ::                     SUMMARY                     ::
         :::::::::::::::::::::::::::::::::::::::::::::::::::::
         :: total energy             -22.346893277472 Eh    ::
         :: total w/o Gsasa/hb       -22.345316394845 Eh    ::
         :: gradient norm              0.000065638040 Eh/a0 ::
         :: HOMO-LUMO gap              1.999610945831 eV    ::
         ::.................................................::
         :: SCC energy               -22.681832306684 Eh    ::
         :: -> isotropic ES            0.037738603896 Eh    ::
         :: -> anisotropic ES          0.000418206029 Eh    ::
         :: -> anisotropic XC          0.016618862716 Eh    ::
         :: -> dispersion             -0.009759079987 Eh    ::
         :: -> Gsolv                  -0.008318835125 Eh    ::
         ::    -> Gelec               -0.006741952498 Eh    ::
         ::    -> Gsasa               -0.001171942573 Eh    ::
         ::    -> Ghb                 -0.001485699752 Eh    ::
         ::    -> Gshift               0.001080759698 Eh    ::
         :: repulsion energy           0.334939029212 Eh    ::
         :: add. restraining           0.000000000000 Eh    ::
         :: total charge              -0.000000000000 e     ::
         :::::::::::::::::::::::::::::::::::::::::::::::::::::

           ------------------------------------------------- 
          |                Numerical Hessian                |
           ------------------------------------------------- 
step length          :   0.00500
SCC accuracy         :   0.30000
Hessian scale factor :   1.00000
frozen atoms in %    :   0.00000    0
RMS gradient         :   0.00007
estimated CPU  time      0.01 min
estimated wall time      0.01 min

writing file <hessian>.

 projected vibrational frequencies (cm⁻¹)
eigval :       -0.00    -0.00    -0.00    -0.00     0.00     0.00
eigval :       96.87   190.52   201.43   329.98   415.87   435.63
eigval :      596.33   636.63   675.26   767.72   839.53   891.65
eigval :      917.00   927.81   934.36  1004.62  1082.62  1123.83
eigval :     1187.14  1220.02  1250.95  1285.51  1353.19  1406.45
eigval :     1431.56  1550.59  1563.56  1690.67  2794.75  3060.93
eigval :     3075.19  3087.18  3112.24
           -------------------------------------------------
          |                Property Printout                |
           -------------------------------------------------

    * Orbital Energies and Occupations

         #    Occupation            Energy/Eh            Energy/eV
      -------------------------------------------------------------
         1        2.0000           -0.7319520             -19.9174
       ...           ...                  ...                  ...
         8        2.0000           -0.5712559             -15.5447
         9        2.0000           -0.5537779             -15.0691
        10        2.0000           -0.5505372             -14.9809
        11        2.0000           -0.5329818             -14.5032
        12        2.0000           -0.5214112             -14.1883
        13        2.0000           -0.5197159             -14.1422
        14        2.0000           -0.5056880             -13.7605
        15        2.0000           -0.4829547             -13.1419
        16        2.0000           -0.4622440             -12.5783
        17        2.0000           -0.4548036             -12.3758
        18        2.0000           -0.4375724             -11.9070
        19        2.0000           -0.4190822             -11.4038
        20        2.0000           -0.3842399             -10.4557 (HOMO)
        21                         -0.3107556              -8.4561 (LUMO)
        22                         -0.2636448              -7.1741
        23                         -0.2212469              -6.0204
        24                         -0.1161398              -3.1603
        25                          0.0823134               2.2399
        26                          0.1135879               3.0909
        27                          0.1444755               3.9314
        28                          0.1607277               4.3736
        29                          0.1641587               4.4670
        30                          0.1899308               5.1683
        31                          0.2846435               7.7455
       ...                                ...                  ...
        37                          0.6432842              17.5047
      -------------------------------------------------------------
                  HL-Gap            0.0734843 Eh            1.9996 eV
             Fermi-level           -0.3474977 Eh           -9.4559 eV

     #   Z          covCN         q      C6AA      α(0)
     1   6 C        2.912    -0.037    28.925     8.819
     2   6 C        2.930     0.002    27.988     8.676
     3   6 C        2.965    -0.018    28.459     8.750
     4   6 C        2.913     0.062    26.610     8.459
     5   7 N        1.834    -0.222    26.679     7.654
     6   6 C        2.913     0.064    26.559     8.451
     7   6 C        2.766     0.214    23.474     7.935
     8   8 O        0.856    -0.393    21.547     6.223
     9   1 H        0.926     0.076     2.020     2.223
    10   1 H        0.926     0.074     2.042     2.235
    11   1 H        0.925     0.067     2.123     2.278
    12   1 H        0.926     0.075     2.032     2.229
    13   1 H        0.923     0.037     2.494     2.470

 Mol. C6AA /au·bohr⁶  :       2322.785914
 Mol. C8AA /au·bohr⁸  :      56518.193160
 Mol. α(0) /au        :         76.402444


Wiberg/Mayer (AO) data.
largest (>0.10) Wiberg bond orders for each atom

 ---------------------------------------------------------------------------
     #   Z sym  total        # sym  WBO       # sym  WBO       # sym  WBO
 ---------------------------------------------------------------------------
     1   6 C    3.988 --     2 C    1.465     6 C    1.413     9 H    0.965
                             4 C    0.107
     2   6 C    3.982 --     1 C    1.465     3 C    1.364    10 H    0.964
     3   6 C    3.989 --     2 C    1.364     4 C    1.355     7 C    1.072
     4   6 C    3.975 --     5 N    1.464     3 C    1.355    11 H    0.958
                             1 C    0.107
     5   7 N    3.064 --     4 C    1.464     6 C    1.423
     6   6 C    3.972 --     5 N    1.423     1 C    1.413    12 H    0.961
     7   6 C    3.909 --     8 O    1.833     3 C    1.072    13 H    0.933
     8   8 O    2.042 --     7 C    1.833
     9   1 H    0.994 --     1 C    0.965
    10   1 H    0.995 --     2 C    0.964
    11   1 H    0.996 --     4 C    0.958
    12   1 H    0.994 --     6 C    0.961
    13   1 H    0.998 --     7 C    0.933
 ---------------------------------------------------------------------------

Topologies differ in total number of bonds
Writing topology from bond orders to xtbtopo.mol

molecular dipole:
                 x           y           z       tot (Debye)
 q only:        1.289       0.038       0.000
   full:        1.064       0.166       0.000       2.738
molecular quadrupole (traceless):
                xx          xy          yy          xz          yz          zz
 q only:       -7.043       6.905       6.044      -0.000       0.000       0.998
  q+dip:       -8.026      10.062       8.293      -0.000       0.000      -0.267
   full:       -9.660      10.235       6.277       0.000       0.000       3.384

           -------------------------------------------------
          |                Geometry Summary                 |
           -------------------------------------------------

      molecular mass/u    :      107.1102273
   center of mass at/Å    :       -0.0000293      -0.0000139       0.0000049
  moments of inertia/u·Å² :        0.9223633E+02   0.3167463E+03   0.4089827E+03
rotational constants/cm⁻¹ :        0.1827656E+00   0.5322124E-01   0.4121845E-01

 * 11 selected distances

     #   Z          #   Z                                           value/Å
     1   6 C        2   6 C                                       1.3817498
     2   6 C        3   6 C                                       1.3986994 (max)
     3   6 C        4   6 C                                       1.3982780
     4   6 C        5   7 N                                       1.3186372
     1   6 C        6   6 C                                       1.3899803
     5   7 N        6   6 C                                       1.3262431
     7   6 C        8   8 O                                       1.2121384
     1   6 C        9   1 H                                       1.0774640 (min)
     2   6 C       10   1 H                                       1.0800800
     4   6 C       11   1 H                                       1.0818866
     6   6 C       12   1 H                                       1.0809377

 * 4 distinct bonds (by element types)

   Z      Z             #   av. dist./Å        max./Å        min./Å
   1 H    6 C           4     1.0800921     1.0818866     1.0774640
   6 C    6 C           4     1.3921769     1.3986994     1.3817498
   6 C    7 N           2     1.3224402     1.3262431     1.3186372
   6 C    8 O           1     1.2121384     1.2121384     1.2121384

           -------------------------------------------------
          |               Frequency Printout                |
           -------------------------------------------------
 projected vibrational frequencies (cm⁻¹)
eigval :       -0.00    -0.00    -0.00    -0.00     0.00     0.00
eigval :       96.87   190.52   201.43   329.98   415.87   435.63
eigval :      596.33   636.63   675.26   767.72   839.53   891.65
eigval :      917.00   927.81   934.36  1004.62  1082.62  1123.83
eigval :     1187.14  1220.02  1250.95  1285.51  1353.19  1406.45
eigval :     1431.56  1550.59  1563.56  1690.67  2794.75  3060.93
eigval :     3075.19  3087.18  3112.24
 reduced masses (amu)
   1: 12.15   2: 11.69   3: 12.15   4: 12.31   5: 12.92   6: 11.99   7: 12.13   8:  8.11
   9: 12.67  10:  8.84  11: 10.11  12: 12.74  13: 12.06  14: 11.90  15:  9.02  16:  4.43
  17: 11.16  18:  3.86  19:  4.81  20:  4.91  21:  4.95  22: 10.41  23:  6.76  24:  3.12
  25:  2.98  26:  8.35  27:  3.93  28: 12.02  29:  4.89  30:  8.95  31:  9.15  32: 11.77
  33: 11.63  34: 13.46  35:  1.69  36:  1.81  37:  1.80  38:  1.82  39:  1.88
 IR intensities (km·mol⁻¹)
   1:  0.11   2:  0.43   3:  0.14   4:  0.03   5:  0.58   6:  0.56   7: 17.03   8:  5.24
   9: 17.33  10:  2.89  11:  0.02  12:  0.64  13:  5.44  14: 26.66  15: 19.87  16: 10.98
  17: 61.46  18:  0.09  19:  0.79  20:  0.00  21:  0.01  22: 17.22  23:  6.08  24:  2.37
  25: 15.28  26: 72.95  27: 27.04  28: 19.72  29: 57.46  30:  5.25  31: 49.03  32: 87.45
  33:268.73  34:624.64  35:185.24  36: 29.45  37: 19.24  38: 10.50  39: 24.16
 Raman intensities (Ä⁴*amu⁻¹)
   1:  0.00   2:  0.00   3:  0.00   4:  0.00   5:  0.00   6:  0.00   7:  0.00   8:  0.00
   9:  0.00  10:  0.00  11:  0.00  12:  0.00  13:  0.00  14:  0.00  15:  0.00  16:  0.00
  17:  0.00  18:  0.00  19:  0.00  20:  0.00  21:  0.00  22:  0.00  23:  0.00  24:  0.00
  25:  0.00  26:  0.00  27:  0.00  28:  0.00  29:  0.00  30:  0.00  31:  0.00  32:  0.00
  33:  0.00  34:  0.00  35:  0.00  36:  0.00  37:  0.00  38:  0.00  39:  0.00
 output can be read by thermo (or use thermo option).
 writing <g98.out> molden fake output.
 recommended (thermochemical) frequency scaling factor: 1.0
           -------------------------------------------------
          |             Thermodynamic Functions             |
           -------------------------------------------------

Molecule has the following symmetry elements: (sigma) 
It seems to be the Cs point group
cs  symmetry found (for desy threshold:  0.10E+00) used in thermo

          ...................................................
          :                      SETUP                      :
          :.................................................:
          :  # frequencies                          33      :
          :  # imaginary freq.                       0      :
          :  linear?                             false      :
          :  only rotor calc.                    false      :
          :  symmetry                               cs      :
          :  rotational number                       1      :
          :  scaling factor                  1.0000000      :
          :  rotor cutoff                    0.0000000 cm⁻¹ :
          :  imag. cutoff                 -100.0000000 cm⁻¹ :
          :.................................................:

    mode    ω/cm⁻¹     T·S(HO)/kcal·mol⁻¹    T·S(FR)/kcal·mol⁻¹   T·S(vib)
   ------------------------------------------------------------------------
       1     96.87    -1.04837 (100.00%)    -0.86043 (  0.00%)    -1.04837
       2    190.52    -0.66270 (100.00%)    -0.66015 (  0.00%)    -0.66270
       3    201.43    -0.63209 (100.00%)    -0.64368 (  0.00%)    -0.63209
   ------------------------------------------------------------------------

   temp. (K)  partition function   enthalpy   heat capacity  entropy
                                   cal/mol     cal/K/mol   cal/K/mol   J/K/mol
 298.15  VIB   15.5                 2378.664     18.305     13.422
         ROT  0.264E+06              888.752      2.981     27.790
         INT  0.409E+07             3267.416     21.286     41.212
         TR   0.107E+28             1481.254      4.968     39.905
         TOT                        4748.6702    26.2541    81.1166   339.3918

       T/K    H(0)-H(T)+PV         H(T)/Eh          T*S/Eh         G(T)/Eh
   ------------------------------------------------------------------------
    298.15    0.756749E-02    0.101286E+00    0.385411E-01    0.627447E-01
   ------------------------------------------------------------------------

         :::::::::::::::::::::::::::::::::::::::::::::::::::::
         ::                  THERMODYNAMIC                  ::
         :::::::::::::::::::::::::::::::::::::::::::::::::::::
         :: total free energy         -22.284148608702 Eh   ::
         ::.................................................::
         :: total energy              -22.346893277418 Eh   ::
         :: zero point energy           0.093718287155 Eh   ::
         :: G(RRHO) w/o ZPVE           -0.030973618438 Eh   ::
         :: G(RRHO) contrib.            0.062744668716 Eh   ::
         :::::::::::::::::::::::::::::::::::::::::::::::::::::

optimized geometry written to: xtbopt.coord


           -------------------------------------------------
          | TOTAL ENERGY              -22.346893277418 Eh   |
          | TOTAL ENTHALPY            -22.245607502573 Eh   |
          | TOTAL FREE ENERGY         -22.284148608702 Eh   |
          | GRADIENT NORM               0.000065642822 Eh/α |
          | HOMO-LUMO GAP               1.999610639738 eV   |
           -------------------------------------------------

------------------------------------------------------------------------
 * finished run on 2025/04/04 at 16:18:26.049     
------------------------------------------------------------------------
 total:
 * wall-time:     0 d,  0 h,  0 min,  0.518 sec
 *  cpu-time:     0 d,  0 h,  0 min,  0.449 sec
 * ratio c/w:     0.866 speedup
 SCF:
 * wall-time:     0 d,  0 h,  0 min,  0.009 sec
 *  cpu-time:     0 d,  0 h,  0 min,  0.008 sec
 * ratio c/w:     0.989 speedup
 ANC optimizer:
 * wall-time:     0 d,  0 h,  0 min,  0.058 sec
 *  cpu-time:     0 d,  0 h,  0 min,  0.045 sec
 * ratio c/w:     0.768 speedup
 analytical hessian:
 * wall-time:     0 d,  0 h,  0 min,  0.396 sec
 *  cpu-time:     0 d,  0 h,  0 min,  0.387 sec
 * ratio c/w:     0.976 speedup

