13
 energy: -22.345610066324 gnorm: 0.037784658670 xtb: 6.7.1 (edcfbbe)
C            1.33802068243125        1.32928636052668        0.00001252106022
C           -0.02895442446370        1.11909869359888        0.00000448859401
C           -0.49419791754847       -0.19986303776714        0.00014960405866
C            0.43736283421837       -1.24022731456773        0.00006732491323
N            1.76097211202074       -1.05035155078226       -0.00003610371584
C            2.18581427628890        0.22263372985503       -0.00002700239828
C           -1.92322918696947       -0.52582023005321        0.00066500475281
O           -2.81849334995539        0.30939111183552       -0.00008893833631
H            1.75495237944035        2.33001513550958        0.00005844221768
H           -0.73121608968928        1.94640672919197        0.00012502244658
H            0.09001988377480       -2.27206236822615        0.00003287845052
H            3.26332503324747        0.36829833911174       -0.00006866001426
H           -2.16157660566147       -1.60670484924924       -0.00058602306123
13
 energy: -22.346733550802 gnorm: 0.011270340233 xtb: 6.7.1 (edcfbbe)
C            1.33481586478888        1.32627773100784        0.00014113312388
C           -0.03051624356585        1.11502139546611        0.00013670444506
C           -0.49487672728229       -0.20301705171253       -0.00020168416986
C            0.44486606865430       -1.23663205676842       -0.00020009334183
N            1.75390388614869       -1.03830076286143       -0.00005725166368
C            2.17903750176446        0.22147601650946        0.00008496835697
C           -1.92332204036494       -0.51511718945142       -0.00101925366993
O           -2.81257518163123        0.31239829260481        0.00012278727453
H            1.74839960816745        2.32287995698919        0.00018191390012
H           -0.73615837631111        1.93391079568223        0.00006843652584
H            0.11726078533833       -2.26917191907913       -0.00030518329725
H            3.25335717306021        0.35251833858411        0.00018580253346
H           -2.16139269163279       -1.59214279798716        0.00117027895049
13
 energy: -22.346871169251 gnorm: 0.002663423317 xtb: 6.7.1 (edcfbbe)
C            1.33481819318502        1.32701366282952       -0.00015168532621
C           -0.03003055094265        1.11103137626937       -0.00000838203486
C           -0.49586828761209       -0.20725315081389        0.00077612618800
C            0.44843402331600       -1.23810615594157        0.00053224158290
N            1.75056682133501       -1.03141156247885        0.00000358286432
C            2.17876235399616        0.22286980864338       -0.00024870913663
C           -1.92588880597180       -0.50799781872222        0.00295346457840
O           -2.81166645496835        0.31885588501552       -0.00049343753669
H            1.74376306985798        2.32362711390744       -0.00018361812712
H           -0.74024428922160        1.92409169847964        0.00033608886173
H            0.13240091504869       -2.27271384543867        0.00070004143677
H            3.25268164080442        0.34511623339991       -0.00064061614730
H           -2.16492900169267       -1.58502249616593       -0.00326653823551
13
 energy: -22.346875344462 gnorm: 0.003114716999 xtb: 6.7.1 (edcfbbe)
C            1.33525041294274        1.32807726219052        0.00047552020720
C           -0.02918154453640        1.10859850937113        0.00028062332167
C           -0.49618045827307       -0.20981186093177       -0.00126007155455
C            0.44929631880952       -1.24018488966379       -0.00098065515738
N            1.74996269292180       -1.02927712203363       -0.00014931501831
C            2.17989983899086        0.22431121679424        0.00041771367342
C           -1.92722812259284       -0.50516643647513       -0.00536957144332
O           -2.81098675755750        0.32359324474462        0.00055010915280
H            1.74091233395692        2.32590692229414        0.00066334782200
H           -0.74222044563085        1.91921282873497       -0.00014869233136
H            0.13746243544453       -2.27600702128441       -0.00144772807046
H            3.25407048091632        0.34346229818551        0.00102807646804
H           -2.16825755825790       -1.58261420294274        0.00624920189806
13
 energy: -22.346892529767 gnorm: 0.000788087867 xtb: 6.7.1 (edcfbbe)
C            1.33541377367634        1.32850280743638        0.00007959434097
C           -0.02878278879576        1.10785549858085        0.00009473288674
C           -0.49610636617710       -0.21053828029224        0.00000824843644
C            0.44915620421029       -1.24111848558718       -0.00005652185446
N            1.75031039443060       -1.02937490527502       -0.00004574410972
C            2.18052486727909        0.22488759285289        0.00000985656960
C           -1.92739180970689       -0.50487543068652       -0.00006280395023
O           -2.81038892499462        0.32529868564299       -0.00004241197965
H            1.73988722461075        2.32709043061493        0.00011181404022
H           -0.74266973126868        1.91811486853673        0.00012530177772
H            0.13766461198038       -2.27722921629188       -0.00006437377585
H            3.25488132665938        0.34387409531490       -0.00000460777033
H           -2.16969915476966       -1.58238691186315        0.00015547435635
13
 energy: -22.346893202829 gnorm: 0.000196467839 xtb: 6.7.1 (edcfbbe)
C            1.33533567211475        1.32863242441197        0.00004931671540
C           -0.02857705964122        1.10729412435614        0.00006687370647
C           -0.49588878469552       -0.21102718876156        0.00007752739272
C            0.44920947273144       -1.24160178637875        0.00002616136929
N            1.75070026320296       -1.02950197873698       -0.00003856829196
C            2.18067671006381        0.22519687308429       -0.00001737178319
C           -1.92720463989631       -0.50474672901504        0.00017465970559
O           -2.80925712939485        0.32669756114521       -0.00009505892500
H            1.73878230052440        2.32775747948479        0.00009798871366
H           -0.74313760423099        1.91724286094036        0.00014626045127
H            0.13814965111040       -2.27784687532538       -0.00005159814203
H            3.25508501891269        0.34398139931314       -0.00004491286749
H           -2.17107424366744       -1.58197741553452       -0.00008271907693
13
 energy: -22.346893277466 gnorm: 0.000065611392 xtb: 6.7.1 (edcfbbe)
C            1.33527341458481        1.32860292550188        0.00007684330959
C           -0.02861823555384        1.10717213505481        0.00008554127136
C           -0.49582534743779       -0.21118942437198        0.00000978048911
C            0.44935128713034       -1.24163693280548       -0.00006264366091
N            1.75080231100465       -1.02943662903474       -0.00004545028576
C            2.18061695047140        0.22522661965854        0.00002008662133
C           -1.92716647649903       -0.50466956596821       -0.00001997433714
O           -2.80890498978206        0.32708539686916       -0.00002688032961
H            1.73849595890847        2.32777257973067        0.00010242475849
H           -0.74335892992757        1.91693653351525        0.00011635243237
H            0.13861998835575       -2.27794020656941       -0.00006011498760
H            3.25502431337878        0.34386451422008        0.00000188738862
H           -2.17151061749979       -1.58168719681690        0.00011070629796
