      -----------------------------------------------------------      
     |                   =====================                   |     
     |                           x T B                           |     
     |                   =====================                   |     
     |                         S. Grimme                         |     
     |          Mulliken Center for Theoretical Chemistry        |     
     |                    University of Bonn                     |     
      -----------------------------------------------------------      

   * xtb version 6.7.1 (edcfbbe) compiled by 'albert@albert-system' on 2024-07-22

   xtb is free software: you can redistribute it and/or modify it under
   the terms of the GNU Lesser General Public License as published by
   the Free Software Foundation, either version 3 of the License, or
   (at your option) any later version.
   
   xtb is distributed in the hope that it will be useful,
   but WITHOUT ANY WARRANTY; without even the implied warranty of
   MERCHANTABILITY or FITNESS FOR A PARTICULAR PURPOSE.  See the
   GNU Lesser General Public License for more details.
   
   Cite this work as:
   * C. Bannwarth, E. Caldeweyher, S. Ehlert, A. Hansen, P. Pracht,
     J. Seibert, S. Spicher, S. Grimme, WIREs Comput. Mol. Sci., 2020, 11,
     e01493. DOI: 10.1002/wcms.1493
   
   for GFN2-xTB:
   * C. Bannwarth, S. Ehlert and S. Grimme., J. Chem. Theory Comput., 2019,
     15, 1652-1671. DOI: 10.1021/acs.jctc.8b01176
   for GFN1-xTB:
   * S. Grimme, C. Bannwarth, P. Shushkov, J. Chem. Theory Comput., 2017,
     13, 1989-2009. DOI: 10.1021/acs.jctc.7b00118
   for GFN0-xTB:
   * P. Pracht, E. Caldeweyher, S. Ehlert, S. Grimme, ChemRxiv, 2019, preprint.
     DOI: 10.26434/chemrxiv.8326202.v1
   for GFN-FF:
   * S. Spicher and S. Grimme, Angew. Chem. Int. Ed., 2020, 59, 15665-15673.
     DOI: 10.1002/anie.202004239
   
   for ALPB and GBSA implicit solvation:
   * S. Ehlert, M. Stahn, S. Spicher, S. Grimme, J. Chem. Theory Comput.,
     2021, 17, 4250-4261. DOI: 10.1021/acs.jctc.1c00471
   
   for ddCOSMO and CPCM-X implicit solvation:
   * M. Stahn, S. Ehlert, S. Grimme, J. Phys. Chem. A,
     2023, XX, XXXX-XXXX. DOI: 10.1021/acs.jpca.3c04382
   
   for DFT-D4:
   * E. Caldeweyher, C. Bannwarth and S. Grimme, J. Chem. Phys., 2017,
     147, 034112. DOI: 10.1063/1.4993215
   * E. Caldeweyher, S. Ehlert, A. Hansen, H. Neugebauer, S. Spicher,
     C. Bannwarth and S. Grimme, J. Chem. Phys., 2019, 150, 154122.
     DOI: 10.1063/1.5090222
   * E. Caldeweyher, J.-M. Mewes, S. Ehlert and S. Grimme, Phys. Chem. Chem. Phys.
     2020, 22, 8499-8512. DOI: 10.1039/D0CP00502A
   
   for sTDA-xTB:
   * S. Grimme and C. Bannwarth, J. Chem. Phys., 2016, 145, 054103.
     DOI: 10.1063/1.4959605
   
   in the mass-spec context:
   * V. Asgeirsson, C. Bauer and S. Grimme, Chem. Sci., 2017, 8, 4879.
     DOI: 10.1039/c7sc00601b
   * J. Koopman and S. Grimme, ACS Omega 2019, 4, 12, 15120-15133.
     DOI: 10.1021/acsomega.9b02011
   
   for metadynamics refer to:
   * S. Grimme, J. Chem. Theory Comput., 2019, 155, 2847-2862
     DOI: 10.1021/acs.jctc.9b00143
   
   for SPH calculations refer to:
   * S. Spicher and S. Grimme, J. Chem. Theory Comput., 2021, 17, 1701-1714
     DOI: 10.1021/acs.jctc.0c01306
   
   for ONIOM refer to:
   * C. Plett, A. Katbashev, S. Ehlert, S. Grimme, M. Bursch,
     Phys. Chem. Chem. Phys., 2023, 25, 17860-17868. DOI: 10.1039/D3CP02178E
   
   for DIPRO refer to:
   * J. Kohn, N. Gildemeister, S. Grimme, D. Fazzi, A. Hansen,
     J. Chem. Phys., 2023, just accepted.
   
   for PTB refer to:
   * S. Grimme, M. Mueller, A. Hansen, J. Chem. Phys., 2023, 158, 124111.
     DOI: 10.1063/5.0137838
   
   with help from (in alphabetical order)
   P. Atkinson, C. Bannwarth, F. Bohle, G. Brandenburg, E. Caldeweyher
   M. Checinski, S. Dohm, S. Ehlert, S. Ehrlich, I. Gerasimov, C. Hölzer
   A. Katbashev, J. Kohn, J. Koopman, C. Lavigne, S. Lehtola, F. März, M. Müller,
   F. Musil, H. Neugebauer, J. Pisarek, C. Plett, P. Pracht, F. Pultar,
   J. Seibert, P. Shushkov, S. Spicher, M. Stahn, M. Steiner, T. Strunk,
   J. Stückrath, T. Rose, and J. Unsleber
   
 * started run on 2025/04/05 at 08:55:19.698     
   ID    Z sym.   atoms
    1    6 C      1-7, 9
    2    8 O      8, 10
    3    1 H      11-20

           -------------------------------------------------
          |                Calculation Setup                |
           -------------------------------------------------

          program call               : /srv/scratch/z5358697/.xtb/bin/xtb gas.coord --gfn2 --sp --chrg 0 --norestart --parallel 1
          hostname                   : k151
          coordinate file            : gas.coord
          omp threads                :                     1


           -------------------------------------------------
          |                 G F N 2 - x T B                 |
           -------------------------------------------------

        Reference                      10.1021/acs.jctc.8b01176
      * Hamiltonian:
        H0-scaling (s, p, d)           1.850000    2.230000    2.230000
        zeta-weighting                 0.500000
      * Dispersion:
        s8                             2.700000
        a1                             0.520000
        a2                             5.000000
        s9                             5.000000
      * Repulsion:
        kExp                           1.500000    1.000000
        rExp                           1.000000
      * Coulomb:
        alpha                          2.000000
        third order                    shell-resolved
        anisotropic                    true
        a3                             3.000000
        a5                             4.000000
        cn-shift                       1.200000
        cn-exp                         4.000000
        max-rad                        5.000000


          ...................................................
          :                      SETUP                      :
          :.................................................:
          :  # basis functions                  50          :
          :  # atomic orbitals                  50          :
          :  # shells                           30          :
          :  # electrons                        54          :
          :  max. iterations                   250          :
          :  Hamiltonian                  GFN2-xTB          :
          :  restarted?                      false          :
          :  GBSA solvation                  false          :
          :  PC potential                    false          :
          :  electronic temp.          300.0000000     K    :
          :  accuracy                    1.0000000          :
          :  -> integral cutoff          0.2500000E+02      :
          :  -> integral neglect         0.1000000E-07      :
          :  -> SCF convergence          0.1000000E-05 Eh   :
          :  -> wf. convergence          0.1000000E-03 e    :
          :  Broyden damping             0.4000000          :
          :  net charge                          0          :
          :  unpaired electrons                  0          :
          ...................................................

 iter      E             dE          RMSdq      gap      omega  full diag
   1    -30.7472070 -0.307472E+02  0.428E+00    3.95       0.0  T
   2    -30.7733217 -0.261147E-01  0.248E+00    4.11       1.0  T
   3    -30.7707879  0.253383E-02  0.814E-01    3.94       1.0  T
   4    -30.7751545 -0.436654E-02  0.301E-01    4.14       1.0  T
   5    -30.7760744 -0.919958E-03  0.910E-02    4.10       1.0  T
   6    -30.7760842 -0.976399E-05  0.452E-02    4.08       1.0  T
   7    -30.7760991 -0.148800E-04  0.154E-02    4.09       1.4  T
   8    -30.7760998 -0.698709E-06  0.441E-03    4.09       5.1  T
   9    -30.7760998 -0.479958E-07  0.227E-03    4.09       9.8  T
  10    -30.7760999 -0.464388E-07  0.963E-04    4.09      23.2  T
  11    -30.7760999 -0.323441E-08  0.266E-04    4.09      84.0  T

   *** convergence criteria satisfied after 11 iterations ***

         #    Occupation            Energy/Eh            Energy/eV
      -------------------------------------------------------------
         1        2.0000           -0.7197000             -19.5840
       ...           ...                  ...                  ...
        21        2.0000           -0.4665960             -12.6967
        22        2.0000           -0.4520060             -12.2997
        23        2.0000           -0.4355354             -11.8515
        24        2.0000           -0.4349494             -11.8356
        25        2.0000           -0.4216872             -11.4747
        26        2.0000           -0.3891428             -10.5891
        27        2.0000           -0.3636096              -9.8943 (HOMO)
        28                         -0.2133654              -5.8060 (LUMO)
        29                         -0.2054327              -5.5901
        30                         -0.0824922              -2.2447
        31                          0.0078430               0.2134
        32                          0.0794585               2.1622
       ...                                ...                  ...
        50                          0.6663298              18.1318
      -------------------------------------------------------------
                  HL-Gap            0.1502442 Eh            4.0884 eV
             Fermi-level           -0.2884875 Eh           -7.8501 eV

 SCC (total)                   0 d,  0 h,  0 min,  0.026 sec
 SCC setup                      ...        0 min,  0.000 sec (  0.633%)
 Dispersion                     ...        0 min,  0.000 sec (  0.424%)
 classical contributions        ...        0 min,  0.000 sec (  0.083%)
 integral evaluation            ...        0 min,  0.002 sec (  6.869%)
 iterations                     ...        0 min,  0.019 sec ( 71.326%)
 molecular gradient             ...        0 min,  0.005 sec ( 20.120%)
 printout                       ...        0 min,  0.000 sec (  0.489%)

         :::::::::::::::::::::::::::::::::::::::::::::::::::::
         ::                     SUMMARY                     ::
         :::::::::::::::::::::::::::::::::::::::::::::::::::::
         :: total energy             -30.357137019612 Eh    ::
         :: gradient norm              0.009183607107 Eh/a0 ::
         :: HOMO-LUMO gap              4.088352007499 eV    ::
         ::.................................................::
         :: SCC energy               -30.776047713894 Eh    ::
         :: -> isotropic ES            0.036361164494 Eh    ::
         :: -> anisotropic ES          0.003342719228 Eh    ::
         :: -> anisotropic XC          0.007630253679 Eh    ::
         :: -> dispersion             -0.015484867503 Eh    ::
         :: repulsion energy           0.418910694282 Eh    ::
         :: add. restraining           0.000000000000 Eh    ::
         :: total charge               0.000000000000 e     ::
         :::::::::::::::::::::::::::::::::::::::::::::::::::::

           -------------------------------------------------
          |                Property Printout                |
           -------------------------------------------------

    * Orbital Energies and Occupations

         #    Occupation            Energy/Eh            Energy/eV
      -------------------------------------------------------------
         1        2.0000           -0.7197000             -19.5840
       ...           ...                  ...                  ...
        15        2.0000           -0.5127428             -13.9524
        16        2.0000           -0.4936446             -13.4328
        17        2.0000           -0.4891190             -13.3096
        18        2.0000           -0.4885736             -13.2948
        19        2.0000           -0.4787943             -13.0287
        20        2.0000           -0.4684027             -12.7459
        21        2.0000           -0.4665960             -12.6967
        22        2.0000           -0.4520060             -12.2997
        23        2.0000           -0.4355354             -11.8515
        24        2.0000           -0.4349494             -11.8356
        25        2.0000           -0.4216872             -11.4747
        26        2.0000           -0.3891428             -10.5891
        27        2.0000           -0.3636096              -9.8943 (HOMO)
        28                         -0.2133654              -5.8060 (LUMO)
        29                         -0.2054327              -5.5901
        30                         -0.0824922              -2.2447
        31                          0.0078430               0.2134
        32                          0.0794585               2.1622
        33                          0.0993826               2.7043
        34                          0.1177171               3.2032
        35                          0.1358889               3.6977
        36                          0.1585276               4.3138
        37                          0.1677689               4.5652
        38                          0.1803170               4.9067
       ...                                ...                  ...
        50                          0.6663298              18.1318
      -------------------------------------------------------------
                  HL-Gap            0.1502442 Eh            4.0884 eV
             Fermi-level           -0.2884875 Eh           -7.8501 eV

     #   Z          covCN         q      C6AA      α(0)
     1   6 C        3.758    -0.109    22.631     6.782
     2   6 C        2.966     0.005    27.905     8.665
     3   6 C        2.924    -0.052    29.290     8.875
     4   6 C        2.918    -0.060    29.481     8.904
     5   6 C        2.846     0.122    25.323     8.247
     6   6 C        2.860     0.104    25.697     8.309
     7   6 C        2.923    -0.078    29.959     8.976
     8   8 O        1.704    -0.294    18.884     5.867
     9   6 C        3.640     0.040    20.256     6.472
    10   8 O        1.658    -0.391    20.682     6.139
    11   1 H        0.925     0.045     2.384     2.415
    12   1 H        0.925     0.043     2.413     2.429
    13   1 H        0.925     0.045     2.385     2.415
    14   1 H        0.926     0.037     2.484     2.465
    15   1 H        0.926     0.054     2.274     2.358
    16   1 H        0.926     0.037     2.493     2.469
    17   1 H        0.925     0.058     2.218     2.329
    18   1 H        0.924     0.041     2.434     2.440
    19   1 H        0.924     0.041     2.434     2.440
    20   1 H        0.804     0.312     0.685     1.300

 Mol. C6AA /au·bohr⁶  :       4152.972511
 Mol. C8AA /au·bohr⁸  :      96591.091900
 Mol. α(0) /au        :        100.296180


Wiberg/Mayer (AO) data.
largest (>0.10) Wiberg bond orders for each atom

 ---------------------------------------------------------------------------
     #   Z sym  total        # sym  WBO       # sym  WBO       # sym  WBO
 ---------------------------------------------------------------------------
     1   6 C    3.997 --     2 C    1.024    12 H    0.986    13 H    0.974
                            11 H    0.974
     2   6 C    3.989 --     3 C    1.430     7 C    1.382     1 C    1.024
     3   6 C    3.990 --     2 C    1.430     4 C    1.420    14 H    0.969
     4   6 C    3.987 --     3 C    1.420     5 C    1.404    15 H    0.967
     5   6 C    3.942 --     4 C    1.404     6 C    1.287    10 O    1.073
     6   6 C    3.928 --     7 C    1.417     5 C    1.287     8 O    1.028
     7   6 C    3.985 --     6 C    1.417     2 C    1.382    16 H    0.965
     8   8 O    2.195 --     6 C    1.028     9 C    0.983
     9   6 C    3.947 --     8 O    0.983    17 H    0.980    19 H    0.978
                            18 H    0.978
    10   8 O    2.116 --     5 C    1.073    20 H    0.879
    11   1 H    0.997 --     1 C    0.974
    12   1 H    0.998 --     1 C    0.986
    13   1 H    0.997 --     1 C    0.974
    14   1 H    0.999 --     3 C    0.969
    15   1 H    0.996 --     4 C    0.967
    16   1 H    0.999 --     7 C    0.965
    17   1 H    0.996 --     9 C    0.980
    18   1 H    0.998 --     9 C    0.978
    19   1 H    0.998 --     9 C    0.978
    20   1 H    0.902 --    10 O    0.879
 ---------------------------------------------------------------------------

Topologies differ in total number of bonds
Writing topology from bond orders to xtbtopo.mol

molecular dipole:
                 x           y           z       tot (Debye)
 q only:       -0.036       0.838      -0.002
   full:        0.054       1.193      -0.002       3.035
molecular quadrupole (traceless):
                xx          xy          yy          xz          yz          zz
 q only:        3.474       3.280      -0.313      -0.006      -0.007      -3.161
  q+dip:        4.404       4.477      -0.134      -0.003      -0.001      -4.270
   full:        3.822       4.476      -0.925      -0.005      -0.005      -2.897


           -------------------------------------------------
          | TOTAL ENERGY              -30.357137019612 Eh   |
          | GRADIENT NORM               0.009183607107 Eh/α |
          | HOMO-LUMO GAP               4.088352007499 eV   |
           -------------------------------------------------

------------------------------------------------------------------------
 * finished run on 2025/04/05 at 08:55:19.870     
------------------------------------------------------------------------
 total:
 * wall-time:     0 d,  0 h,  0 min,  0.171 sec
 *  cpu-time:     0 d,  0 h,  0 min,  0.024 sec
 * ratio c/w:     0.142 speedup
 SCF:
 * wall-time:     0 d,  0 h,  0 min,  0.027 sec
 *  cpu-time:     0 d,  0 h,  0 min,  0.015 sec
 * ratio c/w:     0.558 speedup

