      -----------------------------------------------------------      
     |                   =====================                   |     
     |                           x T B                           |     
     |                   =====================                   |     
     |                         S. Grimme                         |     
     |          Mulliken Center for Theoretical Chemistry        |     
     |                    University of Bonn                     |     
      -----------------------------------------------------------      

   * xtb version 6.7.1 (edcfbbe) compiled by 'albert@albert-system' on 2024-07-22

   xtb is free software: you can redistribute it and/or modify it under
   the terms of the GNU Lesser General Public License as published by
   the Free Software Foundation, either version 3 of the License, or
   (at your option) any later version.
   
   xtb is distributed in the hope that it will be useful,
   but WITHOUT ANY WARRANTY; without even the implied warranty of
   MERCHANTABILITY or FITNESS FOR A PARTICULAR PURPOSE.  See the
   GNU Lesser General Public License for more details.
   
   Cite this work as:
   * C. Bannwarth, E. Caldeweyher, S. Ehlert, A. Hansen, P. Pracht,
     J. Seibert, S. Spicher, S. Grimme, WIREs Comput. Mol. Sci., 2020, 11,
     e01493. DOI: 10.1002/wcms.1493
   
   for GFN2-xTB:
   * C. Bannwarth, S. Ehlert and S. Grimme., J. Chem. Theory Comput., 2019,
     15, 1652-1671. DOI: 10.1021/acs.jctc.8b01176
   for GFN1-xTB:
   * S. Grimme, C. Bannwarth, P. Shushkov, J. Chem. Theory Comput., 2017,
     13, 1989-2009. DOI: 10.1021/acs.jctc.7b00118
   for GFN0-xTB:
   * P. Pracht, E. Caldeweyher, S. Ehlert, S. Grimme, ChemRxiv, 2019, preprint.
     DOI: 10.26434/chemrxiv.8326202.v1
   for GFN-FF:
   * S. Spicher and S. Grimme, Angew. Chem. Int. Ed., 2020, 59, 15665-15673.
     DOI: 10.1002/anie.202004239
   
   for ALPB and GBSA implicit solvation:
   * S. Ehlert, M. Stahn, S. Spicher, S. Grimme, J. Chem. Theory Comput.,
     2021, 17, 4250-4261. DOI: 10.1021/acs.jctc.1c00471
   
   for ddCOSMO and CPCM-X implicit solvation:
   * M. Stahn, S. Ehlert, S. Grimme, J. Phys. Chem. A,
     2023, XX, XXXX-XXXX. DOI: 10.1021/acs.jpca.3c04382
   
   for DFT-D4:
   * E. Caldeweyher, C. Bannwarth and S. Grimme, J. Chem. Phys., 2017,
     147, 034112. DOI: 10.1063/1.4993215
   * E. Caldeweyher, S. Ehlert, A. Hansen, H. Neugebauer, S. Spicher,
     C. Bannwarth and S. Grimme, J. Chem. Phys., 2019, 150, 154122.
     DOI: 10.1063/1.5090222
   * E. Caldeweyher, J.-M. Mewes, S. Ehlert and S. Grimme, Phys. Chem. Chem. Phys.
     2020, 22, 8499-8512. DOI: 10.1039/D0CP00502A
   
   for sTDA-xTB:
   * S. Grimme and C. Bannwarth, J. Chem. Phys., 2016, 145, 054103.
     DOI: 10.1063/1.4959605
   
   in the mass-spec context:
   * V. Asgeirsson, C. Bauer and S. Grimme, Chem. Sci., 2017, 8, 4879.
     DOI: 10.1039/c7sc00601b
   * J. Koopman and S. Grimme, ACS Omega 2019, 4, 12, 15120-15133.
     DOI: 10.1021/acsomega.9b02011
   
   for metadynamics refer to:
   * S. Grimme, J. Chem. Theory Comput., 2019, 155, 2847-2862
     DOI: 10.1021/acs.jctc.9b00143
   
   for SPH calculations refer to:
   * S. Spicher and S. Grimme, J. Chem. Theory Comput., 2021, 17, 1701-1714
     DOI: 10.1021/acs.jctc.0c01306
   
   for ONIOM refer to:
   * C. Plett, A. Katbashev, S. Ehlert, S. Grimme, M. Bursch,
     Phys. Chem. Chem. Phys., 2023, 25, 17860-17868. DOI: 10.1039/D3CP02178E
   
   for DIPRO refer to:
   * J. Kohn, N. Gildemeister, S. Grimme, D. Fazzi, A. Hansen,
     J. Chem. Phys., 2023, just accepted.
   
   for PTB refer to:
   * S. Grimme, M. Mueller, A. Hansen, J. Chem. Phys., 2023, 158, 124111.
     DOI: 10.1063/5.0137838
   
   with help from (in alphabetical order)
   P. Atkinson, C. Bannwarth, F. Bohle, G. Brandenburg, E. Caldeweyher
   M. Checinski, S. Dohm, S. Ehlert, S. Ehrlich, I. Gerasimov, C. Hölzer
   A. Katbashev, J. Kohn, J. Koopman, C. Lavigne, S. Lehtola, F. März, M. Müller,
   F. Musil, H. Neugebauer, J. Pisarek, C. Plett, P. Pracht, F. Pultar,
   J. Seibert, P. Shushkov, S. Spicher, M. Stahn, M. Steiner, T. Strunk,
   J. Stückrath, T. Rose, and J. Unsleber
   
 * started run on 2025/04/06 at 05:07:26.915     
   ID    Z sym.   atoms
    1    6 C      1, 2, 4-6, 8, 10-13
    2    1 H      3, 7, 14-29
    3    8 O      9

           -------------------------------------------------
          |                Calculation Setup                |
           -------------------------------------------------

          program call               : /srv/scratch/z5358697/.xtb/bin/xtb solv.coord --gfn2 --sp --chrg 0 --norestart --parallel 1 --alpb water reference -I xtb_sp-xcontrol-inp
          hostname                   : k139
          coordinate file            : solv.coord
          omp threads                :                     1


           -------------------------------------------------
          |                 G F N 2 - x T B                 |
           -------------------------------------------------

        Reference                      10.1021/acs.jctc.8b01176
      * Hamiltonian:
        H0-scaling (s, p, d)           1.850000    2.230000    2.230000
        zeta-weighting                 0.500000
      * Dispersion:
        s8                             2.700000
        a1                             0.520000
        a2                             5.000000
        s9                             5.000000
      * Repulsion:
        kExp                           1.500000    1.000000
        rExp                           1.000000
      * Coulomb:
        alpha                          2.000000
        third order                    shell-resolved
        anisotropic                    true
        a3                             3.000000
        a5                             4.000000
        cn-shift                       1.200000
        cn-exp                         4.000000
        max-rad                        5.000000

      * Solvation model:               ALPB
        Solvent                        water
        Parameter file                 internal GFN2-xTB/ALPB
        Dielectric constant                8.0200E+01
        Reference state                gsolv=reference [X=1]
        Free energy shift                  2.8945E-03 Eh       1.8164E+00 kcal/mol
        Temperature                        2.9815E+02 K
        Density                            1.0000E+00 kg/L
        Solvent mass                       1.8000E+01 g/mol
        Interaction kernel             P16
        Born radius scaling (c1)           1.4744E+00
        Born radii integrator          GBOBC
        Born offset                        0.0000E+00 a0       0.0000E+00 AA
        H-bond correction              true
        Ion screening                  false
        Surface tension                    1.0000E-05 Eh       1.5569E+01 dyn/cm
        Grid points                               974 per atom

          ...................................................
          :                      SETUP                      :
          :.................................................:
          :  # basis functions                  62          :
          :  # atomic orbitals                  62          :
          :  # shells                           40          :
          :  # electrons                        64          :
          :  max. iterations                   250          :
          :  Hamiltonian                  GFN2-xTB          :
          :  restarted?                      false          :
          :  GBSA solvation                   true          :
          :  PC potential                    false          :
          :  electronic temp.          300.0000000     K    :
          :  accuracy                    1.0000000          :
          :  -> integral cutoff          0.2500000E+02      :
          :  -> integral neglect         0.1000000E-07      :
          :  -> SCF convergence          0.1000000E-05 Eh   :
          :  -> wf. convergence          0.1000000E-03 e    :
          :  Broyden damping             0.4000000          :
          :  net charge                          0          :
          :  unpaired electrons                  0          :
          ...................................................

 iter      E             dE          RMSdq      gap      omega  full diag
   1    -35.0826130 -0.350826E+02  0.322E+00    4.26       0.0  T
   2    -35.1550447 -0.724317E-01  0.163E+00    3.50       1.0  T
   3    -35.1583103 -0.326564E-02  0.933E-01    3.86       1.0  T
   4    -35.1606221 -0.231177E-02  0.180E-01    3.59       1.0  T
   5    -35.1610628 -0.440649E-03  0.653E-02    3.66       1.0  T
   6    -35.1610691 -0.638324E-05  0.246E-02    3.65       1.0  T
   7    -35.1610712 -0.202203E-05  0.586E-03    3.66       3.2  T
   8    -35.1610714 -0.208203E-06  0.210E-03    3.66       8.8  T
   9    -35.1610714 -0.110844E-07  0.768E-04    3.66      24.2  T
  10    -35.1610714 -0.248599E-08  0.188E-04    3.66      99.0  T

   *** convergence criteria satisfied after 10 iterations ***

         #    Occupation            Energy/Eh            Energy/eV
      -------------------------------------------------------------
         1        2.0000           -0.7143348             -19.4380
       ...           ...                  ...                  ...
        26        2.0000           -0.4433802             -12.0650
        27        2.0000           -0.4360974             -11.8668
        28        2.0000           -0.4319813             -11.7548
        29        2.0000           -0.4271354             -11.6229
        30        2.0000           -0.4254011             -11.5758
        31        2.0000           -0.4155259             -11.3070
        32        2.0000           -0.3885251             -10.5723 (HOMO)
        33                         -0.2541358              -6.9154 (LUMO)
        34                          0.0439399               1.1957
        35                          0.0719464               1.9578
        36                          0.0793897               2.1603
        37                          0.0906743               2.4674
       ...                                ...                  ...
        62                          0.5988129              16.2945
      -------------------------------------------------------------
                  HL-Gap            0.1343893 Eh            3.6569 eV
             Fermi-level           -0.3213305 Eh           -8.7438 eV

 SCC (total)                   0 d,  0 h,  0 min,  0.041 sec
 SCC setup                      ...        0 min,  0.002 sec (  4.172%)
 Dispersion                     ...        0 min,  0.000 sec (  0.462%)
 classical contributions        ...        0 min,  0.000 sec (  0.078%)
 integral evaluation            ...        0 min,  0.003 sec (  8.036%)
 iterations                     ...        0 min,  0.028 sec ( 68.811%)
 molecular gradient             ...        0 min,  0.007 sec ( 18.068%)
 printout                       ...        0 min,  0.000 sec (  0.339%)

         :::::::::::::::::::::::::::::::::::::::::::::::::::::
         ::                     SUMMARY                     ::
         :::::::::::::::::::::::::::::::::::::::::::::::::::::
         :: total energy             -34.684824722498 Eh    ::
         :: total w/o Gsasa/hb       -34.686777789311 Eh    ::
         :: gradient norm              0.000020367950 Eh/a0 ::
         :: HOMO-LUMO gap              3.656918704035 eV    ::
         ::.................................................::
         :: SCC energy               -35.160911852981 Eh    ::
         :: -> isotropic ES            0.041396551109 Eh    ::
         :: -> anisotropic ES          0.005112229582 Eh    ::
         :: -> anisotropic XC          0.016812928241 Eh    ::
         :: -> dispersion             -0.023122201603 Eh    ::
         :: -> Gsolv                  -0.005779700672 Eh    ::
         ::    -> Gelec               -0.007732767485 Eh    ::
         ::    -> Gsasa                0.000588142015 Eh    ::
         ::    -> Ghb                 -0.001529624362 Eh    ::
         ::    -> Gshift               0.002894549160 Eh    ::
         :: repulsion energy           0.476087130483 Eh    ::
         :: add. restraining           0.000000000000 Eh    ::
         :: total charge               0.000000000000 e     ::
         :::::::::::::::::::::::::::::::::::::::::::::::::::::

           -------------------------------------------------
          |                Property Printout                |
           -------------------------------------------------

    * Orbital Energies and Occupations

         #    Occupation            Energy/Eh            Energy/eV
      -------------------------------------------------------------
         1        2.0000           -0.7143348             -19.4380
       ...           ...                  ...                  ...
        20        2.0000           -0.4794170             -13.0456
        21        2.0000           -0.4701416             -12.7932
        22        2.0000           -0.4642396             -12.6326
        23        2.0000           -0.4609559             -12.5432
        24        2.0000           -0.4546501             -12.3717
        25        2.0000           -0.4468209             -12.1586
        26        2.0000           -0.4433802             -12.0650
        27        2.0000           -0.4360974             -11.8668
        28        2.0000           -0.4319813             -11.7548
        29        2.0000           -0.4271354             -11.6229
        30        2.0000           -0.4254011             -11.5758
        31        2.0000           -0.4155259             -11.3070
        32        2.0000           -0.3885251             -10.5723 (HOMO)
        33                         -0.2541358              -6.9154 (LUMO)
        34                          0.0439399               1.1957
        35                          0.0719464               1.9578
        36                          0.0793897               2.1603
        37                          0.0906743               2.4674
        38                          0.0912755               2.4837
        39                          0.1011750               2.7531
        40                          0.1247379               3.3943
        41                          0.1262116               3.4344
        42                          0.1350496               3.6749
        43                          0.1527081               4.1554
       ...                                ...                  ...
        62                          0.5988129              16.2945
      -------------------------------------------------------------
                  HL-Gap            0.1343893 Eh            3.6569 eV
             Fermi-level           -0.3213305 Eh           -8.7438 eV

     #   Z          covCN         q      C6AA      α(0)
     1   6 C        3.756    -0.120    22.853     6.816
     2   6 C        3.854    -0.009    20.701     6.471
     3   1 H        0.924     0.033     2.539     2.492
     4   6 C        3.808    -0.073    21.894     6.661
     5   6 C        3.809    -0.061    21.658     6.625
     6   6 C        3.857    -0.050    21.427     6.583
     7   1 H        0.924     0.067     2.114     2.274
     8   6 C        2.820     0.246    22.887     7.839
     9   8 O        0.857    -0.438    22.457     6.354
    10   6 C        3.809    -0.095    22.301     6.722
    11   6 C        3.850    -0.011    20.735     6.477
    12   6 C        3.755    -0.117    22.788     6.807
    13   6 C        3.754    -0.109    22.644     6.785
    14   1 H        0.925     0.047     2.361     2.403
    15   1 H        0.925     0.044     2.400     2.422
    16   1 H        0.925     0.048     2.344     2.394
    17   1 H        0.924     0.048     2.341     2.393
    18   1 H        0.924     0.051     2.313     2.378
    19   1 H        0.925     0.055     2.253     2.347
    20   1 H        0.924     0.041     2.430     2.438
    21   1 H        0.924     0.076     2.025     2.226
    22   1 H        0.924     0.056     2.248     2.345
    23   1 H        0.924     0.032     2.558     2.501
    24   1 H        0.925     0.044     2.394     2.420
    25   1 H        0.925     0.039     2.468     2.457
    26   1 H        0.925     0.042     2.425     2.435
    27   1 H        0.925     0.037     2.485     2.465
    28   1 H        0.925     0.034     2.534     2.489
    29   1 H        0.925     0.042     2.420     2.433

 Mol. C6AA /au·bohr⁶  :       6267.200357
 Mol. C8AA /au·bohr⁸  :     136220.843232
 Mol. α(0) /au        :        117.450519


Wiberg/Mayer (AO) data.
largest (>0.10) Wiberg bond orders for each atom

 ---------------------------------------------------------------------------
     #   Z sym  total        # sym  WBO       # sym  WBO       # sym  WBO
 ---------------------------------------------------------------------------
     1   6 C    3.994 --     2 C    1.008    15 H    0.986    14 H    0.986
                            16 H    0.984
     2   6 C    3.993 --     1 C    1.008     4 C    0.999    10 C    0.970
                             3 H    0.969
     3   1 H    0.999 --     2 C    0.969
     4   6 C    3.996 --     5 C    1.009     2 C    0.999    17 H    0.975
                            18 H    0.972
     5   6 C    3.994 --     4 C    1.009    20 H    0.975    19 H    0.970
                             6 C    0.969
     6   6 C    3.993 --     8 C    0.988    11 C    0.983     5 C    0.969
                             7 H    0.936
     7   1 H    0.995 --     6 C    0.936
     8   6 C    3.893 --     9 O    1.808    10 C    1.001     6 C    0.988
     9   8 O    2.017 --     8 C    1.808
    10   6 C    3.994 --     8 C    1.001    22 H    0.974     2 C    0.970
                            21 H    0.946
    11   6 C    3.994 --    13 C    1.010    12 C    1.009     6 C    0.983
                            23 H    0.967
    12   6 C    3.995 --    11 C    1.009    25 H    0.986    26 H    0.986
                            24 H    0.984
    13   6 C    3.996 --    11 C    1.010    27 H    0.986    28 H    0.986
                            29 H    0.985
    14   1 H    0.998 --     1 C    0.986
    15   1 H    0.998 --     1 C    0.986
    16   1 H    0.997 --     1 C    0.984
    17   1 H    0.998 --     4 C    0.975
    18   1 H    0.997 --     4 C    0.972
    19   1 H    0.997 --     5 C    0.970
    20   1 H    0.998 --     5 C    0.975
    21   1 H    0.994 --    10 C    0.946
    22   1 H    0.997 --    10 C    0.974
    23   1 H    0.999 --    11 C    0.967
    24   1 H    0.998 --    12 C    0.984
    25   1 H    0.999 --    12 C    0.986
    26   1 H    0.998 --    12 C    0.986
    27   1 H    0.998 --    13 C    0.986
    28   1 H    0.999 --    13 C    0.986
    29   1 H    0.998 --    13 C    0.985
 ---------------------------------------------------------------------------

Topologies differ in total number of bonds
Writing topology from bond orders to xtbtopo.mol

molecular dipole:
                 x           y           z       tot (Debye)
 q only:       -0.696      -1.194       1.078
   full:       -0.727      -1.152       1.101       4.451
molecular quadrupole (traceless):
                xx          xy          yy          xz          yz          zz
 q only:        5.749      -2.538      -4.238       0.964       4.332      -1.511
  q+dip:        4.259      -3.023      -4.193       1.473       5.444      -0.065
   full:        4.603      -2.878      -4.195       1.532       5.914      -0.409


           -------------------------------------------------
          | TOTAL ENERGY              -34.684824722498 Eh   |
          | GRADIENT NORM               0.000020367950 Eh/α |
          | HOMO-LUMO GAP               3.656918704035 eV   |
           -------------------------------------------------

------------------------------------------------------------------------
 * finished run on 2025/04/06 at 05:07:26.989     
------------------------------------------------------------------------
 total:
 * wall-time:     0 d,  0 h,  0 min,  0.073 sec
 *  cpu-time:     0 d,  0 h,  0 min,  0.032 sec
 * ratio c/w:     0.435 speedup
 SCF:
 * wall-time:     0 d,  0 h,  0 min,  0.041 sec
 *  cpu-time:     0 d,  0 h,  0 min,  0.022 sec
 * ratio c/w:     0.533 speedup

