
                                 *****************
                                 * O   R   C   A *
                                 *****************

                                            #,                                       
                                            ###                                      
                                            ####                                     
                                            #####                                    
                                            ######                                   
                                           ########,                                 
                                     ,,################,,,,,                         
                               ,,#################################,,                 
                          ,,##########################################,,             
                       ,#########################################, ''#####,          
                    ,#############################################,,   '####,        
                  ,##################################################,,,,####,       
                ,###########''''           ''''###############################       
              ,#####''   ,,,,##########,,,,          '''####'''          '####       
            ,##' ,,,,###########################,,,                        '##       
           ' ,,###''''                  '''############,,,                           
         ,,##''                                '''############,,,,        ,,,,,,###''
      ,#''                                            '''#######################'''  
     '                                                          ''''####''''         
             ,#######,   #######,   ,#######,      ##                                
            ,#'     '#,  ##    ##  ,#'     '#,    #''#        ,####,   ,####,        
            ##       ##  ##   ,#'  ##            #'  '#       #'       #'  '#        
            ##       ##  #######   ##           ,######,      #####,   #    #        
            '#,     ,#'  ##    ##  '#,     ,#' ,#      #,     #,   #   #,  ,#        
             '#######'   ##     ##  '#######'  #'      '#     '####' # '####'        



                #########################################################
                #                        -***-                          #
                #          Department of theory and spectroscopy        #
                #                                                       #
                #                      Frank Neese                      #
                #                                                       #
                #     Directorship, Architecture, Infrastructure        #
                #                    SHARK, DRIVERS                     #
                #        Core code/Algorithms in most modules           #
                #                                                       #
                #        Max Planck Institute fuer Kohlenforschung      #
                #                Kaiser Wilhelm Platz 1                 #
                #                 D-45470 Muelheim/Ruhr                 #
                #                      Germany                          #
                #                                                       #
                #                  All rights reserved                  #
                #                        -***-                          #
                #########################################################


                         Program Version 6.0.0  -   RELEASE  -


 With contributions from (in alphabetic order):
   Daniel Aravena         : Magnetic Suceptibility
   Michael Atanasov       : Ab Initio Ligand Field Theory (pilot matlab implementation)
   Alexander A. Auer      : GIAO ZORA, VPT2 properties, NMR spectrum
   Ute Becker             : All parallelization in ORCA, NUMFREQ, NUMCALC
   Giovanni Bistoni       : ED, misc. LED, open-shell LED, HFLD
   Martin Brehm           : Molecular dynamics
   Dmytro Bykov           : pre 5.0 version of the SCF Hessian
   Marcos Casanova-Páez   : Triplet and SCS-CIS(D). UHF-(DLPNO)-IP/EA/STEOM-CCSD. UHF-CVS-IP/STEOM-CCSD
   Vijay G. Chilkuri      : MRCI spin determinant printing, contributions to CSF-ICE
   Pauline Colinet        : FMM embedding
   Dipayan Datta          : RHF DLPNO-CCSD density
   Achintya Kumar Dutta   : EOM-CC, STEOM-CC
   Nicolas Foglia         : Exact transition moments, OPA infrastructure, MCD improvements
   Dmitry Ganyushin       : Spin-Orbit,Spin-Spin,Magnetic field MRCI
   Miquel Garcia          : C-PCM and meta-GGA Hessian, CCSD/C-PCM, Gaussian charge scheme
   Tiago L. C. Gouveia    : GS-ROHF, GS-ROCIS
   Yang Guo               : DLPNO-NEVPT2, F12-NEVPT2, CIM, IAO-localization
   Andreas Hansen         : Spin unrestricted coupled pair/coupled cluster methods
   Ingolf Harden          : AUTO-CI MPn and infrastructure 
   Benjamin Helmich-Paris : MC-RPA, TRAH-(SCF,CASSCF), AVAS, COSX integrals, SCF dyn. polar.
   Lee Huntington         : MR-EOM, pCC
   Robert Izsak           : Overlap fitted RIJCOSX, COSX-SCS-MP3, EOM
   Riya Kayal             : Wick's Theorem for AUTO-CI, AUTO-CI UHF-CCSDT
   Emily Kempfer          : AUTO-CI, RHF CISDT and CCSDT
   Christian Kollmar      : KDIIS, OOCD, Brueckner-CCSD(T), CCSD density, CASPT2, CASPT2-K, improved NEVPT2
   Axel Koslowski         : Symmetry handling
   Simone Kossmann        : Meta GGA functionals, TD-DFT gradient, OOMP2, (MP2 Hessian; deprecated post 5.0)
   Lucas Lang             : DCDCAS
   Marvin Lechner         : AUTO-CI (C++ implementation), FIC-MRCC
   Spencer Leger          : CASSCF response
   Dagmar Lenk            : GEPOL surface, SMD, ORCA-2-JSON
   Dimitrios Liakos       : Extrapolation schemes; Compound Job, initial MDCI parallelization
   Dimitrios Manganas     : Further ROCIS development; embedding schemes. LFT, Crystal Embedding
   Dimitrios Pantazis     : SARC Basis sets
   Anastasios Papadopoulos: AUTO-CI, single reference methods and gradients
   Taras Petrenko         : pre 6.0 DFT Hessian and TD-DFT gradient, (ASA, deprecated), ECA, 1-Electron XAS/XES, NRVS
   Peter Pinski           : DLPNO-MP2, DLPNO-MP2 Gradient
   Christoph Reimann      : Effective Core Potentials
   Marius Retegan         : Local ZFS, SOC
   Christoph Riplinger    : Optimizer, TS searches, QM/MM, DLPNO-CCSD(T), (RO)-DLPNO pert. Triples
   Michael Roemelt        : Original ROCIS implementation
   Masaaki Saitow         : Open-shell DLPNO-CCSD energy and density
   Barbara Sandhoefer     : DKH picture change effects
   Kantharuban Sivalingam : CASSCF convergence/infrastructure, NEVPT2 and variants, FIC-MRCI
   Bernardo de Souza      : ESD, SOC TD-DFT
   Georgi Stoychev        : AutoAux, RI-MP2 NMR, DLPNO-MP2 response, X2C
   Van Anh Tran           : RI-MP2 g-tensors
   Willem Van den Heuvel  : Paramagnetic NMR
   Zikuan Wang            : NOTCH, Electric field optimization 
   Frank Wennmohs         : Technical directorship and infrastructure
   Hang Xu                : AUTO-CI-Response properties 


 We gratefully acknowledge several colleagues who have allowed us to
 interface, adapt or use parts of their codes:
   Stefan Grimme, W. Hujo, H. Kruse, P. Pracht,  : VdW corrections, initial TS optimization,
                  C. Bannwarth, S. Ehlert,         DFT functionals, gCP, sTDA/sTD-DF
                  L. Wittmann, M. Mueller
   Ed Valeev, F. Pavosevic, A. Kumar             : LibInt (2-el integral package), F12 methods
   Garnet Chan, S. Sharma, J. Yang, R. Olivares  : DMRG
   Ulf Ekstrom                                   : XCFun DFT Library
   Mihaly Kallay                                 : mrcc  (arbitrary order and MRCC methods)
   Frank Weinhold                                : gennbo (NPA and NBO analysis)
   Simon Mueller                                 : openCOSMO-RS
   Christopher J. Cramer and Donald G. Truhlar   : smd solvation model
   Lars Goerigk                                  : TD-DFT with DH, B97 family of functionals
   V. Asgeirsson, H. Jonsson                     : NEB implementation
   FAccTs GmbH                                   : IRC, NEB, NEB-TS, DLPNO-Multilevel, CI-OPT
                                                   MM, QMMM, 2- and 3-layer-ONIOM, Crystal-QMMM,
                                                   LR-CPCM, SF, NACMEs, symmetry and pop. for TD-DFT,
                                                   nearIR, NL-DFT gradient (VV10), updates on ESD,
                                                   ML-optimized integration grids, MBIS, APM,
                                                   GOAT, DOCKER, SOLVATOR, interface openCOSMO-RS
   S Lehtola, MJT Oliveira, MAL Marques          : LibXC Library
   Liviu Ungur et al                             : ANISO software


 Your calculation uses the libint2 library for the computation of 2-el integrals
 For citations please refer to: http://libint.valeyev.net

 Your ORCA version has been built with support for libXC version: 6.2.2
 For citations please refer to: https://libxc.gitlab.io

 This ORCA versions uses:
   CBLAS   interface :  Fast vector & matrix operations
   LAPACKE interface :  Fast linear algebra routines
   SCALAPACK package :  Parallel linear algebra routines
   Shared memory     :  Shared parallel matrices
   BLAS/LAPACK       :  OpenBLAS 0.3.27  USE64BITINT DYNAMIC_ARCH NO_AFFINITY SkylakeX SINGLE_THREADED
        Core in use  :  SkylakeX
   Copyright (c) 2011-2014, The OpenBLAS Project


Your calculation utilizes the geometrical counterpoise correction gCP
Please cite in your paper:
H.Kruse, S. Grimme J.Chem.Phys., 136, (2012), 154101 
   

Your calculation utilizes the atom-pairwise dispersion correction
based on EEQ partial charges (D4)


================================================================================

----- Orbital basis set information -----
Your calculation utilizes the basis: def2-mTZVPP
   Stefan Grimme, Andreas Hansen, Sebastian Ehlert, and Jan-Michael Mewes 
   J. Chem. Phys. 154, 064103 (2021). DOI: 10.1063/5.0040021

----- AuxJ basis set information -----
Your calculation utilizes the auxiliary basis: def2/J
   F. Weigend, Phys. Chem. Chem. Phys. 8, 1057 (2006).

================================================================================
                                        WARNINGS
                       Please study these warnings very carefully!
================================================================================

Using LibXC functional ID 497 : Re-regularized SCAN exchange by Furness et al
[ 1]  J. W. Furness, A. D. Kaplan, J. Ning, J. P. Perdew, and J. Sun.,  J. Phys. Chem. Lett. 11, 8208-8215 (2020)
[ 2]  J. W. Furness, A. D. Kaplan, J. Ning, J. P. Perdew, and J. Sun.,  J. Phys. Chem. Lett. 11, 9248-9248 (2020)
Using LibXC functional ID 498 : Re-regularized SCAN correlation by Furness et al
[ 1]  J. W. Furness, A. D. Kaplan, J. Ning, J. P. Perdew, and J. Sun.,  J. Phys. Chem. Lett. 11, 8208-8215 (2020)
[ 2]  J. W. Furness, A. D. Kaplan, J. Ning, J. P. Perdew, and J. Sun.,  J. Phys. Chem. Lett. 11, 9248-9248 (2020)
Using LibXC functional ID 497 : Re-regularized SCAN exchange by Furness et al
[ 1]  J. W. Furness, A. D. Kaplan, J. Ning, J. P. Perdew, and J. Sun.,  J. Phys. Chem. Lett. 11, 8208-8215 (2020)
[ 2]  J. W. Furness, A. D. Kaplan, J. Ning, J. P. Perdew, and J. Sun.,  J. Phys. Chem. Lett. 11, 9248-9248 (2020)
Using LibXC functional ID 498 : Re-regularized SCAN correlation by Furness et al
[ 1]  J. W. Furness, A. D. Kaplan, J. Ning, J. P. Perdew, and J. Sun.,  J. Phys. Chem. Lett. 11, 8208-8215 (2020)
[ 2]  J. W. Furness, A. D. Kaplan, J. Ning, J. P. Perdew, and J. Sun.,  J. Phys. Chem. Lett. 11, 9248-9248 (2020)

================================================================================
                                       INPUT FILE
================================================================================
NAME = sp_gas.inp
|  1> ! r2scan-3c def2/J RI DEFGRID2 scfconv6 printgap
|  2> %output
|  3>     printlevel normal
|  4> end
|  5> * xyz 0 1
|  6> C -3.186698037 -0.3082329974 0.0002669904
|  7> O -2.0856289798 0.580847299 -0.0001833041
|  8> C -0.8244558748 0.0589143298 -0.0001897634
|  9> C -0.5253118295 -1.2994992305 -0.0002955416
| 10> C 0.7997948494 -1.7011034782 -0.0002085904
| 11> C 1.8297588186 -0.7813656033 1.17828e-05
| 12> C 1.5309025013 0.5784119382 0.0001383235
| 13> C 0.2077254725 0.9927194487 5.00763e-05
| 14> O 2.4961157469 1.5357688036 0.0002358792
| 15> H -3.1870018217 -0.9360081073 0.8950713731
| 16> H -3.1874262473 -0.9364799641 -0.8942235363
| 17> H -4.067874602 0.3293044521 0.0003033955
| 18> H -1.3042961339 -2.0433339177 -0.0004130637
| 19> H 1.0295290895 -2.7555671771 -0.0002940185
| 20> H 2.8566486139 -1.1138865324 9.3866e-05
| 21> H -0.0266133751 2.0445894263 0.0001567402
| 22> H 3.3763869308 1.1295494468 0.0011724857
| 23> *
| 24> 
| 25>                          ****END OF INPUT****
================================================================================

                       ****************************
                       * Single Point Calculation *
                       ****************************

---------------------------------
CARTESIAN COORDINATES (ANGSTROEM)
---------------------------------
  C     -3.186698   -0.308233    0.000267
  O     -2.085629    0.580847   -0.000183
  C     -0.824456    0.058914   -0.000190
  C     -0.525312   -1.299499   -0.000296
  C      0.799795   -1.701103   -0.000209
  C      1.829759   -0.781366    0.000012
  C      1.530903    0.578412    0.000138
  C      0.207725    0.992719    0.000050
  O      2.496116    1.535769    0.000236
  H     -3.187002   -0.936008    0.895071
  H     -3.187426   -0.936480   -0.894224
  H     -4.067875    0.329304    0.000303
  H     -1.304296   -2.043334   -0.000413
  H      1.029529   -2.755567   -0.000294
  H      2.856649   -1.113887    0.000094
  H     -0.026613    2.044589    0.000157
  H      3.376387    1.129549    0.001172

----------------------------
CARTESIAN COORDINATES (A.U.)
----------------------------
  NO LB      ZA    FRAG     MASS         X           Y           Z
   0 C     6.0000    0    12.011   -6.021987   -0.582476    0.000505
   1 O     8.0000    0    15.999   -3.941268    1.097642   -0.000346
   2 C     6.0000    0    12.011   -1.557996    0.111332   -0.000359
   3 C     6.0000    0    12.011   -0.992695   -2.455698   -0.000558
   4 C     6.0000    0    12.011    1.511393   -3.214620   -0.000394
   5 C     6.0000    0    12.011    3.457743   -1.476567    0.000022
   6 C     6.0000    0    12.011    2.892986    1.093040    0.000261
   7 C     6.0000    0    12.011    0.392544    1.875968    0.000095
   8 O     8.0000    0    15.999    4.716975    2.902182    0.000446
   9 H     1.0000    0     1.008   -6.022561   -1.768799    1.691440
  10 H     1.0000    0     1.008   -6.023363   -1.769691   -1.689838
  11 H     1.0000    0     1.008   -7.687169    0.622295    0.000573
  12 H     1.0000    0     1.008   -2.464762   -3.861342   -0.000781
  13 H     1.0000    0     1.008    1.945528   -5.207267   -0.000556
  14 H     1.0000    0     1.008    5.398284   -2.104940    0.000177
  15 H     1.0000    0     1.008   -0.050292    3.863714    0.000296
  16 H     1.0000    0     1.008    6.380447    2.134539    0.002216

--------------------------------
INTERNAL COORDINATES (ANGSTROEM)
--------------------------------
 C      0   0   0     0.000000000000     0.00000000     0.00000000
 O      1   0   0     1.415209187695     0.00000000     0.00000000
 C      2   1   0     1.364907185546   118.59808108     0.00000000
 C      3   2   1     1.390961743483   124.90128931     0.02573942
 C      4   3   2     1.384627635791   119.27985470   180.00385902
 C      5   4   3     1.380848863902   121.37511690     0.00000000
 C      6   5   4     1.392232048464   119.36866470     0.00000000
 C      7   6   5     1.386523772096   119.78172930     0.00000000
 O      7   6   5     1.359473716821   122.37029629   180.00599493
 H      1   2   3     1.093058353517   111.17936678    61.36867243
 H      1   2   3     1.093072771509   111.18229662   298.61870970
 H      1   2   3     1.087624080069   105.19416045   179.99333386
 H      4   3   2     1.077082449117   121.25852902     0.00000000
 H      5   4   3     1.079199481407   119.15151550   180.00018733
 H      6   5   4     1.079385393045   120.29310306   179.99893388
 H      8   7   6     1.077657253791   119.94558456   179.99944153
 H      9   7   6     0.969480479574   110.46218638   359.93889389

---------------------------
INTERNAL COORDINATES (A.U.)
---------------------------
 C      0   0   0     0.000000000000     0.00000000     0.00000000
 O      1   0   0     2.674357786952     0.00000000     0.00000000
 C      2   1   0     2.579300778903   118.59808108     0.00000000
 C      3   2   1     2.628536757945   124.90128931     0.02573942
 C      4   3   2     2.616567029104   119.27985470   180.00385902
 C      5   4   3     2.609426185112   121.37511690     0.00000000
 C      6   5   4     2.630937286465   119.36866470     0.00000000
 C      7   6   5     2.620150207434   119.78172930     0.00000000
 O      7   6   5     2.569033011056   122.37029629   180.00599493
 H      1   2   3     2.065580936543   111.17936678    61.36867243
 H      1   2   3     2.065608182598   111.18229662   298.61870970
 H      1   2   3     2.055311647988   105.19416045   179.99333386
 H      4   3   2     2.035390852483   121.25852902     0.00000000
 H      5   4   3     2.039391463730   119.15151550   180.00018733
 H      6   5   4     2.039742785810   120.29310306   179.99893388
 H      8   7   6     2.036477075898   119.94558456   179.99944153
 H      9   7   6     1.832052598578   110.46218638   359.93889389

---------------------
BASIS SET INFORMATION
---------------------
There are 3 groups of distinct atoms

 Group   1 Type C   : 11s6p1d contracted to 5s3p1d pattern {62111/411/1}
 Group   2 Type O   : 11s6p2d contracted to 5s3p2d pattern {62111/411/11}
 Group   3 Type H   : 4s1p contracted to 2s1p pattern {31/1}

Atom   0C    basis set group =>   1
Atom   1O    basis set group =>   2
Atom   2C    basis set group =>   1
Atom   3C    basis set group =>   1
Atom   4C    basis set group =>   1
Atom   5C    basis set group =>   1
Atom   6C    basis set group =>   1
Atom   7C    basis set group =>   1
Atom   8O    basis set group =>   2
Atom   9H    basis set group =>   3
Atom  10H    basis set group =>   3
Atom  11H    basis set group =>   3
Atom  12H    basis set group =>   3
Atom  13H    basis set group =>   3
Atom  14H    basis set group =>   3
Atom  15H    basis set group =>   3
Atom  16H    basis set group =>   3
---------------------------------
AUXILIARY/J BASIS SET INFORMATION
---------------------------------
There are 3 groups of distinct atoms

 Group   1 Type C   : 12s5p4d2f1g contracted to 6s4p3d1f1g pattern {711111/2111/211/2/1}
 Group   2 Type O   : 12s5p4d2f1g contracted to 6s4p3d1f1g pattern {711111/2111/211/2/1}
 Group   3 Type H   : 5s2p1d contracted to 3s1p1d pattern {311/2/1}

Atom   0C    basis set group =>   1
Atom   1O    basis set group =>   2
Atom   2C    basis set group =>   1
Atom   3C    basis set group =>   1
Atom   4C    basis set group =>   1
Atom   5C    basis set group =>   1
Atom   6C    basis set group =>   1
Atom   7C    basis set group =>   1
Atom   8O    basis set group =>   2
Atom   9H    basis set group =>   3
Atom  10H    basis set group =>   3
Atom  11H    basis set group =>   3
Atom  12H    basis set group =>   3
Atom  13H    basis set group =>   3
Atom  14H    basis set group =>   3
Atom  15H    basis set group =>   3
Atom  16H    basis set group =>   3

Checking for AutoStart:
The File: sp_gas.gbw exists
Trying to determine its content:
     ... Fine, the file contains calculation information
     ... Fine, the calculation information was read
     ... Fine, the file contains a basis set
     ... Fine, the basis set was read
     ... Fine, the file contains a geometry
     ... Fine, the geometry was read
     ... Fine, the file contains a set of orbitals
     ... Fine, the orbitals can be read
     => possible old guess file was deleted
     => GBW file was renamed to GES file
     => GES file is set as startup file
     => Guess is set to MORead
     ... now leaving AutoStart

------------------------------------------------------------------------------
                             ORCA STARTUP CALCULATIONS
                           -- RI-GTO INTEGRALS CHOSEN --
------------------------------------------------------------------------------
------------------------------------------------------------------------------
                   ___                                                        
                  /   \      - P O W E R E D   B Y -                         
                 /     \                                                     
                 |  |  |   _    _      __       _____    __    __             
                 |  |  |  | |  | |    /  \     |  _  \  |  |  /  |          
                  \  \/   | |  | |   /    \    | | | |  |  | /  /          
                 / \  \   | |__| |  /  /\  \   | |_| |  |  |/  /          
                |  |  |   |  __  | /  /__\  \  |    /   |      \           
                |  |  |   | |  | | |   __   |  |    \   |  |\   \          
                \     /   | |  | | |  |  |  |  | |\  \  |  | \   \       
                 \___/    |_|  |_| |__|  |__|  |_| \__\ |__|  \__/        
                                                                              
                      - O R C A' S   B I G   F R I E N D -                    
                                      &                                       
                       - I N T E G R A L  F E E D E R -                       
                                                                              
 v1 FN, 2020, v2 2021, v3 2022-2024                                           
------------------------------------------------------------------------------


----------------------
SHARK INTEGRAL PACKAGE
----------------------

Number of atoms                             ...     17
Number of basis functions                   ...    221
Number of shells                            ...    107
Maximum angular momentum                    ...      2
Integral batch strategy                     ... SHARK/LIBINT Hybrid
RI-J (if used) integral strategy            ... SPLIT-RIJ (Revised 2003 algorithm where possible)
Printlevel                                  ...      1
Contraction scheme used                     ... SEGMENTED contraction
Prescreening option                         ... SCHWARTZ
   Thresh                                   ... 1.000e-10
   Tcut                                     ... 1.000e-11
   Tpresel                                  ... 1.000e-11 
Coulomb Range Separation                    ... NOT USED
Exchange Range Separation                   ... NOT USED
Multipole approximations                    ... NOT USED
Finite Nucleus Model                        ... NOT USED
CABS basis                                  ... NOT available
Auxiliary Coulomb fitting basis             ... AVAILABLE
   # of basis functions in Aux-J            ...    529
   # of shells in Aux-J                     ...    175
   Maximum angular momentum in Aux-J        ...      4
Auxiliary J/K fitting basis                 ... NOT available
Auxiliary Correlation fitting basis         ... NOT available
Auxiliary 'external' fitting basis          ... NOT available

Checking pre-screening integrals            ... done (  0.0 sec) Dimension = 107
Check shell pair data                       ... done (  0.0 sec)
Shell pair information
Shell pair cut-off parameter TPreSel        ...   1.0e-11
Total number of shell pairs                 ...      5778
Shell pairs after pre-screening             ...      5059
Total number of primitive shell pairs       ...     21132
Primitive shell pairs kept                  ...     13055
          la=0 lb=0:   1589 shell pairs
          la=1 lb=0:   1885 shell pairs
          la=1 lb=1:    573 shell pairs
          la=2 lb=0:    596 shell pairs
          la=2 lb=1:    354 shell pairs
          la=2 lb=2:     62 shell pairs

Calculating one electron integrals          ... done (  0.0 sec)
Calculating RI/J V-Matrix + Cholesky decomp.... done (  0.1 sec)
Calculating Nuclear repulsion               ... done (  0.0 sec) ENN=    427.045954975591 Eh

Diagonalization of the overlap matrix:
Smallest eigenvalue                        ... 2.893e-05
Time for diagonalization                   ...    0.005 sec
Threshold for overlap eigenvalues          ... 1.000e-07
Number of eigenvalues below threshold      ... 0
Time for construction of square roots      ...    0.015 sec
Total time needed                          ...    0.028 sec

-------------------
DFT GRID GENERATION
-------------------

General Integration Accuracy     IntAcc      ... 4.388
Radial Grid Type                 RadialGrid  ... OptM3 with GC (2021)
Angular Grid (max. ang.)         AngularGrid ... 4 (Lebedev-302)
Angular grid pruning method      GridPruning ... 4 (adaptive)
Weight generation scheme         WeightScheme... mBecke (2022)
Basis function cutoff            BFCut       ... 1.0000e-10
Integration weight cutoff        WCut        ... 1.0000e-14
Partially contracted basis set               ... off
Rotationally invariant grid construction     ... off
Angular grids for H and He will be reduced by one unit
Diffuse basis detected: some atoms will have their outermost
                        angular grid increased by 1.

Total number of grid points                  ...    80580
Total number of batches                      ...     1268
Average number of points per batch           ...       63
Average number of grid points per atom       ...     4740
Initializing property integral containers    ... done (  0.0 sec)

SHARK setup successfully completed in   1.1 seconds

Maximum memory used throughout the entire STARTUP-calculation: 36.8 MB
-------------------------------------------------------------------------------
                                 ORCA GUESS
                   Start orbitals & Density for SCF / CASSCF
-------------------------------------------------------------------------------

------------
SCF SETTINGS
------------
Hamiltonian:
 Density Functional     Method          .... DFT(GTOs)
  Functional kind                       .... Exchange
  Functional name                       .... Re-regularized SCAN exchange by Furness et al
  Functional family                     .... MGGA
  Functional refs                              
    [ 0] J. W. Furness, A. D. Kaplan, J. Ning, J. P. Perdew, and J. Sun.,  J. Phys. Chem. Lett. 11, 8208-8215 (2020), doi: 10.1021/acs.jpclett.0c02405
    [ 1] J. W. Furness, A. D. Kaplan, J. Ning, J. P. Perdew, and J. Sun.,  J. Phys. Chem. Lett. 11, 9248-9248 (2020), doi: 10.1021/acs.jpclett.0c03077
  Functional external parameters        .... 6
    Parameter  0 _c1        =  6.670000e-01 : c1 parameter        
    Parameter  1 _c2        =  8.000000e-01 : c2 parameter        
    Parameter  2 _d         =  1.240000e+00 : d parameter         
    Parameter  3 _k1        =  6.500000e-02 : k1 parameter        
    Parameter  4 _eta       =  1.000000e-03 : eta parameter       
    Parameter  5 _dp2       =  3.610000e-01 : dp2 parameter       
  Functional kind                       .... Correlation
  Functional name                       .... Re-regularized SCAN correlation by Furness et al
  Functional family                     .... MGGA
  Functional refs                              
    [ 0] J. W. Furness, A. D. Kaplan, J. Ning, J. P. Perdew, and J. Sun.,  J. Phys. Chem. Lett. 11, 8208-8215 (2020), doi: 10.1021/acs.jpclett.0c02405
    [ 1] J. W. Furness, A. D. Kaplan, J. Ning, J. P. Perdew, and J. Sun.,  J. Phys. Chem. Lett. 11, 9248-9248 (2020), doi: 10.1021/acs.jpclett.0c03077
  Functional external parameters        .... 1
    Parameter  0 _eta       =  1.000000e-03 : Regularization parameter
 Gradients option       PostSCFGGA      .... off
 RI-approximation to the Coulomb term is turned on
   Number of AuxJ basis functions       .... 529


General Settings:
 Integral files         IntName         .... sp_gas
 Hartree-Fock type      HFTyp           .... RHF
 Total Charge           Charge          ....    0
 Multiplicity           Mult            ....    1
 Number of Electrons    NEL             ....   66
 Basis Dimension        Dim             ....  221
 Nuclear Repulsion      ENuc            ....    427.0459549756 Eh

Convergence Acceleration:
 AO-DIIS                CNVDIIS         .... on
   Start iteration      DIISMaxIt       ....    12
   Startup error        DIISStart       ....  0.200000
   # of expansion vecs  DIISMaxEq       ....     5
   Bias factor          DIISBfac        ....   1.050
   Max. coefficient     DIISMaxC        ....  10.000
 MO-DIIS                CNVKDIIS        .... off
 Trust-Rad. Augm. Hess. CNVTRAH         .... auto
   Auto Start mean grad. ratio tolernc. ....  1.125000
   Auto Start start iteration           ....     1
   Auto Start num. interpolation iter.  ....    10
   Max. Number of Micro iterations      ....    24
   Max. Number of Macro iterations      .... Maxiter - #DIIS iter
   Number of Davidson start vectors     ....     2
   Converg. threshold    (grad. norm)   ....   3.330e-04
   Grad. Scal. Fac. for Micro threshold ....   0.100
   Minimum threshold for Micro iter.    ....   1.000e-02
   NR start threshold (gradient norm)   ....   1.000e-04
   Initial trust radius                 ....   0.400
   Minimum AH scaling param. (alpha)    ....   1.000
   Maximum AH scaling param. (alpha)    .... 1000.000
   Quad. conv. algorithm                .... NR
   White noise on init. David. guess    .... on
   Maximum white noise                  ....   0.010
   Pseudo random numbers                .... off
   Inactive MOs                         .... canonical
   Orbital update algorithm             .... Taylor
   Preconditioner                       .... Diag
   Full preconditioner red. dimension   ....   250
   COSX micro iterations for RIJONX calc.... off
 SOSCF                  CNVSOSCF        .... on
   Start iteration      SOSCFMaxIt      ....   150
   Startup grad/error   SOSCFStart      ....  0.003300
   Hessian update       SOSCFHessUp     .... L-BFGS
 Level Shifting         CNVShift        .... on
   Level shift para.    LevelShift      ....    0.2500
   Turn off err/grad.   ShiftErr        ....    0.0010
 Zerner damping         CNVZerner       .... off
 Static damping         CNVDamp         .... on
   Fraction old density DampFac         ....    0.7000
   Max. Damping (<1)    DampMax         ....    0.9800
   Min. Damping (>=0)   DampMin         ....    0.0000
   Turn off err/grad.   DampErr         ....    0.1000

SCF Procedure:
 Maximum # iterations   MaxIter         ....   125
 SCF integral mode      SCFMode         .... Direct
   Integral package                     .... SHARK and LIBINT hybrid scheme
 Reset frequency        DirectResetFreq ....    20
 Integral Threshold     Thresh          ....  1.000e-10 Eh
 Primitive CutOff       TCut            ....  1.000e-11 Eh

Convergence Tolerance:
 Convergence Check Mode ConvCheckMode   .... Total+1el-Energy
 Convergence forced     ConvForced      .... 0
 Energy Change          TolE            ....  1.000e-06 Eh
 1-El. energy change                    ....  1.000e-03 Eh
 Orbital Gradient       TolG            ....  3.330e-04
 Orbital Rotation angle TolX            ....  3.330e-04
 DIIS Error             TolErr          ....  1.000e-06

---------------------
INITIAL GUESS: MOREAD
---------------------
Guess MOs are being read from file: sp_gas.ges
Input Geometry matches current geometry (good)
Atom 0: N(Shells)= 9 and 6 - projection required
Input basis set needs projection
NBasis(read)= 142
NBasis(calc)= 221
Basis set overlap was calculated
Using GuessMode=FMatrix for the initial guess
C*T matrix was formed
Effective Fockian was calculated
Effective Fockian was diagonalized
Initial density was built
                      ------------------
                      INITIAL GUESS DONE (   0.0 sec)
                      ------------------
             **** ENERGY FILE WAS UPDATED (sp_gas.en.tmp) ****
Finished Guess after   0.2 sec
Maximum memory used throughout the entire GUESS-calculation: 15.3 MB

-------------------------------------------------------------------------------------------
                                      ORCA LEAN-SCF
                              memory conserving SCF solver
-------------------------------------------------------------------------------------------

----------------------------------------D-I-I-S--------------------------------------------
Iteration    Energy (Eh)           Delta-E    RMSDP     MaxDP     DIISErr   Damp  Time(sec)
-------------------------------------------------------------------------------------------
               ***  Starting incremental Fock matrix formation  ***
    1    -421.6994015179686812     0.00e+00  1.17e-02  4.02e-01  6.23e-01  0.700   2.3
    2    -421.7606916045608614    -6.13e-02  8.86e-03  2.90e-01  4.38e-01  0.700   2.1
    3    -421.8039642038866077    -4.33e-02  6.31e-03  2.03e-01  3.07e-01  0.700   2.0
    4    -421.8343337307826459    -3.04e-02  4.45e-03  1.42e-01  2.15e-01  0.700   2.0
                               ***Turning on AO-DIIS***
    5    -421.8556325611976945    -2.13e-02  3.14e-03  9.89e-02  1.50e-01  0.700   2.2
    6    -421.8705603427744109    -1.49e-02  2.20e-03  6.92e-02  1.05e-01  0.700   1.9
    7    -421.8810253989782950    -1.05e-02  1.54e-03  4.84e-02  7.37e-02  0.700   1.9
    8    -421.8883576454982176    -7.33e-03  3.59e-03  1.13e-01  5.16e-02  0.000   1.9
                              *** Initializing SOSCF ***
---------------------------------------S-O-S-C-F--------------------------------------
Iteration    Energy (Eh)           Delta-E    RMSDP     MaxDP     MaxGrad    Time(sec)
--------------------------------------------------------------------------------------
    9    -421.9054882064635876    -1.71e-02  7.81e-06  1.71e-04  1.62e-04     2.0
               *** Restarting incremental Fock matrix formation ***
   10    -421.9054883798681885    -1.73e-07  1.11e-05  5.91e-04  3.54e-05     2.3
                  *** Gradient check signals convergence ***

               *****************************************************
               *                     SUCCESS                       *
               *           SCF CONVERGED AFTER  10 CYCLES          *
               *****************************************************

             **** ENERGY FILE WAS UPDATED (sp_gas.en.tmp) ****

----------------
TOTAL SCF ENERGY
----------------

Total Energy       :       -421.90548837986819 Eh          -11480.63200 eV

Components:
Nuclear Repulsion  :        427.04595497559148 Eh           11620.51121 eV
Electronic Energy  :       -848.95144335545967 Eh          -23101.14321 eV
One Electron Energy:      -1419.32265276722978 Eh          -38621.73287 eV
Two Electron Energy:        570.37120941177011 Eh           15520.58966 eV

Virial components:
Potential Energy   :       -842.13935676218989 Eh          -22915.77691 eV
Kinetic Energy     :        420.23386838232176 Eh           11435.14491 eV
Virial Ratio       :          2.00397783263872

DFT components:
N(Alpha)           :       33.000000771332 electrons
N(Beta)            :       33.000000771332 electrons
N(Total)           :       66.000001542663 electrons
E(X)               :      -55.887222770508 Eh       
E(C)               :       -2.150670069148 Eh       
E(XC)              :      -58.037892839656 Eh       

---------------
SCF CONVERGENCE
---------------

  Last Energy change         ...    1.7340e-07  Tolerance :   1.0000e-06
  Last MAX-Density change    ...    5.9137e-04  Tolerance :   1.0000e-05
  Last RMS-Density change    ...    1.1068e-05  Tolerance :   1.0000e-06
  Last DIIS Error            ...    1.6234e-04  Tolerance :   1.0000e-06
  Last Orbital Gradient      ...    3.5363e-05  Tolerance :   3.3300e-04
  Last Orbital Rotation      ...    1.8275e-04  Tolerance :   3.3300e-04


----------------
ORBITAL ENERGIES
----------------

  NO   OCC          E(Eh)            E(eV) 
   0   2.0000     -18.984356      -516.5906 
   1   2.0000     -18.984124      -516.5843 
   2   2.0000     -10.096583      -274.7420 
   3   2.0000     -10.095109      -274.7019 
   4   2.0000     -10.085830      -274.4494 
   5   2.0000     -10.038140      -273.1517 
   6   2.0000     -10.027551      -272.8635 
   7   2.0000     -10.026120      -272.8246 
   8   2.0000     -10.022525      -272.7268 
   9   2.0000      -1.031688       -28.0737 
  10   2.0000      -1.028059       -27.9749 
  11   2.0000      -0.818947       -22.2847 
  12   2.0000      -0.728026       -19.8106 
  13   2.0000      -0.709265       -19.3001 
  14   2.0000      -0.666439       -18.1347 
  15   2.0000      -0.583069       -15.8661 
  16   2.0000      -0.579013       -15.7557 
  17   2.0000      -0.520737       -14.1700 
  18   2.0000      -0.472160       -12.8481 
  19   2.0000      -0.459704       -12.5092 
  20   2.0000      -0.451116       -12.2755 
  21   2.0000      -0.437038       -11.8924 
  22   2.0000      -0.404147       -10.9974 
  23   2.0000      -0.389563       -10.6006 
  24   2.0000      -0.381309       -10.3760 
  25   2.0000      -0.362949        -9.8763 
  26   2.0000      -0.344139        -9.3645 
  27   2.0000      -0.331177        -9.0118 
  28   2.0000      -0.324142        -8.8204 
  29   2.0000      -0.296719        -8.0741 
  30   2.0000      -0.283626        -7.7179 
  31   2.0000      -0.211048        -5.7429 
  32   2.0000      -0.199617        -5.4319 
  33   0.0000      -0.026224        -0.7136 
  34   0.0000      -0.006084        -0.1656 
  35   0.0000       0.055989         1.5235 
  36   0.0000       0.069256         1.8845 
  37   0.0000       0.086374         2.3504 
  38   0.0000       0.101117         2.7515 
  39   0.0000       0.133797         3.6408 
  40   0.0000       0.134844         3.6693 
  41   0.0000       0.134894         3.6707 
  42   0.0000       0.143481         3.9043 
  43   0.0000       0.165263         4.4970 
*Only the first 10 virtual orbitals were printed.

                    ********************************
                    * MULLIKEN POPULATION ANALYSIS *
                    ********************************

-----------------------
MULLIKEN ATOMIC CHARGES
-----------------------
   0 C :   -0.332051
   1 O :   -0.189741
   2 C :    0.376131
   3 C :   -0.311087
   4 C :   -0.137974
   5 C :   -0.354749
   6 C :    0.465648
   7 C :   -0.474269
   8 O :   -0.412847
   9 H :    0.152996
  10 H :    0.152966
  11 H :    0.154355
  12 H :    0.147823
  13 H :    0.146115
  14 H :    0.137348
  15 H :    0.167704
  16 H :    0.311631
Sum of atomic charges:   -0.0000000

--------------------------------
MULLIKEN REDUCED ORBITAL CHARGES
--------------------------------
  0 C s       :     3.341754  s :     3.341754
      pz      :     1.088733  p :     2.943677
      px      :     0.877722
      py      :     0.977221
      dz2     :     0.006982  d :     0.046621
      dxz     :     0.005327
      dyz     :     0.012255
      dx2y2   :     0.008041
      dxy     :     0.014016

  1 O s       :     3.717943  s :     3.717943
      pz      :     1.809441  p :     4.440970
      px      :     1.047565
      py      :     1.583964
      dz2     :     0.003724  d :     0.030827
      dxz     :     0.000265
      dyz     :     0.006047
      dx2y2   :     0.006463
      dxy     :     0.014327

  2 C s       :     3.073513  s :     3.073513
      pz      :     0.952854  p :     2.477027
      px      :     0.744577
      py      :     0.779596
      dz2     :     0.004816  d :     0.073330
      dxz     :     0.014781
      dyz     :     0.009780
      dx2y2   :     0.020674
      dxy     :     0.023279

  3 C s       :     3.199883  s :     3.199883
      pz      :     1.111037  p :     3.075807
      px      :     1.007529
      py      :     0.957242
      dz2     :     0.003457  d :     0.035397
      dxz     :     0.004194
      dyz     :     0.004422
      dx2y2   :     0.011459
      dxy     :     0.011864

  4 C s       :     3.172333  s :     3.172333
      pz      :     0.973255  p :     2.926305
      px      :     0.942755
      py      :     1.010294
      dz2     :     0.003353  d :     0.039336
      dxz     :     0.008888
      dyz     :     0.002537
      dx2y2   :     0.012812
      dxy     :     0.011746

  5 C s       :     3.204230  s :     3.204230
      pz      :     1.104778  p :     3.115007
      px      :     1.080399
      py      :     0.929830
      dz2     :     0.003468  d :     0.035512
      dxz     :     0.002721
      dyz     :     0.005902
      dx2y2   :     0.013456
      dxy     :     0.009965

  6 C s       :     3.053958  s :     3.053958
      pz      :     0.946370  p :     2.405675
      px      :     0.773875
      py      :     0.685430
      dz2     :     0.004904  d :     0.074719
      dxz     :     0.012921
      dyz     :     0.012393
      dx2y2   :     0.021403
      dxy     :     0.023099

  7 C s       :     3.290316  s :     3.290316
      pz      :     1.077364  p :     3.150962
      px      :     1.000403
      py      :     1.073195
      dz2     :     0.003561  d :     0.032991
      dxz     :     0.005833
      dyz     :     0.002632
      dx2y2   :     0.010266
      dxy     :     0.010700

  8 O s       :     3.754476  s :     3.754476
      pz      :     1.847226  p :     4.624232
      px      :     1.200321
      py      :     1.576686
      dz2     :     0.004422  d :     0.034138
      dxz     :     0.002783
      dyz     :     0.005895
      dx2y2   :     0.009340
      dxy     :     0.011698

  9 H s       :     0.829512  s :     0.829512
      pz      :     0.008860  p :     0.017492
      px      :     0.002634
      py      :     0.005998

 10 H s       :     0.829541  s :     0.829541
      pz      :     0.008856  p :     0.017492
      px      :     0.002635
      py      :     0.006002

 11 H s       :     0.828104  s :     0.828104
      pz      :     0.003698  p :     0.017541
      px      :     0.008273
      py      :     0.005570

 12 H s       :     0.831686  s :     0.831686
      pz      :     0.005056  p :     0.020490
      px      :     0.007988
      py      :     0.007446

 13 H s       :     0.834311  s :     0.834311
      pz      :     0.004197  p :     0.019574
      px      :     0.003597
      py      :     0.011780

 14 H s       :     0.842618  s :     0.842618
      pz      :     0.004956  p :     0.020034
      px      :     0.010975
      py      :     0.004103

 15 H s       :     0.812359  s :     0.812359
      pz      :     0.004596  p :     0.019937
      px      :     0.003339
      py      :     0.012002

 16 H s       :     0.645905  s :     0.645905
      pz      :     0.012037  p :     0.042465
      px      :     0.019711
      py      :     0.010716


------------------------
MULLIKEN OVERLAP CHARGES
------------------------
B(  0-C ,  1-O ) :   0.3868 B(  0-C ,  2-C ) :  -0.2853 B(  0-C ,  9-H ) :   0.8285 
B(  0-C , 10-H ) :   0.8285 B(  0-C , 11-H ) :   0.7749 B(  1-O ,  2-C ) :   0.5427 
B(  1-O ,  3-C ) :  -0.1354 B(  1-O ,  7-C ) :  -0.1026 B(  1-O ,  9-H ) :  -0.0830 
B(  1-O , 10-H ) :  -0.0830 B(  1-O , 11-H ) :  -0.0843 B(  2-C ,  3-C ) :   1.0743 
B(  2-C ,  4-C ) :  -0.1984 B(  2-C ,  5-C ) :  -0.0632 B(  2-C ,  7-C ) :   0.7732 
B(  2-C , 12-H ) :  -0.0560 B(  3-C ,  4-C ) :   0.9630 B(  3-C ,  5-C ) :  -0.2451 
B(  3-C ,  7-C ) :  -0.3826 B(  3-C , 12-H ) :   0.7588 B(  4-C ,  5-C ) :   0.7065 
B(  4-C ,  6-C ) :  -0.1218 B(  4-C , 13-H ) :   0.7767 B(  5-C ,  6-C ) :   0.8154 
B(  5-C ,  7-C ) :  -0.1498 B(  5-C ,  8-O ) :  -0.1491 B(  5-C , 14-H ) :   0.7552 
B(  6-C ,  7-C ) :   0.5491 B(  6-C ,  8-O ) :   0.4038 B(  6-C , 14-H ) :  -0.0821 
B(  6-C , 15-H ) :  -0.0602 B(  6-C , 16-H ) :  -0.1107 B(  7-C , 15-H ) :   0.8085 
B(  8-O , 16-H ) :   0.6008 B(  9-H , 10-H ) :  -0.0804 


                     *******************************
                     * LOEWDIN POPULATION ANALYSIS *
                     *******************************

----------------------
LOEWDIN ATOMIC CHARGES
----------------------
   0 C :   -0.055661
   1 O :   -0.681077
   2 C :    0.198083
   3 C :   -0.199813
   4 C :   -0.142218
   5 C :   -0.197276
   6 C :    0.188631
   7 C :   -0.113665
   8 O :   -0.494672
   9 H :    0.164777
  10 H :    0.164766
  11 H :    0.180116
  12 H :    0.174037
  13 H :    0.168426
  14 H :    0.167563
  15 H :    0.192987
  16 H :    0.284995

-------------------------------
LOEWDIN REDUCED ORBITAL CHARGES
-------------------------------
  0 C s       :     2.902885  s :     2.902885
      pz      :     1.103597  p :     3.041830
      px      :     0.927287
      py      :     1.010947
      dz2     :     0.016601  d :     0.110946
      dxz     :     0.010036
      dyz     :     0.031412
      dx2y2   :     0.018426
      dxy     :     0.034471

  1 O s       :     3.471428  s :     3.471428
      pz      :     1.791756  p :     4.726474
      px      :     1.305160
      py      :     1.629558
      dz2     :     0.049007  d :     0.483174
      dxz     :     0.097647
      dyz     :     0.049663
      dx2y2   :     0.146252
      dxy     :     0.140605

  2 C s       :     2.777937  s :     2.777937
      pz      :     0.895719  p :     2.864203
      px      :     0.903986
      py      :     1.064499
      dz2     :     0.010728  d :     0.159777
      dxz     :     0.028874
      dyz     :     0.017060
      dx2y2   :     0.047424
      dxy     :     0.055690

  3 C s       :     2.886882  s :     2.886882
      pz      :     1.084272  p :     3.235378
      px      :     1.091909
      py      :     1.059197
      dz2     :     0.005812  d :     0.077553
      dxz     :     0.007152
      dyz     :     0.007658
      dx2y2   :     0.027253
      dxy     :     0.029677

  4 C s       :     2.898578  s :     2.898578
      pz      :     0.963183  p :     3.158099
      px      :     1.094993
      py      :     1.099923
      dz2     :     0.005579  d :     0.085541
      dxz     :     0.016838
      dyz     :     0.003937
      dx2y2   :     0.031230
      dxy     :     0.027958

  5 C s       :     2.892247  s :     2.892247
      pz      :     1.079640  p :     3.226830
      px      :     1.098764
      py      :     1.048426
      dz2     :     0.005894  d :     0.078198
      dxz     :     0.004273
      dyz     :     0.010599
      dx2y2   :     0.031688
      dxy     :     0.025744

  6 C s       :     2.783254  s :     2.783254
      pz      :     0.894250  p :     2.866054
      px      :     0.973553
      py      :     0.998251
      dz2     :     0.010838  d :     0.162062
      dxz     :     0.024777
      dyz     :     0.022707
      dx2y2   :     0.050531
      dxy     :     0.053209

  7 C s       :     2.878357  s :     2.878357
      pz      :     1.057787  p :     3.163608
      px      :     1.015317
      py      :     1.090504
      dz2     :     0.005752  d :     0.071700
      dxz     :     0.009988
      dyz     :     0.004146
      dx2y2   :     0.025554
      dxy     :     0.026261

  8 O s       :     3.485976  s :     3.485976
      pz      :     1.811427  p :     4.747067
      px      :     1.316558
      py      :     1.619082
      dz2     :     0.031764  d :     0.261629
      dxz     :     0.036844
      dyz     :     0.034238
      dx2y2   :     0.087575
      dxy     :     0.071207

  9 H s       :     0.794314  s :     0.794314
      pz      :     0.021551  p :     0.040908
      px      :     0.005967
      py      :     0.013390

 10 H s       :     0.794328  s :     0.794328
      pz      :     0.021540  p :     0.040907
      px      :     0.005967
      py      :     0.013399

 11 H s       :     0.780422  s :     0.780422
      pz      :     0.007602  p :     0.039463
      px      :     0.017630
      py      :     0.014230

 12 H s       :     0.779145  s :     0.779145
      pz      :     0.011431  p :     0.046817
      px      :     0.018260
      py      :     0.017126

 13 H s       :     0.787326  s :     0.787326
      pz      :     0.008864  p :     0.044248
      px      :     0.007916
      py      :     0.027468

 14 H s       :     0.787042  s :     0.787042
      pz      :     0.011088  p :     0.045395
      px      :     0.025299
      py      :     0.009008

 15 H s       :     0.761375  s :     0.761375
      pz      :     0.010371  p :     0.045638
      px      :     0.007041
      py      :     0.028226

 16 H s       :     0.595224  s :     0.595224
      pz      :     0.030426  p :     0.119781
      px      :     0.057541
      py      :     0.031814


---------------------------------
LOEWDIN BOND ORDERS (THRESH 0.050000)
---------------------------------
B(  0-C ,  1-O ) :   1.3999 B(  0-C ,  2-C ) :   0.0795 B(  0-C ,  9-H ) :   0.8603 
B(  0-C , 10-H ) :   0.8603 B(  0-C , 11-H ) :   0.8604 B(  1-O ,  2-C ) :   1.4554 
B(  1-O ,  3-C ) :   0.2029 B(  1-O ,  7-C ) :   0.2303 B(  1-O ,  9-H ) :   0.1037 
B(  1-O , 10-H ) :   0.1037 B(  1-O , 11-H ) :   0.1022 B(  2-C ,  3-C ) :   1.3101 
B(  2-C ,  4-C ) :   0.0943 B(  2-C ,  5-C ) :   0.0980 B(  2-C ,  6-C ) :   0.0964 
B(  2-C ,  7-C ) :   1.3067 B(  2-C , 12-H ) :   0.0521 B(  2-C , 15-H ) :   0.0525 
B(  3-C ,  4-C ) :   1.4912 B(  3-C ,  5-C ) :   0.0983 B(  3-C ,  6-C ) :   0.0966 
B(  3-C ,  7-C ) :   0.0841 B(  3-C , 12-H ) :   0.8590 B(  3-C , 13-H ) :   0.0548 
B(  4-C ,  5-C ) :   1.5169 B(  4-C ,  6-C ) :   0.0946 B(  4-C ,  7-C ) :   0.1206 
B(  4-C , 12-H ) :   0.0538 B(  4-C , 13-H ) :   0.8702 B(  4-C , 14-H ) :   0.0545 
B(  5-C ,  6-C ) :   1.3037 B(  5-C ,  7-C ) :   0.0860 B(  5-C ,  8-O ) :   0.2150 
B(  5-C , 13-H ) :   0.0555 B(  5-C , 14-H ) :   0.8668 B(  6-C ,  7-C ) :   1.3381 
B(  6-C ,  8-O ) :   1.4933 B(  6-C , 14-H ) :   0.0551 B(  6-C , 15-H ) :   0.0533 
B(  7-C ,  8-O ) :   0.2344 B(  7-C , 15-H ) :   0.8469 B(  8-O , 16-H ) :   0.9449 


------------------------------------------
LOEWDIN REDUCED ORBITAL POPULATIONS PER MO
-------------------------------------------
THRESHOLD FOR PRINTING IS 0.1%%
                      0         1         2         3         4         5   
                 -18.98436 -18.98412 -10.09658 -10.09511 -10.08583 -10.03814
                   2.00000   2.00000   2.00000   2.00000   2.00000   2.00000
                  --------  --------  --------  --------  --------  --------
 0 C  s               0.0       0.0       0.0       0.0      99.4       0.0
 1 O  s               0.0      99.9       0.0       0.0       0.0       0.0
 1 O  px              0.0       0.0       0.0       0.1       0.1       0.0
 1 O  dx2y2           0.0       0.0       0.0       0.1       0.0       0.0
 1 O  dxy             0.0       0.0       0.0       0.1       0.2       0.0
 2 C  s               0.0       0.0       0.0      99.2       0.0       0.0
 3 C  px              0.0       0.0       0.0       0.0       0.0       0.1
 3 C  py              0.0       0.0       0.0       0.1       0.0       0.0
 4 C  s               0.0       0.0       0.0       0.0       0.0      99.5
 5 C  py              0.0       0.0       0.1       0.0       0.0       0.1
 6 C  s               0.0       0.0      99.2       0.0       0.0       0.0
 7 C  px              0.0       0.0       0.1       0.1       0.0       0.0
 8 O  s              99.9       0.0       0.0       0.0       0.0       0.0
 8 O  dxy             0.0       0.0       0.2       0.0       0.0       0.0

                      6         7         8         9        10        11   
                 -10.02755 -10.02612 -10.02253  -1.03169  -1.02806  -0.81895
                   2.00000   2.00000   2.00000   2.00000   2.00000   2.00000
                  --------  --------  --------  --------  --------  --------
 0 C  s               0.0       0.0       0.0       6.6       0.5       0.9
 0 C  px              0.0       0.0       0.0       4.6       0.3       0.2
 0 C  py              0.0       0.0       0.0       2.2       0.2       0.2
 0 C  dz2             0.0       0.0       0.0       0.2       0.0       0.0
 0 C  dxy             0.0       0.0       0.0       0.5       0.0       0.0
 1 O  s               0.0       0.0       0.0      53.2       3.9       1.2
 1 O  px              0.0       0.0       0.0       0.2       0.0       2.4
 1 O  py              0.0       0.0       0.0       2.2       0.2       0.0
 1 O  dz2             0.0       0.0       0.0       0.3       0.0       0.1
 1 O  dx2y2           0.0       0.0       0.0       0.1       0.0       0.2
 1 O  dxy             0.0       0.0       0.0       0.0       0.0       0.4
 2 C  s               0.0       0.0       0.0       8.6       0.3       8.4
 2 C  px              0.0       0.0       0.1       6.9       1.0       5.1
 2 C  py              0.0       0.1       0.1       0.9       0.0       0.5
 2 C  dz2             0.0       0.0       0.0       0.3       0.0       0.1
 2 C  dx2y2           0.0       0.0       0.0       0.3       0.0       0.0
 2 C  dxy             0.0       0.0       0.0       0.2       0.0       0.0
 3 C  s               0.0      99.5       0.0       0.7       0.0      11.7
 3 C  px              0.0       0.0       0.0       0.2       0.1       2.2
 3 C  py              0.0       0.0       0.0       1.1       0.0       0.8
 3 C  dz2             0.0       0.0       0.0       0.0       0.0       0.1
 4 C  s               0.1       0.1       0.0       0.1       0.0      13.0
 4 C  px              0.1       0.1       0.0       0.0       0.1       0.1
 4 C  py              0.1       0.0       0.0       0.1       0.1       2.5
 4 C  dz2             0.0       0.0       0.0       0.0       0.0       0.1
 5 C  s              99.5       0.0       0.0       0.2       0.8      11.2
 5 C  px              0.0       0.0       0.0       0.0       0.0       2.9
 5 C  py              0.0       0.0       0.0       0.1       1.5       0.0
 5 C  dz2             0.0       0.0       0.0       0.0       0.0       0.1
 6 C  s               0.0       0.0       0.0       1.1       9.0       7.1
 6 C  px              0.0       0.0       0.1       0.2       5.3       3.3
 6 C  py              0.1       0.0       0.0       0.3       3.8       2.9
 6 C  dz2             0.0       0.0       0.0       0.0       0.3       0.1
 6 C  dxy             0.0       0.0       0.0       0.0       0.6       0.1
 7 C  s               0.0       0.0      99.6       1.1       0.4      10.0
 7 C  px              0.0       0.0       0.0       0.5       2.3       0.1
 7 C  py              0.0       0.0       0.0       0.3       0.0       2.6
 7 C  dz2             0.0       0.0       0.0       0.0       0.0       0.1
 8 O  s               0.0       0.0       0.0       4.0      54.9       1.6
 8 O  px              0.0       0.0       0.0       0.0       0.0       1.1
 8 O  py              0.0       0.0       0.0       0.2       2.6       0.3
 8 O  dz2             0.0       0.0       0.0       0.0       0.2       0.2
 8 O  dxy             0.0       0.0       0.0       0.0       0.1       0.4
 9 H  s               0.0       0.0       0.0       0.4       0.0       0.1
10 H  s               0.0       0.0       0.0       0.4       0.0       0.1
11 H  s               0.0       0.0       0.0       0.4       0.0       0.2
12 H  s               0.0       0.0       0.0       0.0       0.0       1.0
13 H  s               0.0       0.0       0.0       0.0       0.0       1.2
14 H  s               0.0       0.0       0.0       0.0       0.1       1.0
15 H  s               0.0       0.0       0.0       0.1       0.0       0.9
16 H  s               0.0       0.0       0.0       0.7       8.9       0.5
16 H  px              0.0       0.0       0.0       0.1       1.8       0.1
16 H  py              0.0       0.0       0.0       0.0       0.2       0.0

                     12        13        14        15        16        17   
                  -0.72803  -0.70927  -0.66644  -0.58307  -0.57901  -0.52074
                   2.00000   2.00000   2.00000   2.00000   2.00000   2.00000
                  --------  --------  --------  --------  --------  --------
 0 C  s               9.1       1.6      19.5       3.0       0.6       2.3
 0 C  px              0.2       0.2       1.0       1.3       0.8       2.6
 0 C  py              0.2       0.2       0.6       1.8       0.2      10.7
 0 C  dz2             0.0       0.0       0.0       0.0       0.0       0.2
 0 C  dxy             0.0       0.0       0.0       0.1       0.0       0.3
 1 O  s               0.1       0.2       3.8       2.3       0.1       2.2
 1 O  px             12.7       2.7       7.9       1.1       0.2      16.7
 1 O  py              0.5       0.1       2.0       0.7       1.7       1.0
 1 O  dz2             0.0       0.0       0.8       0.4       0.0       0.2
 1 O  dx2y2           0.4       0.0       0.1       0.3       0.8       0.0
 1 O  dxy             0.9       1.0       0.8       0.0       1.1       0.3
 2 C  s               8.0       3.2       0.6       4.2       0.2       1.3
 2 C  px              0.7       0.3       5.0       1.0       2.2       4.6
 2 C  py              3.8       6.8       2.7       0.0      12.1       1.0
 2 C  dx2y2           0.0       0.2       0.1       0.0       0.0       0.0
 2 C  dxy             0.0       0.1       0.2       0.1       0.1       0.0
 3 C  s               0.6      16.7       3.8       1.2       3.7       0.3
 3 C  px              2.2       0.1       1.0       1.5       6.5       1.7
 3 C  py              3.0       0.2       0.4       6.6       1.1       0.2
 3 C  dz2             0.0       0.1       0.0       0.0       0.0       0.0
 3 C  dx2y2           0.2       0.0       0.0       0.2       0.1       0.0
 4 C  s              11.9       3.8       1.3       3.9       7.6       0.7
 4 C  px              0.8       6.5       5.2       3.2       1.5       3.1
 4 C  py              0.3       0.4       0.1       2.8       1.6       2.7
 4 C  dxy             0.1       0.1       0.1       0.0       0.0       0.0
 5 C  s              10.1       4.3       8.0       4.1       0.3       0.7
 5 C  px              0.5       0.3       0.3       1.7       1.6       2.5
 5 C  py              1.5       4.4       0.5       0.4       9.5       3.9
 5 C  dxy             0.1       0.1       0.0       0.0       0.1       0.1
 6 C  s               0.0      12.5       0.1       1.4       4.2       0.1
 6 C  px              3.0       1.8       2.8       0.5       3.7       3.7
 6 C  py              4.3       0.7       3.8      10.7       1.4       3.5
 6 C  dx2y2           0.2       0.0       0.1       0.0       0.1       0.1
 6 C  dxy             0.0       0.2       0.0       0.1       0.0       0.1
 7 C  s               9.9       5.5       3.7       0.0       7.4       0.1
 7 C  px              1.6       5.0       0.4       5.7       2.6       1.5
 7 C  py              0.3       0.2       0.1       2.8       1.2       2.3
 7 C  dxy             0.1       0.1       0.0       0.1       0.0       0.1
 8 O  s               0.0       2.6       0.0       0.0       1.1       0.0
 8 O  px              0.2       5.8       0.7      20.0       6.4      12.8
 8 O  py              0.1       1.0       0.1       0.0       3.0       0.2
 8 O  dz2             0.0       0.3       0.0       0.0       0.0       0.0
 8 O  dx2y2           0.3       0.0       0.3       0.2       0.6       0.1
 8 O  dxy             0.0       1.1       0.0       0.4       0.5       0.1
 9 H  s               1.6       0.2       5.2       1.6       0.1       3.5
 9 H  pz              0.1       0.0       0.3       0.1       0.0       0.2
 9 H  py              0.1       0.0       0.1       0.0       0.0       0.0
10 H  s               1.6       0.2       5.2       1.6       0.1       3.5
10 H  pz              0.1       0.0       0.3       0.1       0.0       0.2
10 H  py              0.1       0.0       0.1       0.0       0.0       0.0
11 H  s               2.1       0.5       5.3       1.0       0.7       0.4
11 H  px              0.2       0.0       0.2       0.0       0.0       0.0
11 H  py              0.0       0.0       0.2       0.1       0.0       0.1
12 H  s               0.2       3.1       1.1       0.7       2.1       0.2
12 H  px              0.0       0.1       0.0       0.1       0.0       0.0
12 H  py              0.0       0.1       0.0       0.0       0.1       0.0
13 H  s               2.0       0.7       0.4       2.3       4.1       1.9
13 H  py              0.2       0.1       0.0       0.1       0.3       0.1
14 H  s               1.7       0.7       2.2       2.3       0.1       2.1
14 H  px              0.1       0.0       0.2       0.1       0.0       0.1
15 H  s               1.8       0.9       0.5       0.3       3.7       0.4
15 H  py              0.2       0.1       0.0       0.0       0.3       0.0
16 H  s               0.0       1.9       0.1       4.9       1.7       3.2
16 H  px              0.0       0.2       0.0       0.2       0.1       0.1
16 H  py              0.0       0.1       0.0       0.1       0.2       0.1

                     18        19        20        21        22        23   
                  -0.47216  -0.45970  -0.45112  -0.43704  -0.40415  -0.38956
                   2.00000   2.00000   2.00000   2.00000   2.00000   2.00000
                  --------  --------  --------  --------  --------  --------
 0 C  s               0.1       0.6       0.0       0.0       0.1       0.2
 0 C  pz              0.0       0.0       0.0      37.8       0.0       0.0
 0 C  px              0.1       6.9       3.3       0.0       5.8      12.7
 0 C  py              0.6       1.0      11.6       0.0       0.2       5.0
 0 C  dyz             0.0       0.0       0.0       0.1       0.0       0.0
 0 C  dxy             0.0       0.1       0.0       0.0       0.1       0.2
 1 O  s               0.1       0.2       0.4       0.0       0.5       0.3
 1 O  pz              0.0       0.0       0.0      27.9       0.0       0.0
 1 O  px              0.6       7.2       5.4       0.0       2.1       1.5
 1 O  py              1.2       4.0       8.7       0.0       6.6       4.9
 1 O  dz2             0.0       0.0       0.1       0.0       0.0       0.0
 1 O  dxz             0.0       0.0       0.0       0.3       0.0       0.0
 1 O  dyz             0.0       0.0       0.0       1.5       0.0       0.0
 1 O  dx2y2           0.0       0.4       2.1       0.0       0.0       0.5
 1 O  dxy             0.4       0.3       0.1       0.0       0.0       0.9
 2 C  s               1.9       0.1       0.8       0.0       1.2       0.2
 2 C  pz              0.0       0.0       0.0       7.8       0.0       0.0
 2 C  px              0.9       0.1       6.9       0.0       2.3       0.4
 2 C  py              3.4       5.0       0.5       0.0       0.0       0.4
 2 C  dxz             0.0       0.0       0.0       0.1       0.0       0.0
 2 C  dx2y2           0.0       0.1       0.3       0.0       0.1       0.0
 2 C  dxy             0.0       0.3       0.0       0.0       0.3       0.0
 3 C  s               2.3       0.5       0.8       0.0       1.6       0.1
 3 C  pz              0.0       0.0       0.0       1.7       0.0       0.0
 3 C  px              2.2      10.0       0.5       0.0       0.2       8.1
 3 C  py             20.6       0.7       0.2       0.0       0.6       0.3
 3 C  dx2y2           0.1       0.1       0.1       0.0       0.2       0.2
 3 C  dxy             0.0       0.0       0.0       0.0       0.1       0.0
 4 C  s               0.4       0.8       0.3       0.0       0.6       0.3
 4 C  pz              0.0       0.0       0.0       0.3       0.0       0.0
 4 C  px              5.9       6.1       1.1       0.0       0.3       3.1
 4 C  py              4.4       0.2       0.1       0.0      25.2       6.5
 4 C  dx2y2           0.0       0.0       0.1       0.0       0.3       0.1
 4 C  dxy             0.0       0.0       0.1       0.0       0.2       0.0
 5 C  s               0.1       2.1       0.2       0.0       1.9       0.0
 5 C  pz              0.0       0.0       0.0       0.2       0.0       0.0
 5 C  px              4.4       7.9       9.5       0.0       2.0       0.3
 5 C  py              6.6       8.0       0.1       0.0       0.8       0.3
 5 C  dx2y2           0.0       0.1       0.0       0.0       0.2       0.0
 5 C  dxy             0.2       0.0       0.0       0.0       0.0       0.1
 6 C  s               0.8       1.2       0.7       0.0       0.6       0.6
 6 C  pz              0.0       0.0       0.0       0.4       0.0       0.0
 6 C  px              0.1       1.6      10.4       0.0       0.3       6.7
 6 C  py              3.4       2.1       0.5       0.0       0.1       0.1
 6 C  dx2y2           0.0       0.0       0.0       0.0       0.4       0.1
 6 C  dxy             0.6       0.2       0.1       0.0       0.0       0.0
 7 C  s               2.1       2.8       0.0       0.0       0.2       0.3
 7 C  pz              0.0       0.0       0.0       1.4       0.0       0.0
 7 C  px              0.0       0.6      11.3       0.0       0.1       6.7
 7 C  py              4.1       5.0       0.0       0.0       8.5       8.1
 7 C  dx2y2           0.0       0.1       0.1       0.0       0.0       0.3
 7 C  dxy             0.1       0.0       0.4       0.0       0.1       0.0
 8 O  s               1.7       0.1       0.2       0.0       1.4       0.4
 8 O  pz              0.0       0.0       0.0       0.2       0.0       0.0
 8 O  px              8.4       0.3       5.2       0.0       0.3       0.3
 8 O  py              2.9       2.7       3.4       0.0      10.5       4.8
 8 O  dz2             0.3       0.0       0.0       0.0       0.0       0.0
 8 O  dx2y2           0.0       0.3       0.7       0.0       0.0       0.1
 8 O  dxy             0.0       0.2       0.1       0.0       0.0       0.2
 9 H  s               0.1       0.6       1.4       9.6       0.0       0.7
 9 H  py              0.0       0.0       0.0       0.3       0.0       0.0
10 H  s               0.1       0.6       1.4       9.6       0.0       0.7
10 H  py              0.0       0.0       0.0       0.3       0.0       0.0
11 H  s               0.0       1.9       4.1       0.0       2.4       9.2
11 H  pz              0.0       0.0       0.0       0.2       0.0       0.0
11 H  px              0.0       0.0       0.1       0.0       0.0       0.1
11 H  py              0.0       0.1       0.0       0.0       0.0       0.1
12 H  s              10.6       2.0       0.0       0.0       1.5       2.4
12 H  px              0.4       0.0       0.0       0.0       0.0       0.0
12 H  py              0.1       0.1       0.0       0.0       0.0       0.1
13 H  s               0.3       0.0       0.1       0.0      15.4       3.2
13 H  py              0.0       0.0       0.0       0.0       0.3       0.1
14 H  s               0.7       8.8       4.3       0.0       0.0       0.2
14 H  px              0.0       0.3       0.1       0.0       0.0       0.0
15 H  s               3.7       4.5       0.2       0.0       3.2       7.0
15 H  py              0.2       0.2       0.0       0.0       0.0       0.2
16 H  s               2.4       0.1       1.1       0.0       0.4       0.0
16 H  py              0.0       0.0       0.2       0.0       0.1       0.1

                     24        25        26        27        28        29   
                  -0.38131  -0.36295  -0.34414  -0.33118  -0.32414  -0.29672
                   2.00000   2.00000   2.00000   2.00000   2.00000   2.00000
                  --------  --------  --------  --------  --------  --------
 0 C  s               0.0       0.0       0.1       0.0       0.1       0.3
 0 C  pz              3.7       0.0       0.0      10.1       0.0       0.0
 0 C  px              0.0       5.1       0.9       0.0       0.1       0.3
 0 C  py              0.0       4.8       0.2       0.0       4.3       6.6
 0 C  dz2             0.0       0.1       0.0       0.0       0.1       0.1
 0 C  dyz             0.1       0.0       0.0       0.5       0.0       0.0
 0 C  dx2y2           0.0       0.1       0.0       0.0       0.2       0.5
 0 C  dxy             0.0       0.1       0.0       0.0       0.0       0.1
 1 O  s               0.0       0.3       0.1       0.0       1.9       2.9
 1 O  pz              0.0       0.0       0.0      12.4       0.0       0.0
 1 O  px              0.0       0.9       2.5       0.0       0.0       1.1
 1 O  py              0.0       1.2       0.9       0.0      13.2      32.3
 1 O  dz2             0.0       0.1       0.1       0.0       0.1       0.1
 1 O  dxz             0.6       0.0       0.0       2.6       0.0       0.0
 1 O  dx2y2           0.0       0.1       0.0       0.0       0.5       1.5
 1 O  dxy             0.0       0.4       0.0       0.0       0.0       0.1
 2 C  s               0.0       0.0       0.0       0.0       0.3       0.1
 2 C  pz              4.0       0.0       0.0      20.0       0.0       0.0
 2 C  px              0.0       4.8       1.4       0.0       0.7       0.8
 2 C  py              0.0       7.1       1.4       0.0       0.0       7.2
 2 C  dx2y2           0.0       0.1       0.2       0.0       0.0       0.8
 2 C  dxy             0.0       0.1       0.6       0.0       0.1       0.4
 3 C  s               0.0       0.0       0.3       0.0       0.2       0.1
 3 C  pz              2.7       0.0       0.0      10.0       0.0       0.0
 3 C  px              0.0       0.3      17.3       0.0       0.1       0.3
 3 C  py              0.0       6.0       1.8       0.0       0.0       9.3
 3 C  dyz             0.0       0.0       0.0       0.1       0.0       0.0
 3 C  dx2y2           0.0       0.0       0.0       0.0       0.0       0.2
 3 C  dxy             0.0       0.2       0.7       0.0       0.2       0.1
 4 C  s               0.0       0.4       0.0       0.0       0.0       0.1
 4 C  pz              3.9       0.0       0.0       3.8       0.0       0.0
 4 C  px              0.0       1.4      15.0       0.0       0.6       0.3
 4 C  py              0.0       0.1       0.3       0.0       3.6       4.0
 4 C  dx2y2           0.0       0.1       0.2       0.0       0.3       0.4
 4 C  dxy             0.0       0.0       0.5       0.0       0.0       0.2
 5 C  s               0.0       0.4       0.3       0.0       0.4       0.0
 5 C  pz              9.5       0.0       0.0       0.1       0.0       0.0
 5 C  px              0.0       2.4      18.1       0.0       0.4       0.1
 5 C  py              0.0       0.0       0.1       0.0      11.2       3.3
 5 C  dx2y2           0.0       0.1       0.5       0.0       0.2       0.2
 5 C  dxy             0.0       0.1       0.3       0.0       0.0       0.0
 6 C  s               0.0       0.2       0.1       0.0       0.1       0.1
 6 C  pz             27.0       0.0       0.0       2.4       0.0       0.0
 6 C  px              0.0       0.4       2.9       0.0       1.4       0.3
 6 C  py              0.0       0.1       1.0       0.0       9.2       1.9
 6 C  dxz             0.0       0.0       0.0       0.2       0.0       0.0
 6 C  dyz             0.0       0.0       0.0       0.1       0.0       0.0
 6 C  dx2y2           0.0       0.1       0.1       0.0       1.1       0.2
 6 C  dxy             0.0       0.1       0.5       0.0       0.0       0.1
 7 C  s               0.0       0.1       0.0       0.0       0.1       0.5
 7 C  pz              9.4       0.0       0.0       2.7       0.0       0.0
 7 C  px              0.0       1.4       6.9       0.0       3.7       0.2
 7 C  py              0.0      13.1       0.2       0.0       2.5       3.3
 7 C  dxz             0.1       0.0       0.0       0.2       0.0       0.0
 7 C  dx2y2           0.0       0.1       0.0       0.0       0.2       0.2
 7 C  dxy             0.0       0.1       0.0       0.0       0.0       0.1
 8 O  s               0.0       3.3       0.1       0.0       2.7       0.2
 8 O  pz             34.0       0.0       0.0      23.4       0.0       0.0
 8 O  px              0.0       2.7       0.6       0.0       0.9       0.0
 8 O  py              0.0      18.6       1.8       0.0      25.4       3.1
 8 O  dz2             0.0       0.2       0.1       0.0       0.0       0.0
 8 O  dxz             0.4       0.0       0.0       0.0       0.0       0.0
 8 O  dyz             0.8       0.0       0.0       0.1       0.0       0.0
 8 O  dx2y2           0.0       0.4       0.1       0.0       1.0       0.1
 8 O  dxy             0.0       0.1       0.0       0.0       0.1       0.0
 9 H  s               1.3       1.0       0.0       5.1       1.0       1.9
10 H  s               1.3       1.0       0.0       5.1       1.0       1.9
11 H  s               0.0       5.7       0.2       0.0       1.6       3.3
12 H  s               0.0       2.1       9.9       0.0       0.5       1.6
12 H  py              0.0       0.0       0.1       0.0       0.0       0.0
13 H  s               0.0       0.8       0.1       0.0       2.5       4.3
13 H  px              0.0       0.0       0.1       0.0       0.0       0.0
14 H  s               0.0       2.6      10.9       0.0       1.1       0.4
15 H  s               0.0       6.3       0.0       0.0       2.4       2.1
16 H  s               0.0       1.7       0.2       0.0       1.8       0.1
16 H  pz              0.5       0.0       0.0       0.4       0.0       0.0
16 H  py              0.0       0.1       0.0       0.0       0.2       0.0

                     30        31        32        33        34        35   
                  -0.28363  -0.21105  -0.19962  -0.02622  -0.00608   0.05599
                   2.00000   2.00000   2.00000   0.00000   0.00000   0.00000
                  --------  --------  --------  --------  --------  --------
 0 C  s               0.0       0.0       0.0       0.0       0.0       0.3
 0 C  pz              2.9       0.5       0.2       0.3       0.0       0.0
 0 C  px              0.0       0.0       0.0       0.0       0.0       4.4
 0 C  py              0.0       0.0       0.0       0.0       0.0       2.7
 0 C  dz2             0.0       0.0       0.0       0.0       0.0       0.2
 0 C  dxz             0.2       0.1       0.1       0.0       0.1       0.0
 0 C  dyz             0.5       0.2       0.3       0.1       0.1       0.0
 0 C  dxy             0.0       0.0       0.0       0.0       0.0       0.4
 1 O  s               0.0       0.0       0.0       0.0       0.0       2.6
 1 O  pz             23.5       9.8      16.0       1.2       4.0       0.0
 1 O  py              0.0       0.0       0.0       0.0       0.0       1.1
 1 O  dxz             0.4       0.3       0.7       0.5       2.9       0.0
 1 O  dyz             0.2       0.0       0.6       1.6       0.0       0.0
 1 O  dx2y2           0.0       0.0       0.0       0.0       0.0       0.1
 2 C  s               0.0       0.0       0.0       0.0       0.0       1.1
 2 C  pz              1.2       2.7       9.1       8.1      19.0       0.0
 2 C  px              0.0       0.0       0.0       0.0       0.0       0.6
 2 C  py              0.0       0.0       0.0       0.0       0.0       0.8
 2 C  dz2             0.0       0.0       0.0       0.0       0.0       0.3
 2 C  dxz             0.3       0.6       0.4       0.1       0.1       0.0
 2 C  dyz             0.2       0.2       0.4       0.8       0.3       0.0
 2 C  dx2y2           0.0       0.0       0.0       0.0       0.0       0.4
 3 C  s               0.0       0.0       0.0       0.0       0.0       0.5
 3 C  pz              9.7       5.3      24.7       6.0      19.7       0.0
 3 C  px              0.0       0.0       0.0       0.0       0.0       0.1
 3 C  py              0.0       0.0       0.0       0.0       0.0       0.5
 3 C  dxz             0.2       0.1       0.0       0.8       0.0       0.0
 3 C  dyz             0.0       0.1       0.1       0.5       0.5       0.0
 3 C  dx2y2           0.0       0.0       0.0       0.0       0.0       0.1
 4 C  s               0.0       0.0       0.0       0.0       0.0       1.9
 4 C  pz             26.2      13.8       0.2      32.9       0.3       0.0
 4 C  px              0.0       0.0       0.0       0.0       0.0       0.2
 4 C  py              0.0       0.0       0.0       0.0       0.0       1.0
 4 C  dz2             0.0       0.0       0.0       0.0       0.0       0.2
 4 C  dxz             0.0       0.0       0.8       0.0       1.1       0.0
 4 C  dyz             0.1       0.0       0.0       0.3       0.0       0.0
 5 C  s               0.0       0.0       0.0       0.0       0.0       2.6
 5 C  pz             16.3       0.7      27.3      11.6      14.7       0.0
 5 C  px              0.0       0.0       0.0       0.0       0.0       4.8
 5 C  py              0.0       0.0       0.0       0.0       0.0       3.1
 5 C  dxz             0.1       0.0       0.0       0.3       0.0       0.0
 5 C  dyz             0.1       0.3       0.0       0.7       0.7       0.0
 5 C  dxy             0.0       0.0       0.0       0.0       0.0       0.5
 6 C  s               0.0       0.0       0.0       0.0       0.0       3.4
 6 C  pz              0.3       8.4       6.1       3.9      24.4       0.0
 6 C  px              0.0       0.0       0.0       0.0       0.0       5.0
 6 C  py              0.0       0.0       0.0       0.0       0.0       2.5
 6 C  dz2             0.0       0.0       0.0       0.0       0.0       0.5
 6 C  dxz             0.0       0.9       0.0       0.4       0.1       0.0
 6 C  dyz             0.4       0.0       0.6       0.7       0.1       0.0
 6 C  dx2y2           0.0       0.0       0.0       0.0       0.0       0.4
 6 C  dxy             0.0       0.0       0.0       0.0       0.0       0.4
 7 C  s               0.0       0.0       0.0       0.0       0.0       1.7
 7 C  pz              0.1      38.8       0.5      23.8       0.3       0.0
 7 C  px              0.0       0.0       0.0       0.0       0.0       0.4
 7 C  py              0.0       0.0       0.0       0.0       0.0       0.2
 7 C  dxz             0.0       0.0       0.2       0.0       1.6       0.0
 7 C  dyz             0.0       0.1       0.0       0.2       0.0       0.0
 7 C  dx2y2           0.0       0.0       0.0       0.0       0.0       0.5
 7 C  dxy             0.0       0.0       0.0       0.0       0.0       0.2
 8 O  s               0.0       0.0       0.0       0.0       0.0       7.7
 8 O  pz             11.1      13.5       8.4       0.9       4.3       0.0
 8 O  px              0.0       0.0       0.0       0.0       0.0       4.7
 8 O  py              0.0       0.0       0.0       0.0       0.0       3.3
 8 O  dz2             0.0       0.0       0.0       0.0       0.0       0.3
 8 O  dxz             0.0       1.2       0.2       0.1       2.8       0.0
 8 O  dyz             0.0       0.2       0.6       1.5       0.8       0.0
 8 O  dx2y2           0.0       0.0       0.0       0.0       0.0       1.5
 8 O  dxy             0.0       0.0       0.0       0.0       0.0       1.9
 9 H  s               2.6       0.7       0.8       0.1       0.2       0.1
 9 H  px              0.0       0.0       0.0       0.0       0.0       0.2
10 H  s               2.6       0.7       0.8       0.1       0.2       0.1
10 H  px              0.0       0.0       0.0       0.0       0.0       0.2
[...]
14 H  s               0.1       0.3       0.0       2.0       0.0       0.6
14 H  px              0.5       0.8       0.0       4.1       0.0       0.9
14 H  py              0.0       0.3       0.4       0.5       0.0       0.1
15 H  s               0.2       7.3       0.1       0.1       0.1       0.3
15 H  px              0.0       1.4       0.1       0.0       0.0       0.1
15 H  py              0.5      22.1       0.4       0.3       0.2       0.5
16 H  s               0.0       0.0       0.0       0.0       0.0       1.0
16 H  px              0.1       0.0       0.3       0.0       0.1       1.6
16 H  py              0.2       0.1       1.2       0.1       0.0       0.2

                    210       211       212       213       214       215   
                   4.32587   4.59927  21.48014  21.96501  21.98580  22.00110
                   0.00000   0.00000   0.00000   0.00000   0.00000   0.00000
                  --------  --------  --------  --------  --------  --------
 0 C  s               0.7       0.0       0.0      24.6      62.0      10.9
 0 C  px              1.1       0.0       0.0       0.0       0.0       0.0
 0 C  py              0.5       0.0       0.0       0.0       0.0       0.0
 0 C  dz2             0.3       0.0       0.0       0.0       0.0       0.0
 0 C  dxy             1.7       0.0       0.0       0.0       0.0       0.0
 1 O  s               3.3       0.0       0.1       0.1       0.1       0.0
 1 O  px             20.7       0.1       0.0       0.0       0.0       0.0
 1 O  dz2             1.2       0.0       0.0       0.0       0.0       0.0
 1 O  dx2y2           4.6       0.0       0.0       0.0       0.0       0.0
 1 O  dxy            15.1       0.1       0.0       0.0       0.0       0.0
 2 C  s               1.2       0.1      11.6       7.4       1.6      17.3
 2 C  px              4.2       0.0       0.0       0.0       0.0       0.0
 2 C  py              0.8       0.0       0.0       0.1       0.0       0.0
 2 C  dz2             1.1       0.0       0.0       0.0       0.0       0.0
 2 C  dx2y2           5.4       0.1       0.0       0.0       0.0       0.0
 2 C  dxy             4.5       0.1       0.0       0.0       0.0       0.0
 3 C  s               0.1       0.0      17.2      25.7       7.1       4.5
 3 C  px              0.5       0.0       0.0       0.0       0.0       0.0
 3 C  py              0.5       0.0       0.0       0.0       0.0       0.0
 3 C  dz2             0.1       0.0       0.0       0.0       0.0       0.0
 3 C  dxy             3.7       0.2       0.0       0.0       0.0       0.0
 4 C  s               0.1       0.0      20.8       4.6      12.1      12.1
 4 C  py              0.4       0.0       0.0       0.0       0.0       0.0
 4 C  dx2y2           2.1       0.3       0.0       0.0       0.0       0.0
 4 C  dxy             0.5       0.0       0.0       0.0       0.0       0.0
 5 C  s               0.1       0.1      18.9       6.0       0.1      30.8
 5 C  px              0.4       0.1       0.0       0.0       0.0       0.0
 5 C  py              0.0       0.1       0.0       0.0       0.0       0.0
 5 C  dx2y2           1.1       0.5       0.0       0.0       0.0       0.0
 5 C  dxy             0.6       0.2       0.0       0.0       0.0       0.0
 6 C  s               0.2       0.2      15.9      23.1       8.6       0.1
 6 C  px              0.3       0.8       0.0       0.0       0.0       0.1
 6 C  py              0.1       1.1       0.0       0.0       0.0       0.1
 6 C  dz2             0.2       0.1       0.0       0.0       0.0       0.0
 6 C  dxy             1.9       3.2       0.0       0.0       0.0       0.0
 7 C  s               0.1       0.3      15.1       8.0       8.0      23.7
 7 C  py              0.7       0.1       0.0       0.0       0.0       0.0
 7 C  dz2             0.1       0.0       0.0       0.0       0.0       0.0
 7 C  dx2y2           1.7       0.4       0.0       0.0       0.0       0.0
 7 C  dxy             0.6       0.0       0.0       0.0       0.0       0.0
 8 O  s               3.6       3.7       0.1       0.1       0.0       0.0
 8 O  px              0.0      22.4       0.0       0.0       0.0       0.0
 8 O  py              1.7       0.4       0.0       0.0       0.0       0.0
 8 O  dz2             2.1       3.4       0.0       0.0       0.0       0.0
 8 O  dx2y2           0.4       7.2       0.0       0.0       0.0       0.0
 8 O  dxy             0.0      26.9       0.0       0.0       0.0       0.0
11 H  py              0.1       0.0       0.0       0.0       0.0       0.0
12 H  s               1.1       0.0       0.0       0.0       0.0       0.0
12 H  px              0.9       0.0       0.0       0.0       0.0       0.0
12 H  py              0.8       0.0       0.0       0.0       0.0       0.0
13 H  s               0.6       0.0       0.0       0.0       0.0       0.0
13 H  py              0.8       0.1       0.0       0.0       0.0       0.0
14 H  s               0.5       0.1       0.0       0.0       0.0       0.0
14 H  px              0.6       0.2       0.0       0.0       0.0       0.0
14 H  py              0.1       0.0       0.0       0.0       0.0       0.0
15 H  s               0.8       0.1       0.0       0.0       0.0       0.0
15 H  py              1.1       0.1       0.0       0.0       0.0       0.0
16 H  s               0.7      12.5       0.0       0.0       0.0       0.0
16 H  px              0.7      11.7       0.0       0.0       0.0       0.0
16 H  py              0.1       2.6       0.0       0.0       0.0       0.0

                    216       217       218       219       220   
                  22.19313  22.21320  22.35446  43.63354  43.72496
                   0.00000   0.00000   0.00000   0.00000   0.00000
                  --------  --------  --------  --------  --------
 0 C  s               0.1       1.6       0.4       0.0       0.0
 1 O  s               0.0       0.0       0.0       0.8      99.2
 2 C  s              14.1      21.1      26.3       0.0       0.0
 3 C  s              26.8       2.0      16.1       0.0       0.0
 4 C  s               3.3      34.8      12.0       0.0       0.0
 5 C  s               8.7      22.9      12.0       0.0       0.0
 6 C  s              37.1       0.0      14.6       0.0       0.0
 7 C  s               9.3      17.1      18.3       0.0       0.0
 8 O  s               0.0       0.0       0.0      99.1       0.8


                      *****************************
                      * MAYER POPULATION ANALYSIS *
                      *****************************

  NA   - Mulliken gross atomic population
  ZA   - Total nuclear charge
  QA   - Mulliken gross atomic charge
  VA   - Mayer's total valence
  BVA  - Mayer's bonded valence
  FA   - Mayer's free valence

  ATOM       NA         ZA         QA         VA         BVA        FA
  0 C      6.3321     6.0000    -0.3321     3.7755     3.7755     0.0000
  1 O      8.1897     8.0000    -0.1897     1.9784     1.9784     0.0000
  2 C      5.6239     6.0000     0.3761     3.7731     3.7731     0.0000
  3 C      6.3111     6.0000    -0.3111     3.8479     3.8479    -0.0000
  4 C      6.1380     6.0000    -0.1380     3.8935     3.8935    -0.0000
  5 C      6.3547     6.0000    -0.3547     3.8051     3.8051    -0.0000
  6 C      5.5344     6.0000     0.4656     3.6109     3.6109    -0.0000
  7 C      6.4743     6.0000    -0.4743     3.9594     3.9594    -0.0000
  8 O      8.4128     8.0000    -0.4128     1.9926     1.9926    -0.0000
  9 H      0.8470     1.0000     0.1530     0.9535     0.9535     0.0000
 10 H      0.8470     1.0000     0.1530     0.9535     0.9535     0.0000
 11 H      0.8456     1.0000     0.1544     0.9575     0.9575     0.0000
 12 H      0.8522     1.0000     0.1478     0.9691     0.9691     0.0000
 13 H      0.8539     1.0000     0.1461     0.9692     0.9692    -0.0000
 14 H      0.8627     1.0000     0.1373     0.9735     0.9735    -0.0000
 15 H      0.8323     1.0000     0.1677     0.9668     0.9668    -0.0000
 16 H      0.6884     1.0000     0.3116     0.9028     0.9028     0.0000

  Mayer bond orders larger than 0.100000
B(  0-C ,  1-O ) :   0.8589 B(  0-C ,  9-H ) :   0.9640 B(  0-C , 10-H ) :   0.9640 
B(  0-C , 11-H ) :   0.9679 B(  1-O ,  2-C ) :   1.0305 B(  2-C ,  3-C ) :   1.3675 
B(  2-C ,  7-C ) :   1.3813 B(  3-C ,  4-C ) :   1.4218 B(  3-C , 12-H ) :   0.9252 
B(  4-C ,  5-C ) :   1.4461 B(  4-C , 13-H ) :   0.9448 B(  5-C ,  6-C ) :   1.3125 
B(  5-C , 14-H ) :   0.9344 B(  6-C ,  7-C ) :   1.3864 B(  6-C ,  8-O ) :   0.9032 
B(  7-C ,  8-O ) :   0.1182 B(  7-C , 15-H ) :   0.9524 B(  8-O , 16-H ) :   0.8833 


-------
TIMINGS
-------

Total SCF time: 0 days 0 hours 0 min 20 sec 

Total time                  ....      20.998 sec
Sum of individual times     ....      20.511 sec  ( 97.7%)

SCF preparation             ....       0.168 sec  (  0.8%)
Fock matrix formation       ....      19.420 sec  ( 92.5%)
  Startup                   ....       0.055 sec  (  0.3% of F)
  Split-RI-J                ....       3.936 sec  ( 20.3% of F)
  XC integration            ....      14.660 sec  ( 75.5% of F)
    XC Preparation          ....       0.000 sec  (  0.0% of XC)
    Basis function eval.    ....       2.407 sec  ( 16.4% of XC)
    Density eval.           ....       4.531 sec  ( 30.9% of XC)
    XC-Functional eval.     ....       1.626 sec  ( 11.1% of XC)
    XC-Potential eval.      ....       5.185 sec  ( 35.4% of XC)
Diagonalization             ....       0.000 sec  (  0.0%)
Density matrix formation    ....       0.257 sec  (  1.2%)
Total Energy calculation    ....       0.031 sec  (  0.1%)
Population analysis         ....       0.108 sec  (  0.5%)
Orbital Transformation      ....       0.057 sec  (  0.3%)
Orbital Orthonormalization  ....       0.000 sec  (  0.0%)
DIIS solution               ....       0.419 sec  (  2.0%)
  MO trafo                  ....       0.000 sec  (  0.0 % of DIIS)
  Orb grad                  ....       0.000 sec  (  0.0 % of DIIS)
  Energy W gradient         ....       0.000 sec  (  0.0 % of DIIS)
  DIIS error                ....       0.013 sec  (  3.0 % of DIIS)
  DIIS work                 ....       0.353 sec  ( 84.1 % of DIIS)
  Form Q                    ....       0.000 sec  (  0.0 % of DIIS)
  Form QpQm                 ....       0.000 sec  (  0.0 % of DIIS)
  Exp/Cayley                ....       0.000 sec  (  0.0 % of DIIS)
  Orb update                ....       0.000 sec  (  0.0 % of DIIS)
  Wake-sleep                ....       0.025 sec  (  5.9 % of DIIS)
SOSCF solution              ....       0.051 sec  (  0.2%)
  MO trafo                  ....       0.037 sec  ( 71.5 % of SOSCF)
  Orb grad                  ....       0.001 sec  (  1.2 % of SOSCF)
  Rot update                ....       0.000 sec  (  0.1 % of SOSCF)
  Step                      ....       0.014 sec  ( 27.1 % of SOSCF)
Finished LeanSCF after  21.1 sec

Maximum memory used throughout the entire LEANSCF-calculation: 23.6 MB


-------------------------------------------------------------------------------
                          DFT DISPERSION CORRECTION                            
                                                                               
                                DFTD4 V3.4.0                                   
-------------------------------------------------------------------------------
The R2SCAN3C composite method is recognized
Using three-body term ABC
Active option DFTDOPT                   ...         5   

-------------------------   ----------------
Dispersion correction           -0.005298583
-------------------------   ----------------

------------------   -----------------
gCP correction             0.008116827
------------------   -----------------

-------------------------   --------------------
FINAL SINGLE POINT ENERGY      -421.902670135163
-------------------------   --------------------


------------------------------------------------------------------------------
                              ORCA PROPERTY CALCULATIONS
------------------------------------------------------------------------------

GBWName                                 ... sp_gas.gbw
Number of atoms                         ...     17
Number of basis functions               ...    221
Max core memory                         ...   1024 MB

Electric properties:
Dipole moment                           ... YES
Quadrupole moment                       ...  NO
Static polarizability (Dipole/Dipole)   ...  NO
Static polarizability (Dipole/Quad.)    ...  NO
Static polarizability (Quad./Quad.)     ...  NO
Static polarizability (Velocity)        ...  NO

Atomic electric properties:
Dipole moment                           ...  NO
Quadrupole moment                       ...  NO
Static polarizability                   ...  NO

Choice of electric origin               ... Center of mass
Position of electric origin             ...    -0.000009    -0.000019     0.000000

General magnetic properties:
Magnetizability                         ...  NO

EPR properties:
g-Tensor (aka g-matrix)                 ...  NO
Zero-Field splitting spin-orbit         ...  NO
Zero-field splitting spin-spin          ...  NO
Hyperfine couplings                     ...  NO (   0 nuclei)
Quadrupole couplings                    ...  NO (   0 nuclei)
Contact density                         ...  NO (   0 nuclei)

NMR properties:
Chemical shifts                         ...  NO (   0 nuclei)
Spin-rotation constants                 ...  NO (   0 nuclei)
Spin-spin couplings                     ...  NO (   0 nuclei,    0 pairs)

Choice of magnetic origin               ... GIAO
Position of magnetic origin             ...     0.000000     0.000000     0.000000

Properties with geometric perturbations:
SCF Hessian                             ...  NO
IR spectrum                             ...  NO
VCD spectrum                            ...  NO
X-ray spectroscopy properties:
SCF XES/XAS/RIXS spectra                ...  NO


-------------
DIPOLE MOMENT
-------------

Method             : SCF
Type of density    : Electron Density
Multiplicity       :   1
Irrep              :   0
Energy             :  -421.9054883798681885 Eh
Relativity type    : 
Basis              : AO
                                X                 Y                 Z
Electronic contribution:      4.223845594       3.264954477      -0.001000655
Nuclear contribution   :     -4.225674994      -3.985733506       0.001752570
                        -----------------------------------------
Total Dipole Moment    :     -0.001829400      -0.720779029       0.000751915
                        -----------------------------------------
Magnitude (a.u.)       :      0.720781742
Magnitude (Debye)      :      1.832081591



--------------------
Rotational spectrum 
--------------------
 
Rotational constants in cm-1:             0.122467             0.037666             0.028966 
Rotational constants in MHz :          3671.474835          1129.183916           868.372343 

Dipole components along the rotational axes: 
x,y,z [a.u.] :    -0.110108    -0.712321     0.000832 
x,y,z [Debye]:    -0.279872    -1.810577     0.002114 

 

Dipole moment calculation done in   0.0 sec 

Maximum memory used throughout the entire PROP-calculation: 14.0 MB

--------------------------------
SUGGESTED CITATIONS FOR THIS RUN
--------------------------------

Below you find a list of papers that are relevant to this ORCA run
We neither can nor want to force you to cite these papers, but we appreciate if you do
You receive ORCA, which is the product of decades of hard work by many enthusiastic individuals, for free
The only thing we kindly ask in return is that you cite our papers,
We deeply appreciate it, if you show your appreciation for ORCA by not just citing the generic ORCA reference.

Please note that relegating all ORCA citations to the supporting information does *not* help us.
SI sections are not indexed - citations you put there will not count into any citation statistics
But we need these citations in order to attract the funding resources that allow us to do what we are doing

Therefore, if you are a happy ORCA user, please consider citing a few of the papers listed below in the main body of your paper

In addition to the list printed below, the program has created the file sp_gas.bibtex that contains the list in bibtex format
You can import this file easily into all common literature databanks and citation aid programs


List of essential papers. We consider these as the minimum necessary citations

  1. Neese,F.
     Software update: the ORCA program system, version 5.0
     WIRES Comput. Molec. Sci., 2022 12(1)e1606
     doi.org/10.1002/wcms.1606
  2. Grimme,S.; Hansen,A.; Ehlert,S.; Mewes,J.
     r2SCAN-3c: A 'Swiss army knife' composite electronic-structure method
     J. Chem. Phys., 2021 154 064103
     doi.org/10.1063/5.0040021

List of papers to cite with high priority. The work reported in these papers was absolutely
necessary for this run to complete.
Our perspective: the developers of density functionals and basis sets usually get cited in chemistry papers
Good! But without the algorithms to do something with them, the functionals or basis sets would not do anything.
Hence, in our opinion, the algorithm design and method developments papers are equally worthy of getting cited

  1. Neese,F.
     An improvement of the resolution of the identity approximation for the formation of the Coulomb matrix
     J. Comp. Chem., 2003 24(14)1740-1747
     doi.org/10.1002/jcc.10318
  2. Neese,F.
     The SHARK Integral Generation and Digestion System
     J. Comp. Chem., 2022  1-16
     doi.org/10.1002/jcc.26942
  3. Lehtola,S.; Steigemann,C.; Oliveira,M.; Marques,M.
     Recent developments in Libxc - A comprehensive library of functionals for density functional theory
     Software X, 2018 7 
     doi.org/10.1016/j.softx.2017.11.002
  4. Caldeweyher,E.; Bannwarth,C.; Grimme,S.
     Extension of the D3 dispersion coefficient model
     J. Chem. Phys., 2017 147 034112-XXXX
     doi.org/10.1063/1.4993215
  5. Caldeweyher,E.; Ehlert,S.; Hansen,A.; Neugebauer,H.; Spicher,S.; Bannwarth,C.; Grimme,S.
     A generally applicable atomic-charge dependent London dispersion correction
     J. Chem. Phys., 2019 150 154122-XXXX
     doi.org/10.1063/1.5090222
  6. Caldeweyher,E.; Mewes,J.; Ehlert,S.; Grimme,S.
     Extension and evaluation of the D4 London-dispersion model for periodic systems
     Phys. Chem. Chem. Phys., 2020 22(16)8499-8512
     doi.org/10.1039/D0CP00502A

List of suggested additional citations. These are papers that are important in the 'surrounding' of 
of this run, or papers that preceded the highly important papers. If you like your results we are grateful for a citation.

  1. Neese,F.
     The ORCA program system
     WIRES Comput. Molec. Sci., 2012 2(1)73-78
     doi.org/10.1002/wcms.81
  2. Neese,F.
     Software update: the ORCA program system, version 4.0
     WIRES Comput. Molec. Sci., 2018 8(1)1-6
     doi.org/10.1002/wcms.1327
  3. Neese,F.; Wennmohs,F.; Becker,U.; Riplinger,C.
     The ORCA quantum chemistry program package
     J. Chem. Phys., 2020 152 Art. No. L224108
     doi.org/10.1063/5.0004608

List of optional additional citations

  1. Neese,F.
     Approximate second-order SCF convergence for spin unrestricted wavefunctions
     Chem. Phys. Lett., 2000 325(1-3)93-98
     doi.org/10.1016/s0009-2614(00)00662-x

Timings for individual modules:

Sum of individual times          ...       22.522 sec (=   0.375 min)
Startup calculation              ...        1.088 sec (=   0.018 min)   4.8 %
SCF iterations                   ...       21.332 sec (=   0.356 min)  94.7 %
Property calculations            ...        0.101 sec (=   0.002 min)   0.4 %
                             ****ORCA TERMINATED NORMALLY****
TOTAL RUN TIME: 0 days 0 hours 0 minutes 23 seconds 144 msec
