      -----------------------------------------------------------      
     |                   =====================                   |     
     |                           x T B                           |     
     |                   =====================                   |     
     |                         S. Grimme                         |     
     |          Mulliken Center for Theoretical Chemistry        |     
     |                    University of Bonn                     |     
      -----------------------------------------------------------      

   * xtb version 6.7.1 (edcfbbe) compiled by 'albert@albert-system' on 2024-07-22

   xtb is free software: you can redistribute it and/or modify it under
   the terms of the GNU Lesser General Public License as published by
   the Free Software Foundation, either version 3 of the License, or
   (at your option) any later version.
   
   xtb is distributed in the hope that it will be useful,
   but WITHOUT ANY WARRANTY; without even the implied warranty of
   MERCHANTABILITY or FITNESS FOR A PARTICULAR PURPOSE.  See the
   GNU Lesser General Public License for more details.
   
   Cite this work as:
   * C. Bannwarth, E. Caldeweyher, S. Ehlert, A. Hansen, P. Pracht,
     J. Seibert, S. Spicher, S. Grimme, WIREs Comput. Mol. Sci., 2020, 11,
     e01493. DOI: 10.1002/wcms.1493
   
   for GFN2-xTB:
   * C. Bannwarth, S. Ehlert and S. Grimme., J. Chem. Theory Comput., 2019,
     15, 1652-1671. DOI: 10.1021/acs.jctc.8b01176
   for GFN1-xTB:
   * S. Grimme, C. Bannwarth, P. Shushkov, J. Chem. Theory Comput., 2017,
     13, 1989-2009. DOI: 10.1021/acs.jctc.7b00118
   for GFN0-xTB:
   * P. Pracht, E. Caldeweyher, S. Ehlert, S. Grimme, ChemRxiv, 2019, preprint.
     DOI: 10.26434/chemrxiv.8326202.v1
   for GFN-FF:
   * S. Spicher and S. Grimme, Angew. Chem. Int. Ed., 2020, 59, 15665-15673.
     DOI: 10.1002/anie.202004239
   
   for ALPB and GBSA implicit solvation:
   * S. Ehlert, M. Stahn, S. Spicher, S. Grimme, J. Chem. Theory Comput.,
     2021, 17, 4250-4261. DOI: 10.1021/acs.jctc.1c00471
   
   for ddCOSMO and CPCM-X implicit solvation:
   * M. Stahn, S. Ehlert, S. Grimme, J. Phys. Chem. A,
     2023, XX, XXXX-XXXX. DOI: 10.1021/acs.jpca.3c04382
   
   for DFT-D4:
   * E. Caldeweyher, C. Bannwarth and S. Grimme, J. Chem. Phys., 2017,
     147, 034112. DOI: 10.1063/1.4993215
   * E. Caldeweyher, S. Ehlert, A. Hansen, H. Neugebauer, S. Spicher,
     C. Bannwarth and S. Grimme, J. Chem. Phys., 2019, 150, 154122.
     DOI: 10.1063/1.5090222
   * E. Caldeweyher, J.-M. Mewes, S. Ehlert and S. Grimme, Phys. Chem. Chem. Phys.
     2020, 22, 8499-8512. DOI: 10.1039/D0CP00502A
   
   for sTDA-xTB:
   * S. Grimme and C. Bannwarth, J. Chem. Phys., 2016, 145, 054103.
     DOI: 10.1063/1.4959605
   
   in the mass-spec context:
   * V. Asgeirsson, C. Bauer and S. Grimme, Chem. Sci., 2017, 8, 4879.
     DOI: 10.1039/c7sc00601b
   * J. Koopman and S. Grimme, ACS Omega 2019, 4, 12, 15120-15133.
     DOI: 10.1021/acsomega.9b02011
   
   for metadynamics refer to:
   * S. Grimme, J. Chem. Theory Comput., 2019, 155, 2847-2862
     DOI: 10.1021/acs.jctc.9b00143
   
   for SPH calculations refer to:
   * S. Spicher and S. Grimme, J. Chem. Theory Comput., 2021, 17, 1701-1714
     DOI: 10.1021/acs.jctc.0c01306
   
   for ONIOM refer to:
   * C. Plett, A. Katbashev, S. Ehlert, S. Grimme, M. Bursch,
     Phys. Chem. Chem. Phys., 2023, 25, 17860-17868. DOI: 10.1039/D3CP02178E
   
   for DIPRO refer to:
   * J. Kohn, N. Gildemeister, S. Grimme, D. Fazzi, A. Hansen,
     J. Chem. Phys., 2023, just accepted.
   
   for PTB refer to:
   * S. Grimme, M. Mueller, A. Hansen, J. Chem. Phys., 2023, 158, 124111.
     DOI: 10.1063/5.0137838
   
   with help from (in alphabetical order)
   P. Atkinson, C. Bannwarth, F. Bohle, G. Brandenburg, E. Caldeweyher
   M. Checinski, S. Dohm, S. Ehlert, S. Ehrlich, I. Gerasimov, C. Hölzer
   A. Katbashev, J. Kohn, J. Koopman, C. Lavigne, S. Lehtola, F. März, M. Müller,
   F. Musil, H. Neugebauer, J. Pisarek, C. Plett, P. Pracht, F. Pultar,
   J. Seibert, P. Shushkov, S. Spicher, M. Stahn, M. Steiner, T. Strunk,
   J. Stückrath, T. Rose, and J. Unsleber
   
 * started run on 2025/04/03 at 20:57:31.572     
   ID    Z sym.   atoms
    1    6 C      1-12
    2    1 H      13-24

           -------------------------------------------------
          |                Calculation Setup                |
           -------------------------------------------------

          program call               : /srv/scratch/z5358697/.xtb/bin/xtb solv.coord --gfn2 --sp --chrg 0 --norestart --parallel 1 --alpb water reference -I xtb_sp-xcontrol-inp
          hostname                   : k152
          coordinate file            : solv.coord
          omp threads                :                     1


           -------------------------------------------------
          |                 G F N 2 - x T B                 |
           -------------------------------------------------

        Reference                      10.1021/acs.jctc.8b01176
      * Hamiltonian:
        H0-scaling (s, p, d)           1.850000    2.230000    2.230000
        zeta-weighting                 0.500000
      * Dispersion:
        s8                             2.700000
        a1                             0.520000
        a2                             5.000000
        s9                             5.000000
      * Repulsion:
        kExp                           1.500000    1.000000
        rExp                           1.000000
      * Coulomb:
        alpha                          2.000000
        third order                    shell-resolved
        anisotropic                    true
        a3                             3.000000
        a5                             4.000000
        cn-shift                       1.200000
        cn-exp                         4.000000
        max-rad                        5.000000

      * Solvation model:               ALPB
        Solvent                        water
        Parameter file                 internal GFN2-xTB/ALPB
        Dielectric constant                8.0200E+01
        Reference state                gsolv=reference [X=1]
        Free energy shift                  2.8945E-03 Eh       1.8164E+00 kcal/mol
        Temperature                        2.9815E+02 K
        Density                            1.0000E+00 kg/L
        Solvent mass                       1.8000E+01 g/mol
        Interaction kernel             P16
        Born radius scaling (c1)           1.4744E+00
        Born radii integrator          GBOBC
        Born offset                        0.0000E+00 a0       0.0000E+00 AA
        H-bond correction              true
        Ion screening                  false
        Surface tension                    1.0000E-05 Eh       1.5569E+01 dyn/cm
        Grid points                               974 per atom

          ...................................................
          :                      SETUP                      :
          :.................................................:
          :  # basis functions                  60          :
          :  # atomic orbitals                  60          :
          :  # shells                           36          :
          :  # electrons                        60          :
          :  max. iterations                   250          :
          :  Hamiltonian                  GFN2-xTB          :
          :  restarted?                      false          :
          :  GBSA solvation                   true          :
          :  PC potential                    false          :
          :  electronic temp.          300.0000000     K    :
          :  accuracy                    1.0000000          :
          :  -> integral cutoff          0.2500000E+02      :
          :  -> integral neglect         0.1000000E-07      :
          :  -> SCF convergence          0.1000000E-05 Eh   :
          :  -> wf. convergence          0.1000000E-03 e    :
          :  Broyden damping             0.4000000          :
          :  net charge                          0          :
          :  unpaired electrons                  0          :
          ...................................................

 iter      E             dE          RMSdq      gap      omega  full diag
   1    -32.4055748 -0.324056E+02  0.411E+00    3.18       0.0  T
   2    -32.4174514 -0.118766E-01  0.246E+00    3.19       1.0  T
   3    -32.4097090  0.774244E-02  0.786E-01    3.16       1.0  T
   4    -32.4202086 -0.104996E-01  0.169E-01    3.16       1.0  T
   5    -32.4204215 -0.212845E-03  0.532E-02    3.16       1.0  T
   6    -32.4204337 -0.122501E-04  0.240E-02    3.16       1.0  T
   7    -32.4204366 -0.289280E-05  0.107E-02    3.17       1.9  T
   8    -32.4204368 -0.146751E-06  0.126E-03    3.17      16.2  T
   9    -32.4204368 -0.109382E-07  0.781E-04    3.17      26.2  T
  10    -32.4204368 -0.178230E-08  0.212E-04    3.17      96.4  T

   *** convergence criteria satisfied after 10 iterations ***

         #    Occupation            Energy/Eh            Energy/eV
      -------------------------------------------------------------
         1        2.0000           -0.6431688             -17.5015
       ...           ...                  ...                  ...
        24        2.0000           -0.4320450             -11.7565
        25        2.0000           -0.4303006             -11.7091
        26        2.0000           -0.4145806             -11.2813
        27        2.0000           -0.4126657             -11.2292
        28        2.0000           -0.4067807             -11.0691
        29        2.0000           -0.3865717             -10.5192
        30        2.0000           -0.3674402              -9.9986 (HOMO)
        31                         -0.2511184              -6.8333 (LUMO)
        32                         -0.2191504              -5.9634
        33                         -0.1810225              -4.9259
        34                         -0.1380504              -3.7565
        35                         -0.0497090              -1.3526
       ...                                ...                  ...
        60                          0.7017958              19.0968
      -------------------------------------------------------------
                  HL-Gap            0.1163218 Eh            3.1653 eV
             Fermi-level           -0.3092793 Eh           -8.4159 eV

 SCC (total)                   0 d,  0 h,  0 min,  0.020 sec
 SCC setup                      ...        0 min,  0.001 sec (  7.185%)
 Dispersion                     ...        0 min,  0.000 sec (  0.874%)
 classical contributions        ...        0 min,  0.000 sec (  0.153%)
 integral evaluation            ...        0 min,  0.003 sec ( 12.979%)
 iterations                     ...        0 min,  0.008 sec ( 41.422%)
 molecular gradient             ...        0 min,  0.007 sec ( 36.550%)
 printout                       ...        0 min,  0.000 sec (  0.744%)

         :::::::::::::::::::::::::::::::::::::::::::::::::::::
         ::                     SUMMARY                     ::
         :::::::::::::::::::::::::::::::::::::::::::::::::::::
         :: total energy             -31.816469223063 Eh    ::
         :: total w/o Gsasa/hb       -31.816511665541 Eh    ::
         :: gradient norm              0.000159211670 Eh/a0 ::
         :: HOMO-LUMO gap              3.165277459166 eV    ::
         ::.................................................::
         :: SCC energy               -32.420459496839 Eh    ::
         :: -> isotropic ES            0.004435377242 Eh    ::
         :: -> anisotropic ES          0.005552697124 Eh    ::
         :: -> anisotropic XC          0.019639377934 Eh    ::
         :: -> dispersion             -0.021978260059 Eh    ::
         :: -> Gsolv                  -0.000643468223 Eh    ::
         ::    -> Gelec               -0.000685910701 Eh    ::
         ::    -> Gsasa               -0.002103405500 Eh    ::
         ::    -> Ghb                 -0.000748701182 Eh    ::
         ::    -> Gshift               0.002894549160 Eh    ::
         :: repulsion energy           0.603990273776 Eh    ::
         :: add. restraining           0.000000000000 Eh    ::
         :: total charge               0.000000000000 e     ::
         :::::::::::::::::::::::::::::::::::::::::::::::::::::

           -------------------------------------------------
          |                Property Printout                |
           -------------------------------------------------

    * Orbital Energies and Occupations

         #    Occupation            Energy/Eh            Energy/eV
      -------------------------------------------------------------
         1        2.0000           -0.6431688             -17.5015
       ...           ...                  ...                  ...
        18        2.0000           -0.4782926             -13.0150
        19        2.0000           -0.4677002             -12.7268
        20        2.0000           -0.4668099             -12.7025
        21        2.0000           -0.4550881             -12.3836
        22        2.0000           -0.4529484             -12.3254
        23        2.0000           -0.4491184             -12.2211
        24        2.0000           -0.4320450             -11.7565
        25        2.0000           -0.4303006             -11.7091
        26        2.0000           -0.4145806             -11.2813
        27        2.0000           -0.4126657             -11.2292
        28        2.0000           -0.4067807             -11.0691
        29        2.0000           -0.3865717             -10.5192
        30        2.0000           -0.3674402              -9.9986 (HOMO)
        31                         -0.2511184              -6.8333 (LUMO)
        32                         -0.2191504              -5.9634
        33                         -0.1810225              -4.9259
        34                         -0.1380504              -3.7565
        35                         -0.0497090              -1.3526
        36                          0.1018561               2.7716
        37                          0.1092488               2.9728
        38                          0.1282672               3.4903
        39                          0.1416606               3.8548
        40                          0.1476554               4.0179
        41                          0.1718598               4.6765
       ...                                ...                  ...
        60                          0.7017958              19.0968
      -------------------------------------------------------------
                  HL-Gap            0.1163218 Eh            3.1653 eV
             Fermi-level           -0.3092793 Eh           -8.4159 eV

     #   Z          covCN         q      C6AA      α(0)
     1   6 C        3.758    -0.121    22.869     6.818
     2   6 C        2.962     0.012    27.740     8.639
     3   6 C        2.921    -0.045    29.109     8.848
     4   6 C        2.917    -0.044    29.091     8.845
     5   6 C        2.986     0.003    27.942     8.671
     6   6 C        2.923    -0.052    29.303     8.877
     7   6 C        2.962     0.012    27.738     8.639
     8   6 C        2.921    -0.045    29.124     8.850
     9   6 C        2.916    -0.044    29.091     8.845
    10   6 C        2.986     0.003    27.940     8.671
    11   6 C        2.924    -0.053    29.316     8.879
    12   6 C        3.758    -0.121    22.863     6.817
    13   1 H        0.925     0.046     2.369     2.407
    14   1 H        0.925     0.054     2.275     2.358
    15   1 H        0.925     0.053     2.280     2.361
    16   1 H        0.926     0.031     2.567     2.505
    17   1 H        0.926     0.030     2.580     2.512
    18   1 H        0.925     0.029     2.598     2.520
    19   1 H        0.926     0.034     2.535     2.490
    20   1 H        0.926     0.031     2.571     2.508
    21   1 H        0.925     0.031     2.570     2.507
    22   1 H        0.925     0.045     2.381     2.413
    23   1 H        0.925     0.054     2.265     2.354
    24   1 H        0.925     0.054     2.272     2.357

 Mol. C6AA /au·bohr⁶  :       6682.112565
 Mol. C8AA /au·bohr⁸  :     163243.332483
 Mol. α(0) /au        :        130.689402


Wiberg/Mayer (AO) data.
largest (>0.10) Wiberg bond orders for each atom

 ---------------------------------------------------------------------------
     #   Z sym  total        # sym  WBO       # sym  WBO       # sym  WBO
 ---------------------------------------------------------------------------
     1   6 C    3.994 --     2 C    1.025    13 H    0.986    15 H    0.972
                            14 H    0.971
     2   6 C    3.986 --    11 C    1.516     3 C    1.302     1 C    1.025
     3   6 C    3.991 --     4 C    1.556     2 C    1.302    16 H    0.968
     4   6 C    3.990 --     3 C    1.556     5 C    1.281    17 H    0.968
                            11 C    0.116
     5   6 C    3.991 --     4 C    1.281     6 C    1.279    10 C    1.249
     6   6 C    3.990 --     7 C    1.530     5 C    1.279    18 H    0.966
                             9 C    0.112
     7   6 C    3.986 --     6 C    1.530     8 C    1.286    12 C    1.027
     8   6 C    3.991 --     9 C    1.573     7 C    1.286    19 H    0.970
     9   6 C    3.992 --     8 C    1.573    10 C    1.269    20 H    0.968
                             6 C    0.112
    10   6 C    3.991 --    11 C    1.292     9 C    1.269     5 C    1.249
    11   6 C    3.991 --     2 C    1.516    10 C    1.292    21 H    0.967
                             4 C    0.116
    12   6 C    3.995 --     7 C    1.027    22 H    0.986    24 H    0.972
                            23 H    0.971
    13   1 H    0.998 --     1 C    0.986
    14   1 H    0.996 --     1 C    0.971
    15   1 H    0.996 --     1 C    0.972
    16   1 H    0.999 --     3 C    0.968
    17   1 H    0.998 --     4 C    0.968
    18   1 H    0.999 --     6 C    0.966
    19   1 H    0.998 --     8 C    0.970
    20   1 H    0.998 --     9 C    0.968
    21   1 H    0.999 --    11 C    0.967
    22   1 H    0.998 --    12 C    0.986
    23   1 H    0.995 --    12 C    0.971
    24   1 H    0.995 --    12 C    0.972
 ---------------------------------------------------------------------------

Topologies differ in total number of bonds
Writing topology from bond orders to xtbtopo.mol

molecular dipole:
                 x           y           z       tot (Debye)
 q only:        0.021      -0.055       0.000
   full:        0.024      -0.064       0.000       0.173
molecular quadrupole (traceless):
                xx          xy          yy          xz          yz          zz
 q only:        6.298       1.155      -1.805       0.040       0.005      -4.493
  q+dip:        7.929       0.638       2.017       0.055       0.007      -9.947
   full:        6.294       0.896      -0.274       0.055       0.007      -6.020


           -------------------------------------------------
          | TOTAL ENERGY              -31.816469223063 Eh   |
          | GRADIENT NORM               0.000159211670 Eh/α |
          | HOMO-LUMO GAP               3.165277459166 eV   |
           -------------------------------------------------

------------------------------------------------------------------------
 * finished run on 2025/04/03 at 20:57:31.623     
------------------------------------------------------------------------
 total:
 * wall-time:     0 d,  0 h,  0 min,  0.051 sec
 *  cpu-time:     0 d,  0 h,  0 min,  0.030 sec
 * ratio c/w:     0.582 speedup
 SCF:
 * wall-time:     0 d,  0 h,  0 min,  0.020 sec
 *  cpu-time:     0 d,  0 h,  0 min,  0.020 sec
 * ratio c/w:     0.993 speedup

