 Entering Gaussian System
 *********************************************
 Gaussian 98:
 frequency output generated by the xtb code
 *********************************************
                         Standard orientation:
 --------------------------------------------------------------------
  Center     Atomic     Atomic              Coordinates (Angstroms)
  Number     Number      Type              X           Y           Z
 --------------------------------------------------------------------
    1          6             0       -2.554157   -0.896855    0.292176
    2          6             0       -1.122396   -0.447746    0.620013
    3          1             0       -1.002576   -0.390230    1.711721
    4          6             0       -0.839754    0.942064    0.030323
    5          1             0       -1.109120    0.922627   -1.038883
    6          6             0        0.648757    1.287836    0.178959
    7          1             0        0.865873    1.451173    1.241411
    8          6             0        1.540224    0.147447   -0.332103
    9          1             0        1.396824    0.033135   -1.420883
   10          6             0        1.119575   -1.169777    0.348391
   11          1             0        1.287927   -1.078620    1.433116
   12          8             0       -0.245551   -1.418802    0.080378
   13          8             0        1.848266   -2.261360   -0.058072
   14          8             0        2.892479    0.387692   -0.044664
   15          8             0        0.966668    2.505866   -0.453236
   16          8             0       -1.643551    1.866684    0.718761
   17          8             0       -2.754206   -1.063265   -1.086411
   18          1             0       -3.242994   -0.117068    0.619896
   19          1             0       -2.764507   -1.826609    0.832197
   20          1             0        1.730287   -2.410907   -1.009711
   21          1             0        3.085803    1.322962   -0.220974
   22          1             0        0.768905    2.447277   -1.400730
   23          1             0       -1.361767    2.764099    0.481618
   24          1             0       -2.169504   -1.771909   -1.392095
 --------------------------------------------------------------------
     1 basis functions        1 primitive gaussians
     1 alpha electrons        1 beta electrons
 
 Harmonic frequencies (cm**-1), IR intensities (km*mol⁻¹),
 Raman scattering activities (A**4/amu), Raman depolarization ratios,
 reduced masses (AMU), force constants (mDyne/A) and normal coordinates:
                      1                      2                      3
                        a                      a                      a 
 Frequencies --    59.3468                80.0379                98.5895
 Red. masses --    14.0226                13.9090                13.8836
 Frc consts  --     0.0000                 0.0000                 0.0000
 IR Inten    --     4.6884                11.4383                 0.8249
 Raman Activ --     0.0000                 0.0000                 0.0000
 Depolar     --     0.0000                 0.0000                 0.0000
 Atom AN      X      Y      Z        X      Y      Z        X      Y      Z
   1   6    -0.01  -0.02  -0.21     0.04  -0.08   0.06     0.03  -0.09   0.08
   2   6    -0.05  -0.05   0.02     0.06  -0.09  -0.02     0.04  -0.08  -0.00
   3   1    -0.06  -0.03   0.01     0.03  -0.04  -0.01     0.01  -0.00  -0.00
   4   6    -0.03   0.01   0.15    -0.02  -0.06   0.01     0.02  -0.12  -0.11
   5   1    -0.05   0.04   0.05    -0.04  -0.01   0.01     0.05  -0.07  -0.04
   6   6    -0.01  -0.01  -0.03    -0.02   0.01  -0.13    -0.01  -0.07   0.08
   7   1     0.03   0.01  -0.02     0.00   0.07  -0.05    -0.03  -0.07   0.03
   8   6    -0.08  -0.05  -0.09     0.09   0.00   0.08    -0.01  -0.02  -0.04
   9   1    -0.08  -0.05  -0.01     0.10  -0.00   0.02    -0.05  -0.01  -0.00
  10   6    -0.01   0.04   0.12     0.04  -0.03  -0.01     0.08  -0.01   0.06
  11   1    -0.02   0.07   0.03    -0.01  -0.02   0.00     0.02   0.02   0.01
  12   8     0.01  -0.04   0.10     0.08  -0.03  -0.13     0.10  -0.11   0.09
  13   8     0.06   0.01   0.40     0.10   0.01  -0.02     0.16   0.01   0.17
  14   8    -0.04  -0.00  -0.42     0.03   0.06   0.46     0.02   0.06  -0.30
  15   8    -0.08  -0.05  -0.14    -0.15  -0.10  -0.47     0.03   0.03   0.34
  16   8     0.08  -0.08   0.44     0.02  -0.14   0.16    -0.16  -0.09  -0.42
  17   8     0.20   0.24  -0.31    -0.23   0.46   0.04    -0.28   0.47   0.07
  18   1    -0.02  -0.02  -0.05     0.01  -0.07   0.13     0.01  -0.07   0.14
  19   1    -0.02  -0.03  -0.11     0.06  -0.08  -0.07     0.06  -0.08  -0.06
  20   1     0.04  -0.04   0.10     0.01  -0.01  -0.00     0.03  -0.03   0.05
  21   1    -0.03   0.00  -0.11     0.03  -0.01   0.04    -0.04   0.04  -0.01
  22   1    -0.06  -0.02  -0.03    -0.05  -0.09  -0.11     0.03   0.05   0.08
  23   1    -0.02  -0.01   0.10    -0.06  -0.03  -0.01    -0.01  -0.03  -0.09
  24   1     0.05   0.06  -0.09    -0.08   0.14  -0.09    -0.11   0.13  -0.09
                      4                      5                      6
                        a                      a                      a 
 Frequencies --   136.8862               204.1611               218.2057
 Red. masses --    14.2509                11.8085                10.6543
 Frc consts  --     0.0000                 0.0000                 0.0000
 IR Inten    --     2.7328                45.8376                 8.5179
 Raman Activ --     0.0000                 0.0000                 0.0000
 Depolar     --     0.0000                 0.0000                 0.0000
 Atom AN      X      Y      Z        X      Y      Z        X      Y      Z
   1   6     0.06   0.03  -0.01    -0.02   0.02   0.01    -0.03   0.32   0.01
   2   6    -0.01   0.01   0.25    -0.01  -0.06   0.04     0.08  -0.02  -0.02
   3   1    -0.04   0.04   0.07     0.01  -0.04   0.01     0.04  -0.01  -0.01
   4   6    -0.01  -0.07   0.06     0.07  -0.10   0.05     0.06   0.00   0.03
   5   1     0.01  -0.08   0.01     0.03  -0.05   0.01     0.05  -0.00   0.00
   6   6    -0.04  -0.00   0.04     0.04   0.01   0.00     0.04   0.15   0.08
   7   1    -0.00   0.02   0.00     0.04  -0.01  -0.00     0.01   0.08   0.02
   8   6    -0.06  -0.02   0.05     0.06   0.05  -0.09    -0.08   0.04   0.08
   9   1    -0.02  -0.00   0.02     0.03   0.03  -0.03    -0.06   0.02   0.03
  10   6     0.05  -0.06   0.04    -0.04   0.07  -0.07    -0.05   0.01   0.01
  11   1     0.12  -0.06  -0.00    -0.03   0.05  -0.02    -0.04  -0.01   0.01
  12   8    -0.01  -0.09   0.47    -0.02  -0.01  -0.09    -0.03  -0.11  -0.05
  13   8    -0.11  -0.02  -0.42     0.08   0.10   0.11     0.22   0.22  -0.02
  14   8    -0.06  -0.02   0.03     0.11  -0.42   0.09    -0.00  -0.36  -0.05
  15   8    -0.15  -0.05  -0.10    -0.57   0.22   0.10     0.12   0.07  -0.10
  16   8    -0.11   0.03  -0.20     0.17   0.12  -0.16    -0.33  -0.36   0.03
  17   8     0.46   0.27  -0.11     0.05   0.02   0.01     0.03   0.04   0.05
  18   1    -0.01  -0.01  -0.02     0.01   0.02  -0.01     0.06   0.19  -0.07
  19   1    -0.01  -0.01  -0.06    -0.03   0.01   0.00    -0.12   0.16   0.07
  20   1    -0.13   0.03  -0.10     0.03  -0.02   0.03     0.16   0.13  -0.03
  21   1    -0.00  -0.01  -0.03     0.20  -0.19  -0.20     0.10  -0.13  -0.10
  22   1    -0.05  -0.04  -0.02    -0.20   0.07   0.04     0.02  -0.02  -0.02
  23   1    -0.02  -0.00  -0.08     0.27   0.00   0.12    -0.31  -0.05  -0.12
  24   1     0.11   0.05  -0.00     0.02   0.01   0.01    -0.04  -0.06   0.08
                      7                      8                      9
                        a                      a                      a 
 Frequencies --   232.0468               245.5179               264.7969
 Red. masses --    11.2190                10.3160                 6.8795
 Frc consts  --     0.0000                 0.0000                 0.0000
 IR Inten    --    21.7949                22.0896               122.8192
 Raman Activ --     0.0000                 0.0000                 0.0000
 Depolar     --     0.0000                 0.0000                 0.0000
 Atom AN      X      Y      Z        X      Y      Z        X      Y      Z
   1   6     0.17  -0.21   0.20    -0.05   0.41   0.09     0.07   0.04  -0.02
   2   6     0.06   0.05   0.06     0.08  -0.10   0.05     0.08   0.04  -0.05
   3   1     0.10  -0.02   0.01     0.08  -0.06   0.01     0.02   0.04  -0.01
   4   6    -0.07   0.07   0.04     0.02  -0.13   0.01     0.04   0.01  -0.07
   5   1    -0.01  -0.01   0.01     0.00  -0.07   0.00     0.00   0.02  -0.02
   6   6    -0.03   0.04   0.02    -0.05  -0.14  -0.02     0.05   0.07  -0.09
   7   1    -0.00   0.01   0.00    -0.00  -0.06  -0.01     0.02  -0.01  -0.02
   8   6    -0.05  -0.01  -0.02     0.03  -0.05  -0.06     0.12   0.07  -0.13
   9   1    -0.02   0.02  -0.01     0.03  -0.01  -0.02     0.07   0.03  -0.04
  10   6    -0.13  -0.01  -0.09     0.00  -0.10  -0.10     0.04   0.07  -0.05
  11   1    -0.10   0.00  -0.02    -0.04  -0.02  -0.02     0.06   0.07  -0.02
  12   8    -0.10   0.19  -0.41    -0.02  -0.05  -0.26     0.09   0.06   0.05
  13   8    -0.18  -0.12   0.17    -0.00  -0.21   0.14    -0.27  -0.21   0.09
  14   8    -0.05  -0.14  -0.03    -0.05   0.37   0.01     0.12   0.03   0.08
  15   8     0.08   0.01   0.00    -0.19  -0.10   0.04    -0.04   0.22   0.09
  16   8    -0.21   0.05  -0.07     0.01  -0.10  -0.08    -0.14  -0.29   0.09
  17   8     0.40   0.10   0.16     0.25   0.13   0.10     0.02  -0.01  -0.00
  18   1    -0.03  -0.16   0.11     0.09   0.25  -0.09     0.03   0.02  -0.01
  19   1     0.15  -0.13  -0.02    -0.20   0.20   0.09     0.02   0.02   0.01
  20   1     0.11   0.02   0.02     0.07  -0.06   0.03    -0.53  -0.39   0.13
  21   1     0.02  -0.04  -0.00    -0.14   0.15   0.16     0.09  -0.04  -0.15
  22   1     0.02   0.00   0.00    -0.10   0.00   0.02    -0.04   0.10   0.03
  23   1    -0.15   0.02  -0.10     0.11  -0.03   0.07    -0.22  -0.04  -0.07
  24   1     0.29   0.20  -0.01     0.03  -0.04   0.12    -0.07  -0.06   0.01
                     10                     11                     12
                        a                      a                      a 
 Frequencies --   291.1714               302.1758               333.3383
 Red. masses --    11.5100                 5.0219                 4.8470
 Frc consts  --     0.0000                 0.0000                 0.0000
 IR Inten    --     3.4122                11.2615               245.8014
 Raman Activ --     0.0000                 0.0000                 0.0000
 Depolar     --     0.0000                 0.0000                 0.0000
 Atom AN      X      Y      Z        X      Y      Z        X      Y      Z
   1   6    -0.05  -0.01  -0.08    -0.06  -0.02  -0.01    -0.03   0.03  -0.00
   2   6    -0.03  -0.04   0.05    -0.06  -0.03   0.06    -0.03   0.05  -0.01
   3   1    -0.03  -0.09   0.02    -0.03  -0.01   0.02    -0.02   0.05  -0.00
   4   6     0.10  -0.01   0.25     0.03  -0.09   0.01    -0.05  -0.01  -0.11
   5   1     0.11  -0.03   0.05    -0.00  -0.04   0.01    -0.05   0.00  -0.02
   6   6     0.11   0.03   0.33     0.05  -0.02  -0.04    -0.04  -0.12  -0.14
   7   1     0.05   0.09   0.07    -0.01  -0.00  -0.01    -0.01  -0.09  -0.03
   8   6     0.15   0.03   0.29     0.09   0.05  -0.06     0.05  -0.08  -0.14
   9   1    -0.04   0.01   0.09     0.04   0.03  -0.02     0.06  -0.04  -0.04
  10   6     0.07  -0.04   0.13    -0.02   0.06  -0.04     0.07  -0.03  -0.05
  11   1    -0.02  -0.09   0.05    -0.00   0.03  -0.01     0.03   0.01  -0.02
  12   8     0.08   0.22  -0.20    -0.04   0.01   0.05    -0.01  -0.00   0.13
  13   8    -0.20  -0.16  -0.05    -0.07   0.03   0.02    -0.06  -0.15   0.03
  14   8     0.28   0.16  -0.22     0.17  -0.14  -0.11    -0.05   0.17   0.18
  15   8    -0.17  -0.15  -0.14    -0.28   0.11   0.05     0.01   0.02   0.18
  16   8    -0.09   0.09  -0.12     0.26   0.02   0.08     0.18   0.03   0.11
  17   8    -0.16  -0.07  -0.07    -0.01  -0.01  -0.02    -0.03   0.00  -0.01
  18   1    -0.00   0.01  -0.03    -0.02  -0.00  -0.01    -0.01   0.01  -0.01
  19   1    -0.03   0.01  -0.01    -0.02  -0.00  -0.01    -0.01   0.01   0.00
  20   1     0.00   0.06  -0.04     0.05   0.04  -0.01     0.38   0.22  -0.08
  21   1     0.06   0.01  -0.23    -0.07   0.10   0.57     0.08  -0.07  -0.46
  22   1    -0.12  -0.14  -0.01     0.20  -0.06  -0.04    -0.20   0.14   0.08
  23   1    -0.11   0.01  -0.17    -0.32  -0.00  -0.47    -0.29   0.01  -0.36
  24   1    -0.08  -0.05  -0.02    -0.01  -0.01   0.00     0.02   0.02   0.00
                     13                     14                     15
                        a                      a                      a 
 Frequencies --   338.2952               382.2675               388.4080
 Red. masses --     8.4152                 4.3253                 8.4340
 Frc consts  --     0.0000                 0.0000                 0.0000
 IR Inten    --   221.3251               305.2857                69.5219
 Raman Activ --     0.0000                 0.0000                 0.0000
 Depolar     --     0.0000                 0.0000                 0.0000
 Atom AN      X      Y      Z        X      Y      Z        X      Y      Z
   1   6     0.04  -0.00  -0.02    -0.16   0.04   0.04     0.22   0.03  -0.00
   2   6     0.02   0.09  -0.06    -0.12  -0.06   0.05     0.18   0.10  -0.17
   3   1    -0.02   0.07  -0.01    -0.04  -0.01   0.01     0.07   0.07  -0.05
   4   6     0.06   0.03  -0.11    -0.02  -0.16  -0.05    -0.09   0.14  -0.17
   5   1     0.02   0.03  -0.03    -0.02  -0.04  -0.01    -0.06   0.09  -0.04
   6   6     0.07   0.09  -0.09     0.01  -0.07  -0.05    -0.14   0.08  -0.01
   7   1     0.02   0.03  -0.02    -0.03  -0.02  -0.01    -0.10   0.04   0.01
   8   6     0.13   0.02  -0.00     0.12   0.07  -0.04    -0.11  -0.06   0.18
   9   1     0.04  -0.01  -0.00     0.04   0.01  -0.01    -0.08  -0.05   0.06
  10   6     0.04   0.02   0.05    -0.03   0.14  -0.01     0.08  -0.20   0.13
  11   1     0.03  -0.00   0.01    -0.01   0.05  -0.00     0.02  -0.11   0.04
  12   8     0.01   0.04   0.20    -0.05   0.05   0.03     0.12  -0.04  -0.03
  13   8    -0.37  -0.22   0.02    -0.15   0.11  -0.00    -0.01  -0.27  -0.01
  14   8     0.21  -0.04  -0.07     0.14   0.13   0.01    -0.11  -0.06  -0.05
  15   8    -0.04   0.18  -0.06    -0.04  -0.03   0.06    -0.30   0.17   0.06
  16   8    -0.18  -0.30   0.00     0.04  -0.22  -0.00     0.02   0.11   0.09
  17   8    -0.08  -0.02  -0.00    -0.01  -0.01   0.03     0.08   0.07   0.02
  18   1    -0.01  -0.03   0.01    -0.03   0.03  -0.02     0.07   0.01   0.02
  19   1     0.06  -0.01  -0.01    -0.08   0.02   0.01     0.08   0.01   0.01
  20   1     0.35   0.29  -0.10     0.03   0.08  -0.02     0.10   0.04  -0.03
  21   1    -0.01   0.05   0.26     0.11  -0.04  -0.28     0.00  -0.04  -0.10
  22   1    -0.17   0.12   0.01     0.65  -0.22  -0.11     0.42  -0.12  -0.08
  23   1     0.13  -0.04   0.34     0.11  -0.06   0.11     0.02   0.03   0.03
  24   1     0.05   0.06  -0.03     0.25   0.21  -0.01    -0.26  -0.22   0.03
                     16                     17                     18
                        a                      a                      a 
 Frequencies --   395.7031               403.1781               440.2989
 Red. masses --     5.5474                12.9711                11.5444
 Frc consts  --     0.0000                 0.0000                 0.0000
 IR Inten    --    90.6622                 6.7373               118.6377
 Raman Activ --     0.0000                 0.0000                 0.0000
 Depolar     --     0.0000                 0.0000                 0.0000
 Atom AN      X      Y      Z        X      Y      Z        X      Y      Z
   1   6     0.01   0.16  -0.02    -0.07   0.09  -0.02     0.01  -0.00  -0.09
   2   6     0.04   0.10  -0.18    -0.08   0.14   0.05     0.05  -0.10   0.15
   3   1     0.01   0.06  -0.05    -0.04   0.04   0.01    -0.03  -0.10   0.05
   4   6     0.03   0.10  -0.12    -0.29   0.14   0.04     0.10   0.06   0.34
   5   1     0.02   0.09  -0.04    -0.11   0.05   0.02     0.06  -0.02   0.08
   6   6    -0.03   0.04   0.05    -0.13  -0.22  -0.08     0.13   0.19   0.07
   7   1    -0.04   0.03   0.02    -0.03  -0.11  -0.01     0.14   0.06  -0.00
   8   6    -0.05  -0.07   0.17     0.17  -0.08  -0.16    -0.07   0.08  -0.22
   9   1    -0.05  -0.04   0.05     0.09  -0.01  -0.05     0.00   0.11  -0.07
  10   6     0.06  -0.18   0.12     0.26   0.01  -0.09     0.08  -0.09  -0.29
  11   1     0.02  -0.10   0.04     0.11   0.03  -0.03     0.06   0.04  -0.09
  12   8     0.04  -0.11   0.04     0.16   0.30   0.06    -0.00  -0.21   0.11
  13   8     0.18  -0.10  -0.07     0.24  -0.09  -0.01     0.07  -0.33   0.11
  14   8    -0.03  -0.01  -0.07     0.21  -0.19   0.01    -0.17   0.05   0.11
  15   8    -0.18   0.05   0.00    -0.08  -0.25   0.08     0.04   0.23  -0.09
  16   8     0.08   0.02   0.05    -0.39   0.18   0.08    -0.19   0.21  -0.07
  17   8    -0.19  -0.13   0.05    -0.04  -0.00  -0.02    -0.18  -0.09  -0.08
  18   1     0.01   0.05  -0.02    -0.01   0.05  -0.04     0.01   0.01  -0.03
  19   1     0.02   0.06   0.03    -0.05   0.04   0.01    -0.02   0.00  -0.02
  20   1    -0.13  -0.11   0.02     0.04  -0.07   0.01     0.18  -0.11   0.01
  21   1    -0.05   0.01   0.02     0.07  -0.03   0.11    -0.00   0.00   0.01
  22   1    -0.11   0.02   0.01     0.04  -0.06   0.01     0.21  -0.04  -0.06
  23   1    -0.06   0.02  -0.04    -0.05   0.05   0.09     0.00   0.04  -0.02
  24   1     0.55   0.49  -0.08     0.02   0.02   0.01     0.07   0.09  -0.06
                     19                     20                     21
                        a                      a                      a 
 Frequencies --   512.6601               539.0112               577.8455
 Red. masses --    11.9855                11.3504                10.8349
 Frc consts  --     0.0000                 0.0000                 0.0000
 IR Inten    --    34.8633                20.0416                 8.8004
 Raman Activ --     0.0000                 0.0000                 0.0000
 Depolar     --     0.0000                 0.0000                 0.0000
 Atom AN      X      Y      Z        X      Y      Z        X      Y      Z
   1   6    -0.28  -0.10   0.08     0.08   0.04  -0.06    -0.06  -0.02   0.07
   2   6    -0.18  -0.17   0.09     0.15  -0.29   0.11    -0.01  -0.12  -0.22
   3   1    -0.02  -0.07   0.02     0.04  -0.15   0.03     0.03   0.03  -0.07
   4   6    -0.20  -0.05  -0.01    -0.16  -0.18   0.08    -0.18   0.01  -0.19
   5   1    -0.13  -0.05   0.02    -0.12  -0.13   0.04    -0.05   0.07  -0.05
   6   6    -0.06   0.16  -0.24    -0.19   0.05  -0.14    -0.23   0.10   0.26
   7   1    -0.07   0.07  -0.06    -0.09   0.01  -0.03    -0.18   0.08   0.09
   8   6     0.15  -0.04   0.19    -0.12   0.05   0.02     0.01   0.36   0.08
   9   1     0.06  -0.08   0.06    -0.06  -0.04   0.01    -0.02   0.28   0.01
  10   6    -0.02  -0.21   0.11     0.18   0.17   0.20     0.05   0.13  -0.26
  11   1    -0.05  -0.13   0.04     0.07   0.04   0.05     0.04   0.09  -0.08
  12   8    -0.11  -0.15  -0.09     0.43   0.11  -0.11     0.05  -0.34   0.10
  13   8     0.18  -0.11  -0.06    -0.27   0.00  -0.02    -0.13  -0.09   0.09
  14   8     0.32   0.06  -0.09    -0.19  -0.17   0.00     0.19  -0.04  -0.05
  15   8     0.18   0.38  -0.03     0.17   0.07   0.01     0.10  -0.20  -0.05
  16   8    -0.07   0.15   0.04     0.05   0.11  -0.01     0.08   0.13   0.06
  17   8     0.11   0.06   0.02    -0.11  -0.03  -0.04     0.09   0.05   0.07
  18   1    -0.07  -0.01  -0.00     0.13   0.13  -0.05     0.02   0.03   0.01
  19   1    -0.14  -0.03  -0.00    -0.14   0.07   0.01    -0.06   0.01   0.03
  20   1    -0.03  -0.05  -0.00    -0.06   0.13  -0.02     0.06  -0.06   0.02
  21   1     0.04   0.02  -0.03     0.01  -0.04   0.05     0.14  -0.02   0.01
  22   1     0.01   0.21  -0.01    -0.01   0.11   0.01    -0.11  -0.09   0.02
  23   1     0.03   0.02  -0.01     0.07  -0.01  -0.08     0.03   0.02  -0.02
  24   1    -0.00  -0.03   0.05     0.08   0.10  -0.05     0.02   0.00   0.04
                     22                     23                     24
                        a                      a                      a 
 Frequencies --   609.0615               681.5329               908.5068
 Red. masses --    12.8064                10.8384                 6.0973
 Frc consts  --     0.0000                 0.0000                 0.0000
 IR Inten    --    18.4802                 4.2053                35.2584
 Raman Activ --     0.0000                 0.0000                 0.0000
 Depolar     --     0.0000                 0.0000                 0.0000
 Atom AN      X      Y      Z        X      Y      Z        X      Y      Z
   1   6     0.27   0.06  -0.04    -0.41  -0.14   0.15     0.09  -0.41   0.05
   2   6     0.20  -0.12  -0.13    -0.19  -0.13  -0.37     0.05  -0.17   0.09
   3   1     0.07  -0.07  -0.04    -0.03  -0.02  -0.11     0.05   0.09   0.02
   4   6    -0.04   0.12   0.13     0.13   0.15   0.02    -0.01   0.14  -0.22
   5   1    -0.04   0.07   0.04     0.13   0.18  -0.02     0.03   0.11  -0.07
   6   6     0.07  -0.14  -0.13     0.23  -0.02   0.06     0.13  -0.00   0.10
   7   1     0.08  -0.08  -0.04     0.18  -0.03  -0.00     0.02  -0.00   0.03
   8   6     0.14  -0.13  -0.08    -0.02  -0.09  -0.14     0.02  -0.11   0.03
   9   1     0.10  -0.11  -0.02    -0.02  -0.08  -0.03     0.00  -0.01   0.01
  10   6    -0.21   0.05   0.11     0.18   0.09   0.16    -0.17  -0.03  -0.12
  11   1    -0.10   0.03   0.04     0.08   0.05   0.04    -0.03  -0.02  -0.03
  12   8    -0.05  -0.45   0.01     0.29  -0.11  -0.04    -0.03   0.20   0.11
  13   8    -0.21   0.27  -0.00    -0.09   0.00  -0.03     0.01   0.04   0.00
  14   8     0.23   0.10   0.01    -0.18  -0.02   0.05    -0.00   0.01   0.00
  15   8    -0.08  -0.07   0.06    -0.06   0.04  -0.02    -0.02   0.06  -0.02
  16   8    -0.26   0.29   0.05    -0.08   0.08   0.00     0.01   0.02   0.01
  17   8    -0.04  -0.03   0.01     0.18   0.10   0.12    -0.00   0.06   0.02
  18   1     0.12   0.05   0.00    -0.09  -0.02   0.04     0.30   0.24  -0.21
  19   1     0.05   0.03   0.01    -0.14  -0.04   0.03    -0.46   0.07   0.14
  20   1    -0.08   0.13  -0.01    -0.05   0.10  -0.02     0.06  -0.07   0.01
  21   1    -0.00   0.03  -0.03    -0.05  -0.00   0.03    -0.08   0.01  -0.03
  22   1     0.03   0.00   0.00     0.01  -0.04  -0.01    -0.02  -0.06   0.00
  23   1    -0.05   0.06  -0.01    -0.06   0.03   0.02    -0.08   0.05   0.07
  24   1     0.01   0.03  -0.05     0.03  -0.03   0.13    -0.05   0.08  -0.25
                     25                     26                     27
                        a                      a                      a 
 Frequencies --   933.4617               974.8254               998.8372
 Red. masses --    10.2212                 9.2405                10.1258
 Frc consts  --     0.0000                 0.0000                 0.0000
 IR Inten    --    45.8153                35.0463                78.0395
 Raman Activ --     0.0000                 0.0000                 0.0000
 Depolar     --     0.0000                 0.0000                 0.0000
 Atom AN      X      Y      Z        X      Y      Z        X      Y      Z
   1   6     0.33   0.00  -0.19    -0.07   0.09  -0.01     0.03   0.11   0.09
   2   6    -0.32  -0.10  -0.42     0.02   0.00  -0.08     0.04   0.00   0.06
   3   1    -0.35  -0.06  -0.08    -0.01  -0.01  -0.02     0.10   0.07   0.00
   4   6    -0.13  -0.21   0.20    -0.02  -0.08   0.05    -0.32  -0.13  -0.17
   5   1     0.02   0.01   0.03    -0.02  -0.02   0.02    -0.09  -0.05  -0.04
   6   6    -0.02  -0.03   0.07     0.02  -0.07   0.01     0.05   0.03   0.48
   7   1     0.05   0.01   0.00    -0.05   0.07   0.00    -0.01  -0.06   0.13
   8   6     0.01  -0.02  -0.04     0.06  -0.37   0.37     0.09  -0.27  -0.30
   9   1     0.01  -0.00  -0.01     0.01  -0.09   0.09     0.03  -0.04  -0.08
  10   6    -0.01  -0.01   0.03    -0.07   0.16  -0.45     0.06  -0.06   0.08
  11   1     0.02  -0.00   0.00     0.05   0.02  -0.11     0.01   0.08   0.01
  12   8    -0.14   0.18   0.10     0.25   0.04   0.12    -0.04  -0.01  -0.04
  13   8     0.06  -0.04  -0.02    -0.13   0.18   0.04    -0.01   0.05   0.01
  14   8     0.01   0.00   0.01     0.00  -0.06  -0.02     0.05   0.00   0.06
  15   8     0.07   0.12  -0.06    -0.01   0.12  -0.04     0.09   0.33  -0.15
  16   8    -0.01  -0.02  -0.01    -0.04   0.02   0.02     0.00  -0.00   0.06
  17   8     0.09   0.06   0.33     0.00  -0.01  -0.01    -0.04  -0.04  -0.14
  18   1     0.19   0.08  -0.02    -0.05  -0.04   0.08    -0.03  -0.03   0.07
  19   1     0.08   0.07   0.07     0.08  -0.02  -0.04     0.06  -0.02  -0.04
  20   1     0.02  -0.03  -0.00     0.17  -0.24   0.03    -0.08   0.12  -0.00
  21   1     0.00   0.00   0.00    -0.34   0.04  -0.10    -0.14   0.02  -0.03
  22   1     0.01   0.04  -0.01     0.03   0.10  -0.02    -0.10  -0.29   0.01
  23   1     0.13  -0.08  -0.13     0.04  -0.02  -0.03     0.12  -0.06  -0.09
  24   1    -0.02   0.02  -0.02     0.03  -0.02   0.10     0.02  -0.02   0.04
                     28                     29                     30
                        a                      a                      a 
 Frequencies --  1035.4671              1044.8199              1049.4356
 Red. masses --    10.1350                11.6195                11.6089
 Frc consts  --     0.0000                 0.0000                 0.0000
 IR Inten    --    30.6046               372.9530                96.1330
 Raman Activ --     0.0000                 0.0000                 0.0000
 Depolar     --     0.0000                 0.0000                 0.0000
 Atom AN      X      Y      Z        X      Y      Z        X      Y      Z
   1   6    -0.14  -0.02   0.18    -0.01  -0.06   0.28    -0.10  -0.10   0.01
   2   6     0.20   0.07  -0.25     0.18  -0.04  -0.22     0.12   0.07  -0.10
   3   1     0.18   0.13  -0.08     0.20   0.11  -0.07     0.06  -0.03  -0.02
   4   6    -0.12  -0.17   0.18    -0.00  -0.14   0.12     0.05   0.24   0.33
   5   1    -0.02   0.03   0.04     0.02   0.06   0.03     0.13   0.08   0.04
   6   6     0.03  -0.00  -0.03     0.04  -0.07  -0.07    -0.50   0.20   0.06
   7   1     0.14  -0.02  -0.03     0.06   0.05  -0.04    -0.09   0.08   0.00
   8   6    -0.09   0.15  -0.08     0.03   0.02   0.14    -0.20  -0.27  -0.20
   9   1     0.00   0.04  -0.02    -0.03  -0.01   0.04     0.06  -0.11  -0.05
  10   6    -0.49  -0.14   0.06     0.48   0.04  -0.03     0.05  -0.04  -0.01
  11   1    -0.11  -0.09   0.03     0.12  -0.01  -0.01     0.05   0.08  -0.02
  12   8     0.26   0.20   0.19    -0.51   0.08   0.03    -0.03   0.01   0.02
  13   8     0.08  -0.06  -0.05    -0.07   0.09   0.05    -0.02   0.05   0.01
  14   8     0.06   0.06   0.00    -0.09  -0.02  -0.02     0.32   0.01   0.08
  15   8     0.02  -0.04   0.01    -0.01  -0.02  -0.00     0.02  -0.05   0.01
  16   8    -0.05  -0.02   0.02    -0.08   0.03   0.04     0.19  -0.19  -0.17
  17   8    -0.02  -0.01  -0.21    -0.02  -0.02  -0.27     0.02   0.02   0.02
  18   1     0.02   0.02   0.10     0.08   0.06   0.07    -0.02   0.01  -0.08
  19   1    -0.04  -0.02   0.01    -0.07  -0.00   0.05    -0.06   0.01   0.05
  20   1     0.08  -0.08  -0.01    -0.02  -0.01   0.02    -0.03   0.05  -0.00
  21   1     0.15  -0.01   0.04     0.01  -0.01   0.01    -0.10   0.03  -0.03
  22   1     0.00   0.03   0.00     0.04   0.14  -0.02     0.04   0.06  -0.01
  23   1     0.20  -0.12  -0.18     0.13  -0.07  -0.12     0.02  -0.03  -0.02
  24   1     0.05  -0.01   0.08     0.01  -0.01  -0.02    -0.02   0.02  -0.06
                     31                     32                     33
                        a                      a                      a 
 Frequencies --  1066.4453              1084.6875              1098.4332
 Red. masses --     6.4411                11.1466                11.5924
 Frc consts  --     0.0000                 0.0000                 0.0000
 IR Inten    --    89.8272               127.4053               352.3825
 Raman Activ --     0.0000                 0.0000                 0.0000
 Depolar     --     0.0000                 0.0000                 0.0000
 Atom AN      X      Y      Z        X      Y      Z        X      Y      Z
   1   6    -0.09  -0.12  -0.12     0.04   0.02   0.07     0.25   0.07   0.37
   2   6     0.00   0.42   0.04    -0.07   0.02   0.06    -0.38   0.08   0.10
   3   1     0.15   0.20  -0.02    -0.01  -0.02   0.02    -0.10   0.03   0.02
   4   6    -0.13  -0.14   0.11    -0.09   0.24   0.14    -0.30   0.17   0.07
   5   1    -0.06  -0.04   0.04     0.08   0.13   0.00    -0.04   0.08  -0.00
   6   6     0.09  -0.06   0.01    -0.14  -0.61   0.11     0.15   0.13  -0.05
   7   1     0.09   0.01  -0.01     0.03  -0.22   0.02     0.22   0.07  -0.05
   8   6     0.04   0.03   0.07    -0.05   0.14   0.09    -0.08  -0.01   0.08
   9   1    -0.01   0.03   0.02    -0.05   0.13   0.02    -0.02  -0.09   0.03
  10   6     0.07   0.02  -0.03     0.04  -0.16  -0.03    -0.03   0.23  -0.01
  11   1    -0.01   0.01  -0.00     0.02  -0.11  -0.00    -0.01   0.08  -0.01
  12   8     0.12  -0.23  -0.12     0.09  -0.06  -0.02     0.12  -0.19  -0.11
  13   8    -0.04   0.02   0.03    -0.10   0.14   0.05     0.06  -0.14  -0.05
  14   8    -0.06  -0.01  -0.02    -0.01   0.03  -0.03     0.05  -0.01   0.02
  15   8     0.01   0.03  -0.02     0.08   0.33  -0.22    -0.03  -0.12   0.07
  16   8    -0.05  -0.05   0.03     0.12  -0.12  -0.14     0.14  -0.17  -0.12
  17   8     0.05   0.04   0.21    -0.01  -0.01  -0.06    -0.03  -0.04  -0.30
  18   1    -0.21  -0.03  -0.40     0.01   0.01   0.02     0.11   0.06   0.08
  19   1    -0.01   0.09   0.18    -0.00  -0.00  -0.00     0.01   0.03   0.08
  20   1    -0.03   0.05   0.00     0.03  -0.05   0.02    -0.01   0.01  -0.01
  21   1    -0.01  -0.00   0.00     0.18  -0.02   0.05    -0.06   0.01  -0.01
  22   1     0.01   0.05  -0.01     0.03   0.11  -0.05     0.02   0.05   0.01
  23   1     0.19  -0.12  -0.16    -0.09   0.03   0.07     0.02  -0.03  -0.01
  24   1    -0.13   0.07  -0.36    -0.00  -0.01  -0.00    -0.02  -0.01  -0.09
                     34                     35                     36
                        a                      a                      a 
 Frequencies --  1103.5205              1126.0072              1130.3462
 Red. masses --     7.8667                 9.7800                 6.5916
 Frc consts  --     0.0000                 0.0000                 0.0000
 IR Inten    --    97.6158                34.9866                88.2554
 Raman Activ --     0.0000                 0.0000                 0.0000
 Depolar     --     0.0000                 0.0000                 0.0000
 Atom AN      X      Y      Z        X      Y      Z        X      Y      Z
   1   6     0.04  -0.01   0.19    -0.07  -0.03  -0.08     0.07   0.01   0.30
   2   6    -0.08   0.05  -0.04     0.15  -0.02  -0.07    -0.20   0.08  -0.06
   3   1     0.00   0.05  -0.01     0.08  -0.12  -0.01    -0.10   0.02  -0.01
   4   6     0.23  -0.10   0.06    -0.17   0.25   0.20     0.32  -0.19  -0.02
   5   1     0.13   0.00   0.00    -0.12   0.04   0.06     0.09  -0.13   0.00
   6   6    -0.23  -0.16   0.07    -0.07   0.08  -0.03    -0.22   0.09   0.00
   7   1    -0.24   0.15   0.03    -0.05  -0.13   0.02    -0.16  -0.16   0.05
   8   6     0.38  -0.05  -0.01     0.46   0.11   0.09     0.03   0.03  -0.09
   9   1     0.10   0.23  -0.04     0.19  -0.25   0.03     0.06  -0.32   0.01
  10   6    -0.19   0.12   0.06    -0.05   0.22   0.01     0.01  -0.01   0.01
  11   1    -0.13   0.22   0.01    -0.10  -0.07   0.03     0.05  -0.21   0.01
  12   8     0.05  -0.01   0.01    -0.12  -0.02   0.08     0.09  -0.06  -0.04
  13   8     0.17  -0.21  -0.04     0.06  -0.10  -0.06    -0.10   0.12  -0.02
  14   8    -0.19  -0.07  -0.06    -0.34  -0.05  -0.11    -0.03   0.03  -0.01
  15   8     0.01   0.05  -0.08     0.03   0.05   0.04     0.06   0.08  -0.01
  16   8    -0.06   0.08   0.05     0.13  -0.17  -0.15    -0.09   0.13   0.10
  17   8    -0.00  -0.01  -0.14     0.01   0.01   0.06     0.02  -0.01  -0.18
  18   1     0.02   0.03   0.00    -0.02  -0.01  -0.01    -0.02   0.02  -0.06
  19   1     0.01   0.02   0.08    -0.02  -0.01  -0.03     0.07   0.06   0.18
  20   1    -0.17   0.25  -0.03     0.06  -0.09  -0.01     0.18  -0.25   0.02
  21   1    -0.19   0.01  -0.06     0.04  -0.03   0.02     0.17  -0.02   0.05
  22   1     0.08   0.22  -0.05    -0.09  -0.29   0.05    -0.07  -0.23   0.03
  23   1    -0.05   0.04   0.04     0.03  -0.03  -0.03    -0.06   0.05   0.05
  24   1    -0.01   0.01  -0.08     0.01  -0.00   0.03    -0.06   0.02  -0.21
                     37                     38                     39
                        a                      a                      a 
 Frequencies --  1149.6542              1164.4449              1182.1364
 Red. masses --    10.6303                 4.3794                 5.1726
 Frc consts  --     0.0000                 0.0000                 0.0000
 IR Inten    --    67.8617                73.3158                15.5035
 Raman Activ --     0.0000                 0.0000                 0.0000
 Depolar     --     0.0000                 0.0000                 0.0000
 Atom AN      X      Y      Z        X      Y      Z        X      Y      Z
   1   6    -0.04   0.04  -0.04    -0.06  -0.02   0.18     0.00  -0.23  -0.10
   2   6     0.10  -0.11  -0.03     0.07   0.06  -0.23    -0.00   0.34   0.05
   3   1     0.16  -0.03  -0.02    -0.08  -0.27  -0.03    -0.20   0.24   0.02
   4   6     0.08  -0.07  -0.06     0.02   0.08   0.12     0.17  -0.05   0.09
   5   1     0.05  -0.00  -0.02    -0.35  -0.28   0.12    -0.05  -0.08   0.05
   6   6    -0.02  -0.22   0.03     0.21  -0.03  -0.17    -0.05  -0.03  -0.11
   7   1     0.06  -0.22   0.02    -0.19  -0.15   0.03    -0.08  -0.22   0.02
   8   6    -0.33   0.02   0.11    -0.14   0.02   0.07    -0.12   0.02   0.11
   9   1    -0.11  -0.21   0.07    -0.03   0.31  -0.01     0.02  -0.07   0.03
  10   6    -0.10   0.51   0.07    -0.00  -0.13  -0.01     0.08   0.06  -0.12
  11   1     0.01   0.21   0.00     0.07   0.10  -0.02    -0.12   0.07  -0.02
  12   8    -0.15   0.04   0.02    -0.02   0.07   0.08     0.04  -0.15  -0.10
  13   8     0.19  -0.34  -0.14     0.01   0.01   0.04     0.03  -0.06   0.04
  14   8     0.21   0.02   0.06     0.09  -0.03   0.03     0.05  -0.00  -0.00
  15   8     0.03   0.15  -0.08     0.00   0.07   0.04     0.04   0.10  -0.00
  16   8    -0.04   0.07   0.04     0.05  -0.03  -0.09    -0.07  -0.00   0.04
  17   8     0.02  -0.01   0.05     0.04   0.00  -0.09    -0.06   0.05  -0.03
  18   1    -0.10  -0.04  -0.07    -0.04   0.01  -0.06     0.30   0.13   0.18
  19   1     0.06   0.00   0.01     0.07   0.05   0.17    -0.22  -0.04  -0.09
  20   1     0.02  -0.04  -0.03    -0.08   0.12  -0.00    -0.13   0.17  -0.01
  21   1    -0.00   0.01  -0.00    -0.20   0.03  -0.07    -0.00   0.00  -0.00
  22   1    -0.02  -0.06  -0.01    -0.09  -0.27   0.04    -0.07  -0.21   0.03
  23   1    -0.04   0.03   0.03    -0.12   0.07   0.12     0.10  -0.06  -0.09
  24   1    -0.03   0.02  -0.09    -0.03   0.02  -0.15     0.12  -0.04   0.35
                     40                     41                     42
                        a                      a                      a 
 Frequencies --  1205.4867              1215.2155              1219.0556
 Red. masses --     3.9302                 3.4418                 5.0293
 Frc consts  --     0.0000                 0.0000                 0.0000
 IR Inten    --    69.0280                69.5811                22.9364
 Raman Activ --     0.0000                 0.0000                 0.0000
 Depolar     --     0.0000                 0.0000                 0.0000
 Atom AN      X      Y      Z        X      Y      Z        X      Y      Z
   1   6     0.04   0.12   0.05     0.02  -0.04  -0.07    -0.03   0.09   0.05
   2   6    -0.07  -0.24   0.16    -0.03   0.08  -0.03     0.02  -0.16  -0.04
   3   1    -0.06   0.03   0.04     0.12   0.12  -0.03    -0.03   0.06  -0.01
   4   6     0.18   0.10  -0.05    -0.09  -0.12   0.02    -0.09  -0.09  -0.05
   5   1     0.05   0.51  -0.02     0.18  -0.19  -0.05     0.20  -0.06  -0.07
   6   6    -0.04   0.03  -0.19    -0.13   0.03  -0.00    -0.14   0.11  -0.04
   7   1    -0.10  -0.22   0.00     0.32  -0.16  -0.05     0.36  -0.13  -0.07
   8   6    -0.07   0.11   0.06    -0.01   0.26  -0.00    -0.07  -0.01   0.20
   9   1     0.16   0.17  -0.02     0.35   0.16  -0.05     0.25  -0.11   0.02
  10   6    -0.00  -0.08   0.02     0.01   0.01   0.20     0.08  -0.17  -0.33
  11   1     0.06  -0.02  -0.00     0.14  -0.16   0.04    -0.27   0.06  -0.04
  12   8     0.02   0.06  -0.03    -0.03  -0.05  -0.06     0.06   0.11   0.12
  13   8    -0.00   0.01   0.02    -0.03   0.01  -0.03     0.04  -0.01   0.13
  14   8     0.05  -0.07  -0.01     0.05  -0.16  -0.01    -0.05   0.02  -0.07
  15   8     0.02   0.03   0.03     0.01  -0.00  -0.01     0.02   0.02   0.03
  16   8    -0.13  -0.04   0.05     0.06   0.05   0.01     0.04   0.05   0.01
  17   8     0.02  -0.04   0.01    -0.02   0.01   0.02     0.03  -0.02  -0.00
  18   1    -0.10  -0.06  -0.02     0.06   0.02   0.02    -0.10  -0.04  -0.04
  19   1     0.05  -0.01  -0.03    -0.04  -0.01  -0.04     0.10   0.02   0.05
  20   1    -0.01   0.03   0.00     0.12  -0.15   0.00    -0.27   0.36   0.00
  21   1    -0.25   0.03  -0.08    -0.49   0.05  -0.15     0.13  -0.02   0.04
  22   1    -0.07  -0.20   0.03     0.02  -0.02  -0.00    -0.02  -0.12   0.02
  23   1     0.31  -0.19  -0.29    -0.15   0.10   0.14    -0.11   0.07   0.10
  24   1    -0.05   0.01  -0.12     0.02  -0.01   0.08    -0.03   0.02  -0.12
                     43                     44                     45
                        a                      a                      a 
 Frequencies --  1253.1339              1258.9284              1281.7549
 Red. masses --     4.3386                 3.4097                 3.9347
 Frc consts  --     0.0000                 0.0000                 0.0000
 IR Inten    --    26.6890                13.1166               115.7229
 Raman Activ --     0.0000                 0.0000                 0.0000
 Depolar     --     0.0000                 0.0000                 0.0000
 Atom AN      X      Y      Z        X      Y      Z        X      Y      Z
   1   6    -0.11  -0.06   0.11     0.01   0.07  -0.02    -0.08  -0.02   0.04
   2   6     0.32   0.02   0.02    -0.03  -0.16  -0.02     0.30  -0.15   0.04
   3   1    -0.51  -0.19   0.08     0.04   0.42  -0.02    -0.47   0.43   0.05
   4   6    -0.01   0.16  -0.17    -0.01  -0.15   0.19    -0.06  -0.08   0.07
   5   1    -0.01  -0.13  -0.04    -0.15   0.21   0.08    -0.10   0.13   0.04
   6   6    -0.03  -0.04   0.16     0.04   0.01  -0.06    -0.03  -0.03  -0.02
   7   1     0.12  -0.09   0.02    -0.13   0.04   0.01     0.09   0.14  -0.05
   8   6     0.01   0.12  -0.10     0.04   0.09  -0.15    -0.01  -0.13   0.08
   9   1    -0.04  -0.05  -0.01    -0.33  -0.02   0.01     0.16   0.13  -0.02
  10   6     0.10   0.11   0.00     0.14   0.06  -0.05    -0.07   0.01   0.14
  11   1    -0.35  -0.21   0.07    -0.45  -0.26   0.08     0.19   0.26  -0.02
  12   8    -0.02  -0.02   0.02     0.04   0.02   0.04    -0.05  -0.02  -0.16
  13   8    -0.01  -0.02  -0.02    -0.01  -0.01  -0.00    -0.02   0.01  -0.07
  14   8     0.05  -0.06   0.04     0.08  -0.05   0.09    -0.05   0.04  -0.05
  15   8    -0.04  -0.06  -0.07     0.01   0.01   0.02     0.02   0.04   0.04
  16   8    -0.05  -0.02   0.08     0.08   0.01  -0.13     0.06   0.01  -0.08
  17   8     0.01   0.03  -0.07     0.01  -0.02   0.03    -0.01   0.04  -0.05
  18   1    -0.05  -0.00  -0.06    -0.04  -0.02  -0.01    -0.08  -0.03  -0.08
  19   1     0.07   0.05   0.17     0.03  -0.02  -0.05     0.10   0.04   0.14
  20   1     0.01  -0.05   0.00    -0.02  -0.01   0.00     0.11  -0.14  -0.01
  21   1    -0.18   0.02  -0.05    -0.21   0.02  -0.05     0.15  -0.02   0.04
  22   1     0.08   0.23  -0.05    -0.02  -0.06   0.01    -0.03  -0.10   0.02
  23   1     0.14  -0.09  -0.13    -0.19   0.12   0.17    -0.11   0.07   0.10
  24   1     0.01   0.00   0.01    -0.02   0.00  -0.06     0.01  -0.01   0.06
                     46                     47                     48
                        a                      a                      a 
 Frequencies --  1294.9672              1302.7749              1311.8586
 Red. masses --     3.2075                 3.4416                 3.6259
 Frc consts  --     0.0000                 0.0000                 0.0000
 IR Inten    --    45.5608                79.8048                30.7140
 Raman Activ --     0.0000                 0.0000                 0.0000
 Depolar     --     0.0000                 0.0000                 0.0000
 Atom AN      X      Y      Z        X      Y      Z        X      Y      Z
   1   6     0.10  -0.21  -0.07    -0.03  -0.01  -0.02    -0.09  -0.00  -0.03
   2   6    -0.08  -0.05   0.07     0.01  -0.00   0.01     0.08  -0.01   0.02
   3   1     0.17  -0.12   0.00    -0.01   0.04   0.00    -0.10   0.03   0.01
   4   6    -0.06  -0.06  -0.00     0.09  -0.11   0.01     0.03  -0.02  -0.03
   5   1     0.11   0.16  -0.04    -0.42   0.22   0.12    -0.03   0.03  -0.00
   6   6     0.02   0.00  -0.06     0.12   0.02   0.24    -0.21   0.10  -0.04
   7   1    -0.04   0.02  -0.01    -0.12  -0.09   0.11     0.29  -0.19  -0.05
   8   6     0.02   0.04  -0.01    -0.12   0.17  -0.03     0.30  -0.01   0.01
   9   1    -0.08  -0.03   0.01     0.35  -0.32  -0.01    -0.55   0.02   0.07
  10   6    -0.01  -0.02  -0.03    -0.09  -0.01  -0.11    -0.19   0.03  -0.08
  11   1     0.01  -0.04  -0.01     0.28  -0.19  -0.06     0.45  -0.19  -0.08
  12   8     0.00   0.02   0.03    -0.00   0.02  -0.02    -0.03  -0.02  -0.05
  13   8     0.01  -0.00   0.02     0.04  -0.03   0.11     0.05  -0.02   0.11
  14   8     0.01  -0.01   0.02    -0.00  -0.02  -0.03     0.01  -0.01   0.06
  15   8     0.01   0.01   0.02    -0.04  -0.08  -0.10     0.01  -0.01   0.00
  16   8     0.01   0.01  -0.01     0.03  -0.00  -0.10     0.01   0.01  -0.00
  17   8    -0.14   0.20  -0.15     0.01   0.00  -0.01     0.03  -0.02   0.00
  18   1    -0.07  -0.01  -0.34     0.02   0.01   0.02     0.07   0.03   0.10
  19   1     0.28   0.17   0.46     0.04   0.02   0.05     0.06   0.01   0.05
  20   1    -0.03   0.04   0.00    -0.13   0.20   0.01    -0.12   0.18   0.01
  21   1    -0.04   0.00  -0.01    -0.04   0.00  -0.02    -0.07   0.01  -0.00
  22   1    -0.02  -0.05   0.01     0.10   0.30  -0.06    -0.00  -0.03   0.00
  23   1    -0.03   0.02   0.02    -0.09   0.05   0.07    -0.01   0.01   0.00
  24   1     0.15  -0.04   0.51     0.00  -0.00   0.00    -0.01   0.01  -0.07
                     49                     50                     51
                        a                      a                      a 
 Frequencies --  1314.7027              1320.8492              1333.8218
 Red. masses --     4.3424                 3.5672                 3.9248
 Frc consts  --     0.0000                 0.0000                 0.0000
 IR Inten    --    47.6386                50.8143                58.6428
 Raman Activ --     0.0000                 0.0000                 0.0000
 Depolar     --     0.0000                 0.0000                 0.0000
 Atom AN      X      Y      Z        X      Y      Z        X      Y      Z
   1   6     0.01  -0.04  -0.06    -0.34  -0.04  -0.23     0.05  -0.00   0.05
   2   6    -0.18  -0.02   0.03    -0.00   0.05   0.12     0.01   0.08  -0.01
   3   1     0.20  -0.04  -0.02     0.08  -0.06   0.03    -0.04  -0.17   0.01
   4   6     0.30   0.02  -0.11    -0.07  -0.04  -0.02     0.13  -0.02  -0.09
   5   1    -0.52   0.06   0.13     0.09   0.11  -0.03    -0.18   0.07   0.03
   6   6    -0.25   0.08   0.12     0.04  -0.07  -0.03    -0.15  -0.32  -0.02
   7   1     0.40  -0.11  -0.04    -0.05   0.15  -0.02     0.24   0.64  -0.17
   8   6     0.03  -0.21   0.05    -0.04   0.05  -0.02    -0.04   0.20  -0.05
   9   1     0.04   0.26  -0.02     0.06  -0.04  -0.01     0.02  -0.20   0.01
  10   6     0.09   0.04   0.07     0.04  -0.02   0.03    -0.02  -0.02  -0.05
  11   1    -0.22   0.07   0.05    -0.08   0.05   0.02     0.04  -0.06  -0.02
  12   8     0.01   0.01   0.03     0.01  -0.02  -0.01     0.00   0.00   0.02
  13   8    -0.03   0.02  -0.07    -0.02   0.01  -0.02     0.01  -0.01   0.03
  14   8    -0.03   0.03  -0.03     0.01  -0.01  -0.00     0.05  -0.04   0.02
  15   8    -0.00  -0.00  -0.02     0.01   0.02   0.03     0.07   0.12   0.12
  16   8    -0.02  -0.01  -0.04     0.00  -0.00  -0.00    -0.03   0.01   0.01
  17   8    -0.01   0.02  -0.01     0.11  -0.05  -0.01    -0.01  -0.00   0.00
  18   1     0.06   0.03   0.02     0.37   0.19   0.44    -0.04  -0.02  -0.04
  19   1     0.07   0.03   0.08     0.38   0.10   0.33    -0.10  -0.03  -0.08
  20   1     0.08  -0.13  -0.00     0.03  -0.04  -0.00    -0.04   0.07   0.00
  21   1     0.11  -0.01   0.04    -0.02   0.00  -0.01    -0.13   0.01  -0.03
  22   1     0.03   0.05  -0.01    -0.03  -0.06   0.02    -0.09  -0.28   0.07
  23   1     0.02  -0.02  -0.03    -0.01   0.00   0.01     0.02  -0.01  -0.02
  24   1     0.01  -0.00   0.05    -0.05   0.03  -0.25     0.00  -0.00   0.02
                     52                     53                     54
                        a                      a                      a 
 Frequencies --  1342.3153              1346.3565              1445.1285
 Red. masses --     4.3958                 5.3422                 1.7637
 Frc consts  --     0.0000                 0.0000                 0.0000
 IR Inten    --    10.3735                24.6608                 2.3594
 Raman Activ --     0.0000                 0.0000                 0.0000
 Depolar     --     0.0000                 0.0000                 0.0000
 Atom AN      X      Y      Z        X      Y      Z        X      Y      Z
   1   6    -0.01   0.01  -0.04     0.01   0.02  -0.06     0.18   0.03  -0.18
   2   6    -0.05  -0.17  -0.01    -0.15  -0.31  -0.01     0.02   0.01  -0.01
   3   1     0.06   0.22  -0.02     0.11   0.39  -0.04     0.01   0.00  -0.00
   4   6     0.03   0.21   0.01     0.11   0.37   0.00    -0.00  -0.01   0.01
   5   1     0.03  -0.27  -0.00    -0.10  -0.44   0.04     0.01  -0.00   0.00
   6   6     0.03  -0.08  -0.03    -0.01  -0.07   0.05     0.00   0.00  -0.00
   7   1    -0.07   0.17  -0.02    -0.01   0.03   0.01    -0.00  -0.00   0.00
   8   6    -0.13  -0.24  -0.02     0.06   0.23  -0.01    -0.00  -0.00   0.00
   9   1     0.20   0.26  -0.07    -0.08  -0.26   0.04    -0.00  -0.00   0.00
  10   6    -0.04   0.33  -0.04    -0.02  -0.21  -0.01     0.00   0.00  -0.00
  11   1     0.10  -0.58   0.02     0.04   0.27  -0.04    -0.00   0.00   0.00
  12   8    -0.01  -0.01  -0.01     0.02   0.04  -0.02    -0.00   0.00   0.00
  13   8     0.06  -0.07   0.08    -0.02   0.03  -0.01     0.00  -0.00  -0.00
  14   8    -0.01   0.05  -0.03     0.02  -0.04   0.03    -0.00   0.00   0.00
  15   8     0.00   0.04   0.03    -0.02  -0.03  -0.01     0.00   0.00  -0.00
  16   8    -0.03  -0.02   0.04    -0.04  -0.04   0.06     0.00   0.00  -0.00
  17   8     0.00   0.01  -0.00    -0.00   0.02  -0.00     0.01   0.00  -0.04
  18   1     0.01   0.00   0.01    -0.00  -0.01  -0.00    -0.26  -0.44   0.45
  19   1     0.08   0.03   0.07     0.12   0.04   0.10    -0.45   0.33   0.39
  20   1    -0.10   0.12   0.01     0.01  -0.01  -0.00     0.00  -0.00  -0.00
  21   1     0.14  -0.01   0.03    -0.12   0.01  -0.03     0.00  -0.00   0.00
  22   1    -0.02  -0.08   0.02     0.02   0.06  -0.01     0.00  -0.00  -0.00
  23   1     0.09  -0.05  -0.07     0.14  -0.09  -0.11    -0.01   0.01   0.01
  24   1     0.01   0.00   0.01     0.01   0.00   0.02    -0.00   0.00  -0.03
                     55                     56                     57
                        a                      a                      a 
 Frequencies --  2824.7299              2846.9628              2874.9570
 Red. masses --     1.7009                 1.7021                 1.7259
 Frc consts  --     0.0000                 0.0000                 0.0000
 IR Inten    --    82.7322                61.1215               160.6379
 Raman Activ --     0.0000                 0.0000                 0.0000
 Depolar     --     0.0000                 0.0000                 0.0000
 Atom AN      X      Y      Z        X      Y      Z        X      Y      Z
   1   6     0.00  -0.00  -0.00     0.00  -0.00   0.00     0.00   0.01  -0.00
   2   6    -0.00  -0.00  -0.00     0.00   0.00   0.02     0.03   0.00   0.23
   3   1     0.00   0.00   0.01    -0.01  -0.01  -0.12    -0.09  -0.04  -0.89
   4   6    -0.00   0.00  -0.02    -0.07   0.01  -0.24     0.01  -0.00   0.04
   5   1     0.02   0.00   0.06     0.24   0.01   0.93    -0.03  -0.00  -0.11
   6   6    -0.00  -0.00   0.00    -0.00   0.00  -0.00    -0.00  -0.00  -0.01
   7   1     0.00   0.01   0.03    -0.01  -0.01  -0.04     0.01   0.00   0.03
   8   6     0.01   0.02   0.25    -0.00  -0.00  -0.02     0.00   0.00   0.01
   9   1    -0.11  -0.10  -0.95     0.01   0.01   0.06    -0.00  -0.00  -0.04
  10   6    -0.00   0.00  -0.01     0.00   0.00   0.01     0.01   0.01   0.08
  11   1     0.01   0.00   0.07    -0.00  -0.00  -0.03    -0.06  -0.03  -0.33
  12   8    -0.00  -0.00  -0.00    -0.00   0.00   0.00    -0.00   0.01   0.01
  13   8     0.00  -0.00  -0.00    -0.00   0.00   0.00    -0.00   0.00   0.00
  14   8     0.02   0.00   0.01    -0.00   0.00  -0.00     0.00   0.00  -0.00
  15   8     0.00   0.00  -0.00     0.00  -0.00   0.00    -0.00  -0.00  -0.00
  16   8     0.00  -0.00  -0.00     0.01  -0.01  -0.01    -0.00   0.00   0.00
  17   8     0.00  -0.00  -0.00    -0.00  -0.00   0.00     0.00   0.00  -0.00
  18   1    -0.00   0.00   0.00    -0.00   0.00   0.00    -0.00   0.01   0.00
  19   1     0.00  -0.00   0.00     0.00   0.00  -0.00    -0.01  -0.05   0.03
  20   1     0.00  -0.00   0.00     0.00   0.00   0.00     0.00  -0.00   0.01
  21   1     0.00   0.01  -0.00    -0.00  -0.00   0.00    -0.00  -0.00   0.00
  22   1    -0.00   0.00   0.00    -0.00  -0.00   0.00     0.00   0.00   0.00
  23   1     0.00   0.00   0.00     0.00  -0.00   0.00    -0.00  -0.00   0.00
  24   1    -0.00   0.00   0.00     0.00   0.00   0.00    -0.00  -0.00  -0.00
                     58                     59                     60
                        a                      a                      a 
 Frequencies --  2875.8248              2915.8605              2949.5831
 Red. masses --     1.7191                 1.7309                 1.7488
 Frc consts  --     0.0000                 0.0000                 0.0000
 IR Inten    --    43.2201                83.4234                60.6062
 Raman Activ --     0.0000                 0.0000                 0.0000
 Depolar     --     0.0000                 0.0000                 0.0000
 Atom AN      X      Y      Z        X      Y      Z        X      Y      Z
   1   6     0.00   0.00  -0.00     0.04   0.23  -0.11     0.00   0.00  -0.00
   2   6     0.01   0.00   0.09     0.00   0.01  -0.02    -0.00   0.00  -0.00
   3   1    -0.04  -0.01  -0.33     0.01   0.00   0.07     0.00  -0.00   0.02
   4   6     0.00  -0.00   0.01     0.00  -0.00  -0.00    -0.01  -0.00  -0.02
   5   1    -0.00  -0.00  -0.02     0.00  -0.00   0.01     0.01   0.00   0.03
   6   6     0.00   0.00   0.00     0.00   0.00   0.00    -0.05  -0.04  -0.25
   7   1    -0.00  -0.00  -0.01    -0.00  -0.00  -0.01     0.19   0.14   0.93
   8   6    -0.00   0.00  -0.03    -0.00  -0.00  -0.00    -0.00  -0.00  -0.01
   9   1     0.01   0.01   0.06    -0.00   0.00   0.00     0.00   0.00   0.03
  10   6    -0.03  -0.01  -0.23    -0.00   0.00  -0.00    -0.00   0.00  -0.01
  11   1     0.14   0.07   0.89     0.00   0.00  -0.00     0.00   0.00   0.02
  12   8    -0.01   0.00  -0.01     0.00  -0.00  -0.00    -0.00  -0.00  -0.00
  13   8     0.00  -0.01  -0.00    -0.00  -0.00   0.00     0.00  -0.00   0.00
  14   8    -0.00  -0.00   0.00     0.00  -0.00   0.00     0.00   0.00   0.00
  15   8     0.00   0.00   0.00     0.00   0.00   0.00     0.00   0.01  -0.01
  16   8    -0.00   0.00   0.00    -0.00  -0.00   0.00     0.00   0.00   0.00
  17   8     0.00  -0.00  -0.00    -0.00   0.00  -0.02    -0.00   0.00   0.00
  18   1    -0.00   0.00   0.00     0.03   0.01  -0.02     0.00  -0.00  -0.00
  19   1    -0.00  -0.02   0.01    -0.18  -0.83   0.46    -0.00  -0.00   0.00
  20   1    -0.00   0.00  -0.01    -0.00   0.00  -0.00    -0.00   0.00  -0.00
  21   1     0.00   0.00  -0.00    -0.00   0.00  -0.00     0.00  -0.00  -0.00
  22   1     0.00  -0.00  -0.00    -0.00  -0.00  -0.00    -0.00  -0.00  -0.01
  23   1    -0.00  -0.00  -0.00     0.00   0.00  -0.00    -0.00  -0.00   0.00
  24   1     0.00   0.00  -0.00    -0.00  -0.00   0.00     0.00  -0.00  -0.00
                     61                     62                     63
                        a                      a                      a 
 Frequencies --  3002.8542              3424.3625              3442.3355
 Red. masses --     1.7203                 1.8757                 1.8690
 Frc consts  --     0.0000                 0.0000                 0.0000
 IR Inten    --    17.2339               122.7143               110.1633
 Raman Activ --     0.0000                 0.0000                 0.0000
 Depolar     --     0.0000                 0.0000                 0.0000
 Atom AN      X      Y      Z        X      Y      Z        X      Y      Z
   1   6    -0.16   0.18   0.07     0.00   0.00  -0.00     0.00  -0.00   0.00
   2   6    -0.01   0.01   0.00    -0.00   0.00  -0.00     0.00   0.00   0.00
   3   1    -0.00  -0.00  -0.01     0.00  -0.00   0.00     0.00  -0.00  -0.00
   4   6    -0.00   0.00  -0.00     0.00   0.00   0.00    -0.00  -0.00   0.00
   5   1     0.00   0.00   0.00    -0.00  -0.00  -0.00    -0.00   0.00  -0.00
   6   6    -0.00   0.00   0.00    -0.00   0.00   0.00    -0.00   0.00   0.00
   7   1    -0.00  -0.00  -0.00     0.00  -0.00  -0.00    -0.00  -0.00  -0.00
   8   6    -0.00  -0.00   0.00     0.01   0.00   0.00     0.00  -0.00  -0.00
   9   1     0.00   0.00  -0.00    -0.00  -0.00  -0.01    -0.00   0.00  -0.00
  10   6     0.00   0.00   0.00    -0.00   0.00  -0.00    -0.00   0.00   0.01
  11   1    -0.00   0.00  -0.00     0.00   0.00   0.00    -0.00   0.00  -0.01
  12   8     0.00  -0.00  -0.00     0.00  -0.00   0.00     0.00   0.00  -0.00
  13   8    -0.00  -0.00  -0.00    -0.00  -0.00  -0.01     0.03   0.04   0.23
  14   8     0.00  -0.00  -0.00     0.05   0.23  -0.04     0.00   0.01  -0.00
  15   8     0.00   0.00  -0.00    -0.00  -0.00  -0.01     0.00   0.00   0.01
  16   8     0.00   0.00  -0.00     0.00   0.01  -0.00    -0.00  -0.00   0.00
  17   8     0.00   0.00   0.01    -0.00   0.00   0.00     0.00  -0.00  -0.00
  18   1     0.61  -0.69  -0.28     0.00  -0.00  -0.00     0.00  -0.00  -0.00
  19   1    -0.02   0.05  -0.01    -0.00  -0.00   0.00     0.00   0.00  -0.00
  20   1     0.00   0.00   0.00     0.00   0.01   0.03    -0.11  -0.16  -0.95
  21   1     0.00   0.00   0.00    -0.21  -0.93   0.17    -0.01  -0.03   0.01
  22   1    -0.00   0.00   0.00     0.01   0.00   0.03    -0.00  -0.00  -0.02
  23   1    -0.00  -0.00   0.00    -0.01  -0.02   0.01     0.00   0.01  -0.00
  24   1    -0.01   0.01   0.00     0.00  -0.00  -0.00    -0.01   0.01   0.01
                     64                     65                     66
                        a                      a                      a 
 Frequencies --  3446.4588              3453.0779              3483.6629
 Red. masses --     1.8752                 1.8694                 1.8733
 Frc consts  --     0.0000                 0.0000                 0.0000
 IR Inten    --   106.9435                68.2643                94.5447
 Raman Activ --     0.0000                 0.0000                 0.0000
 Depolar     --     0.0000                 0.0000                 0.0000
 Atom AN      X      Y      Z        X      Y      Z        X      Y      Z
   1   6     0.00  -0.00  -0.00    -0.00   0.00  -0.00     0.00  -0.00  -0.01
   2   6    -0.00   0.00  -0.00    -0.00   0.00  -0.00     0.00  -0.00  -0.00
   3   1     0.00  -0.00   0.00    -0.00  -0.00   0.00     0.00   0.00   0.00
   4   6    -0.00   0.01   0.00     0.00  -0.00   0.00     0.00  -0.00   0.00
   5   1    -0.00  -0.00  -0.00     0.00   0.00   0.00    -0.00  -0.00  -0.00
   6   6     0.00   0.00  -0.00    -0.00   0.00  -0.01    -0.00  -0.00  -0.00
   7   1    -0.00   0.00  -0.00     0.00   0.00   0.01    -0.00   0.00   0.00
   8   6    -0.00   0.00   0.00    -0.00  -0.00   0.00    -0.00  -0.00  -0.00
   9   1    -0.00  -0.00  -0.00    -0.00   0.00   0.00     0.00   0.00   0.00
  10   6     0.00   0.00  -0.00     0.00   0.00  -0.00     0.00   0.00  -0.00
  11   1    -0.00   0.00   0.00     0.00  -0.00   0.00     0.00   0.00   0.00
  12   8    -0.00  -0.00   0.00     0.00  -0.00   0.00    -0.00  -0.00  -0.00
  13   8     0.00   0.00   0.00     0.00   0.00   0.01    -0.00  -0.00  -0.00
  14   8    -0.00  -0.01   0.00    -0.00  -0.01   0.00     0.00   0.00  -0.00
  15   8    -0.01  -0.00  -0.02    -0.05  -0.02  -0.23     0.00   0.00   0.00
  16   8     0.07   0.22  -0.06    -0.01  -0.02   0.01    -0.00  -0.00   0.00
  17   8     0.00  -0.00  -0.00     0.00  -0.00  -0.00     0.15  -0.18  -0.07
  18   1    -0.00   0.00   0.00     0.00  -0.00  -0.00    -0.01   0.01   0.00
  19   1    -0.00  -0.00   0.00    -0.00  -0.00   0.00    -0.00  -0.00   0.00
  20   1    -0.00  -0.00  -0.02    -0.00  -0.00  -0.02     0.00   0.00   0.02
  21   1     0.01   0.02  -0.00     0.00   0.03  -0.01    -0.00  -0.00   0.00
  22   1     0.02   0.00   0.10     0.19   0.05   0.94    -0.00  -0.00  -0.00
  23   1    -0.27  -0.90   0.23     0.03   0.09  -0.02     0.00   0.01  -0.00
  24   1    -0.01   0.01   0.00    -0.00   0.00   0.00    -0.58   0.71   0.31
