      -----------------------------------------------------------      
     |                   =====================                   |     
     |                           x T B                           |     
     |                   =====================                   |     
     |                         S. Grimme                         |     
     |          Mulliken Center for Theoretical Chemistry        |     
     |                    University of Bonn                     |     
      -----------------------------------------------------------      

   * xtb version 6.7.1 (edcfbbe) compiled by 'albert@albert-system' on 2024-07-22

   xtb is free software: you can redistribute it and/or modify it under
   the terms of the GNU Lesser General Public License as published by
   the Free Software Foundation, either version 3 of the License, or
   (at your option) any later version.
   
   xtb is distributed in the hope that it will be useful,
   but WITHOUT ANY WARRANTY; without even the implied warranty of
   MERCHANTABILITY or FITNESS FOR A PARTICULAR PURPOSE.  See the
   GNU Lesser General Public License for more details.
   
   Cite this work as:
   * C. Bannwarth, E. Caldeweyher, S. Ehlert, A. Hansen, P. Pracht,
     J. Seibert, S. Spicher, S. Grimme, WIREs Comput. Mol. Sci., 2020, 11,
     e01493. DOI: 10.1002/wcms.1493
   
   for GFN2-xTB:
   * C. Bannwarth, S. Ehlert and S. Grimme., J. Chem. Theory Comput., 2019,
     15, 1652-1671. DOI: 10.1021/acs.jctc.8b01176
   for GFN1-xTB:
   * S. Grimme, C. Bannwarth, P. Shushkov, J. Chem. Theory Comput., 2017,
     13, 1989-2009. DOI: 10.1021/acs.jctc.7b00118
   for GFN0-xTB:
   * P. Pracht, E. Caldeweyher, S. Ehlert, S. Grimme, ChemRxiv, 2019, preprint.
     DOI: 10.26434/chemrxiv.8326202.v1
   for GFN-FF:
   * S. Spicher and S. Grimme, Angew. Chem. Int. Ed., 2020, 59, 15665-15673.
     DOI: 10.1002/anie.202004239
   
   for ALPB and GBSA implicit solvation:
   * S. Ehlert, M. Stahn, S. Spicher, S. Grimme, J. Chem. Theory Comput.,
     2021, 17, 4250-4261. DOI: 10.1021/acs.jctc.1c00471
   
   for ddCOSMO and CPCM-X implicit solvation:
   * M. Stahn, S. Ehlert, S. Grimme, J. Phys. Chem. A,
     2023, XX, XXXX-XXXX. DOI: 10.1021/acs.jpca.3c04382
   
   for DFT-D4:
   * E. Caldeweyher, C. Bannwarth and S. Grimme, J. Chem. Phys., 2017,
     147, 034112. DOI: 10.1063/1.4993215
   * E. Caldeweyher, S. Ehlert, A. Hansen, H. Neugebauer, S. Spicher,
     C. Bannwarth and S. Grimme, J. Chem. Phys., 2019, 150, 154122.
     DOI: 10.1063/1.5090222
   * E. Caldeweyher, J.-M. Mewes, S. Ehlert and S. Grimme, Phys. Chem. Chem. Phys.
     2020, 22, 8499-8512. DOI: 10.1039/D0CP00502A
   
   for sTDA-xTB:
   * S. Grimme and C. Bannwarth, J. Chem. Phys., 2016, 145, 054103.
     DOI: 10.1063/1.4959605
   
   in the mass-spec context:
   * V. Asgeirsson, C. Bauer and S. Grimme, Chem. Sci., 2017, 8, 4879.
     DOI: 10.1039/c7sc00601b
   * J. Koopman and S. Grimme, ACS Omega 2019, 4, 12, 15120-15133.
     DOI: 10.1021/acsomega.9b02011
   
   for metadynamics refer to:
   * S. Grimme, J. Chem. Theory Comput., 2019, 155, 2847-2862
     DOI: 10.1021/acs.jctc.9b00143
   
   for SPH calculations refer to:
   * S. Spicher and S. Grimme, J. Chem. Theory Comput., 2021, 17, 1701-1714
     DOI: 10.1021/acs.jctc.0c01306
   
   for ONIOM refer to:
   * C. Plett, A. Katbashev, S. Ehlert, S. Grimme, M. Bursch,
     Phys. Chem. Chem. Phys., 2023, 25, 17860-17868. DOI: 10.1039/D3CP02178E
   
   for DIPRO refer to:
   * J. Kohn, N. Gildemeister, S. Grimme, D. Fazzi, A. Hansen,
     J. Chem. Phys., 2023, just accepted.
   
   for PTB refer to:
   * S. Grimme, M. Mueller, A. Hansen, J. Chem. Phys., 2023, 158, 124111.
     DOI: 10.1063/5.0137838
   
   with help from (in alphabetical order)
   P. Atkinson, C. Bannwarth, F. Bohle, G. Brandenburg, E. Caldeweyher
   M. Checinski, S. Dohm, S. Ehlert, S. Ehrlich, I. Gerasimov, C. Hölzer
   A. Katbashev, J. Kohn, J. Koopman, C. Lavigne, S. Lehtola, F. März, M. Müller,
   F. Musil, H. Neugebauer, J. Pisarek, C. Plett, P. Pracht, F. Pultar,
   J. Seibert, P. Shushkov, S. Spicher, M. Stahn, M. Steiner, T. Strunk,
   J. Stückrath, T. Rose, and J. Unsleber
   
 * started run on 2025/04/03 at 21:04:44.051     
   ID    Z sym.   atoms
    1    6 C      1-12
    2    1 H      13-24

           -------------------------------------------------
          |                Calculation Setup                |
           -------------------------------------------------

          program call               : /srv/scratch/z5358697/.xtb/bin/xtb xtb_rrho.coord --gfn2 --ohess vtight --chrg 0 --enso --norestart -I rrho-xcontrol-inp --parallel 1 --alpb water
          hostname                   : k146
          coordinate file            : xtb_rrho.coord
          omp threads                :                     1


           -------------------------------------------------
          |                 G F N 2 - x T B                 |
           -------------------------------------------------

        Reference                      10.1021/acs.jctc.8b01176
      * Hamiltonian:
        H0-scaling (s, p, d)           1.850000    2.230000    2.230000
        zeta-weighting                 0.500000
      * Dispersion:
        s8                             2.700000
        a1                             0.520000
        a2                             5.000000
        s9                             5.000000
      * Repulsion:
        kExp                           1.500000    1.000000
        rExp                           1.000000
      * Coulomb:
        alpha                          2.000000
        third order                    shell-resolved
        anisotropic                    true
        a3                             3.000000
        a5                             4.000000
        cn-shift                       1.200000
        cn-exp                         4.000000
        max-rad                        5.000000

      * Solvation model:               ALPB
        Solvent                        water
        Parameter file                 internal GFN2-xTB/ALPB
        Dielectric constant                8.0200E+01
        Reference state                gsolv [1 M gas/solution]
        Free energy shift                  1.0808E-03 Eh       6.7819E-01 kcal/mol
        Temperature                        2.9815E+02 K
        Density                            1.0000E+00 kg/L
        Solvent mass                       1.8000E+01 g/mol
        Interaction kernel             P16
        Born radius scaling (c1)           1.4744E+00
        Born radii integrator          GBOBC
        Born offset                        0.0000E+00 a0       0.0000E+00 AA
        H-bond correction              true
        Ion screening                  false
        Surface tension                    1.0000E-05 Eh       1.5569E+01 dyn/cm
        Grid points                               974 per atom

          ...................................................
          :                      SETUP                      :
          :.................................................:
          :  # basis functions                  60          :
          :  # atomic orbitals                  60          :
          :  # shells                           36          :
          :  # electrons                        60          :
          :  max. iterations                   250          :
          :  Hamiltonian                  GFN2-xTB          :
          :  restarted?                      false          :
          :  GBSA solvation                   true          :
          :  PC potential                    false          :
          :  electronic temp.          300.0000000     K    :
          :  accuracy                    1.0000000          :
          :  -> integral cutoff          0.2500000E+02      :
          :  -> integral neglect         0.1000000E-07      :
          :  -> SCF convergence          0.1000000E-05 Eh   :
          :  -> wf. convergence          0.1000000E-03 e    :
          :  Broyden damping             0.4000000          :
          :  net charge                          0          :
          :  unpaired electrons                  0          :
          ...................................................

 iter      E             dE          RMSdq      gap      omega  full diag
   1    -32.3746261 -0.323746E+02  0.419E+00    3.17       0.0  T
   2    -32.3859353 -0.113092E-01  0.249E+00    3.14       1.0  T
   3    -32.3783395  0.759572E-02  0.731E-01    3.16       1.0  T
   4    -32.3882370 -0.989751E-02  0.179E-01    3.13       1.0  T
   5    -32.3885731 -0.336014E-03  0.589E-02    3.13       1.0  T
   6    -32.3885932 -0.201583E-04  0.263E-02    3.13       1.0  T
   7    -32.3885971 -0.385563E-05  0.116E-02    3.13       1.8  T
   8    -32.3885972 -0.155869E-06  0.261E-03    3.13       7.8  T
   9    -32.3885973 -0.921698E-07  0.802E-04    3.13      25.5  T
  10    -32.3885973 -0.384134E-08  0.476E-04    3.13      42.9  T

   *** convergence criteria satisfied after 10 iterations ***

         #    Occupation            Energy/Eh            Energy/eV
      -------------------------------------------------------------
         1        2.0000           -0.6408698             -17.4390
       ...           ...                  ...                  ...
        24        2.0000           -0.4311801             -11.7330
        25        2.0000           -0.4302694             -11.7082
        26        2.0000           -0.4154606             -11.3053
        27        2.0000           -0.4106752             -11.1750
        28        2.0000           -0.4080193             -11.1028
        29        2.0000           -0.3826859             -10.4134
        30        2.0000           -0.3677699             -10.0075 (HOMO)
        31                         -0.2526946              -6.8762 (LUMO)
        32                         -0.2220658              -6.0427
        33                         -0.1829620              -4.9786
        34                         -0.1431726              -3.8959
        35                         -0.0556618              -1.5146
       ...                                ...                  ...
        60                          0.6795243              18.4908
      -------------------------------------------------------------
                  HL-Gap            0.1150754 Eh            3.1314 eV
             Fermi-level           -0.3102322 Eh           -8.4418 eV

 SCC (total)                   0 d,  0 h,  0 min,  0.016 sec
 SCC setup                      ...        0 min,  0.001 sec (  7.219%)
 Dispersion                     ...        0 min,  0.000 sec (  0.839%)
 classical contributions        ...        0 min,  0.000 sec (  0.133%)
 integral evaluation            ...        0 min,  0.002 sec ( 13.026%)
 iterations                     ...        0 min,  0.007 sec ( 42.092%)
 molecular gradient             ...        0 min,  0.006 sec ( 35.914%)
 printout                       ...        0 min,  0.000 sec (  0.712%)

         :::::::::::::::::::::::::::::::::::::::::::::::::::::
         ::                     SUMMARY                     ::
         :::::::::::::::::::::::::::::::::::::::::::::::::::::
         :: total energy             -31.814847672180 Eh    ::
         :: total w/o Gsasa/hb       -31.813158556764 Eh    ::
         :: gradient norm              0.021316120743 Eh/a0 ::
         :: HOMO-LUMO gap              3.131359706099 eV    ::
         ::.................................................::
         :: SCC energy               -32.388574855013 Eh    ::
         :: -> isotropic ES            0.004312910697 Eh    ::
         :: -> anisotropic ES          0.005960270684 Eh    ::
         :: -> anisotropic XC          0.020488163949 Eh    ::
         :: -> dispersion             -0.022260633523 Eh    ::
         :: -> Gsolv                  -0.002526216900 Eh    ::
         ::    -> Gelec               -0.000837101484 Eh    ::
         ::    -> Gsasa               -0.002103492450 Eh    ::
         ::    -> Ghb                 -0.000666382663 Eh    ::
         ::    -> Gshift               0.001080759698 Eh    ::
         :: repulsion energy           0.573727182833 Eh    ::
         :: add. restraining           0.000000000000 Eh    ::
         :: total charge              -0.000000000000 e     ::
         :::::::::::::::::::::::::::::::::::::::::::::::::::::

      ----------------------------------------------------------- 
     |                   =====================                   |
     |                        A N C O P T                        |
     |                   =====================                   |
     |               Approximate Normal Coordinate               |
     |                Rational Function Optimizer                |
      ----------------------------------------------------------- 
      ----------------------------------------------------------- 
     |                   =====================                   |
     |                        A N C O P T                        |
     |                   =====================                   |
     |               Approximate Normal Coordinate               |
     |                Rational Function Optimizer                |
      ----------------------------------------------------------- 

          ...................................................
          :                      SETUP                      :
          :.................................................:
          :   optimization level         verytight          :
          :   max. optcycles                   480          :
          :   ANC micro-cycles                  20          :
          :   degrees of freedom                66          :
          :.................................................:
          :   RF solver                   davidson          :
          :   write xtbopt.log                true          :
          :   linear?                        false          :
          :   energy convergence         0.1000000E-06 Eh   :
          :   grad. convergence          0.2000000E-03 Eh/α :
          :   maxmium RF displ.          1.0000000          :
          :   Hlow (freq-cutoff)         0.1000000E-01      :
          :   Hmax (freq-cutoff)         5.0000000          :
          :   S6 in model hess.         20.0000000          :
          ...................................................

generating ANC from exact Hessian ...
Using Lindh-Hessian (1995)
 Shifting diagonal of input Hessian by   8.075727756801715E-003
 Lowest  eigenvalues of input Hessian
    0.000000    0.000000    0.000000    0.000000    0.000000    0.000000
    0.010000    0.010870    0.014746    0.015765    0.017404    0.018709
    0.019836    0.019991    0.025269    0.028754    0.030414    0.040897
 Highest eigenvalues
    1.720245    1.774464    1.823965    1.897497    1.960519    2.063628
 

........................................................................
.............................. CYCLE    1 ..............................
........................................................................

 iter      E             dE          RMSdq      gap      omega  full diag
   1    -32.3885973 -0.323886E+02  0.181E-04    3.13       0.0  T
   2    -32.3885973 -0.191790E-09  0.128E-04    3.13     159.3  T
   3    -32.3885973 -0.195378E-09  0.674E-05    3.13     302.9  T
     SCC iter.                  ...        0 min,  0.002 sec
     gradient                   ...        0 min,  0.006 sec
 * total energy  :   -31.8148477 Eh     change       -0.8368133E-09 Eh
   gradient norm :     0.0213166 Eh/α   predicted     0.0000000E+00 (-100.00%)
   displ. norm   :     0.1367300 α      lambda       -0.1937945E-02
   maximum displ.:     0.1046118 α      in ANC's #13, #37, #32, ...

........................................................................
.............................. CYCLE    2 ..............................
........................................................................

 iter      E             dE          RMSdq      gap      omega  full diag
   1    -32.4130285 -0.324130E+02  0.107E-01    3.17       0.0  T
   2    -32.4130328 -0.428734E-05  0.642E-02    3.17       1.0  T
   3    -32.4130281  0.469923E-05  0.174E-02    3.17       1.2  T
   4    -32.4130338 -0.574627E-05  0.288E-03    3.17       7.1  T
   5    -32.4130339 -0.801482E-07  0.142E-03    3.17      14.4  T
   6    -32.4130339 -0.221435E-08  0.772E-04    3.17      26.4  T
   7    -32.4130339 -0.394643E-08  0.312E-04    3.17      65.3  T
     SCC iter.                  ...        0 min,  0.003 sec
     gradient                   ...        0 min,  0.006 sec
 * total energy  :   -31.8160221 Eh     change       -0.1174395E-02 Eh
   gradient norm :     0.0058755 Eh/α   predicted    -0.9870917E-03 ( -15.95%)
   displ. norm   :     0.0429039 α      lambda       -0.1223708E-03
   maximum displ.:     0.0341583 α      in ANC's #13, #32, #5, ...

........................................................................
.............................. CYCLE    3 ..............................
........................................................................

 iter      E             dE          RMSdq      gap      omega  full diag
   1    -32.4193382 -0.324193E+02  0.303E-02    3.18       0.0  T
   2    -32.4193386 -0.412241E-06  0.180E-02    3.18       1.1  T
   3    -32.4193384  0.198716E-06  0.399E-03    3.18       5.1  T
   4    -32.4193387 -0.258269E-06  0.937E-04    3.18      21.8  T
   5    -32.4193387 -0.959673E-08  0.462E-04    3.18      44.2  T
     SCC iter.                  ...        0 min,  0.002 sec
     gradient                   ...        0 min,  0.006 sec
 * total energy  :   -31.8160861 Eh     change       -0.6398497E-04 Eh
   gradient norm :     0.0015372 Eh/α   predicted    -0.6131695E-04 (  -4.17%)
   displ. norm   :     0.0136738 α      lambda       -0.3659334E-05
   maximum displ.:     0.0067548 α      in ANC's #5, #4, #7, ...

........................................................................
.............................. CYCLE    4 ..............................
........................................................................

 iter      E             dE          RMSdq      gap      omega  full diag
   1    -32.4193780 -0.324194E+02  0.651E-03    3.18       0.0  T
   2    -32.4193781 -0.167529E-07  0.391E-03    3.18       5.2  T
   3    -32.4193780  0.258024E-07  0.118E-03    3.18      17.3  T
   4    -32.4193781 -0.328086E-07  0.199E-04    3.18     102.6  T
   5    -32.4193781 -0.195826E-09  0.116E-04    3.18     176.7  T
     SCC iter.                  ...        0 min,  0.002 sec
     gradient                   ...        0 min,  0.006 sec
 * total energy  :   -31.8160895 Eh     change       -0.3446053E-05 Eh
   gradient norm :     0.0003184 Eh/α   predicted    -0.1887952E-05 ( -45.21%)
   displ. norm   :     0.0139850 α      lambda       -0.1145911E-05
   maximum displ.:     0.0096631 α      in ANC's #4, #3, #6, ...

........................................................................
.............................. CYCLE    5 ..............................
........................................................................

 iter      E             dE          RMSdq      gap      omega  full diag
   1    -32.4190750 -0.324191E+02  0.379E-03    3.18       0.0  T
   2    -32.4190751 -0.180510E-08  0.229E-03    3.18       8.9  T
   3    -32.4190750  0.390460E-08  0.465E-04    3.18      43.9  T
   4    -32.4190751 -0.482322E-08  0.792E-05    3.18     257.8  T
     SCC iter.                  ...        0 min,  0.002 sec
     gradient                   ...        0 min,  0.006 sec
 * total energy  :   -31.8160909 Eh     change       -0.1400533E-05 Eh
   gradient norm :     0.0003424 Eh/α   predicted    -0.5812749E-06 ( -58.50%)
   displ. norm   :     0.0590889 α      lambda       -0.3578594E-05
   maximum displ.:     0.0422396 α      in ANC's #4, #3, #6, ...

........................................................................
.............................. CYCLE    6 ..............................
........................................................................

 iter      E             dE          RMSdq      gap      omega  full diag
   1    -32.4186361 -0.324186E+02  0.139E-02    3.18       0.0  T
   2    -32.4186361 -0.122030E-07  0.834E-03    3.18       2.4  T
   3    -32.4186361  0.971227E-08  0.872E-04    3.18      23.4  T
   4    -32.4186361 -0.151073E-07  0.249E-04    3.18      81.8  T
     SCC iter.                  ...        0 min,  0.002 sec
     gradient                   ...        0 min,  0.006 sec
 * total energy  :   -31.8160958 Eh     change       -0.4870050E-05 Eh
   gradient norm :     0.0014102 Eh/α   predicted    -0.1821675E-05 ( -62.59%)
   displ. norm   :     0.4947209 α      lambda       -0.2922676E-04
   maximum displ.:     0.3555267 α      in ANC's #4, #3, #6, ...

........................................................................
.............................. CYCLE    7 ..............................
........................................................................

 iter      E             dE          RMSdq      gap      omega  full diag
   1    -32.4111545 -0.324112E+02  0.120E-01    3.18       0.0  T
   2    -32.4111622 -0.771770E-05  0.709E-02    3.18       1.0  T
   3    -32.4111624 -0.204708E-06  0.103E-02    3.18       2.0  T
   4    -32.4111629 -0.442653E-06  0.387E-03    3.18       5.3  T
   5    -32.4111630 -0.126900E-06  0.192E-03    3.18      10.6  T
   6    -32.4111630 -0.414455E-08  0.625E-04    3.18      32.6  T
   7    -32.4111630 -0.407122E-08  0.209E-04    3.18      97.5  T
     SCC iter.                  ...        0 min,  0.003 sec
     gradient                   ...        0 min,  0.006 sec
 * total energy  :   -31.8158777 Eh     change        0.2180593E-03 Eh
   gradient norm :     0.0158108 Eh/α   predicted    -0.1620743E-04 (-107.43%)
   displ. norm   :     0.2640502 α      lambda       -0.5322892E-03
   maximum displ.:     0.1877174 α      in ANC's #4, #3, #6, ...

........................................................................
.............................. CYCLE    8 ..............................
........................................................................

 iter      E             dE          RMSdq      gap      omega  full diag
   1    -32.4166694 -0.324167E+02  0.712E-02    3.18       0.0  T
   2    -32.4166737 -0.427490E-05  0.411E-02    3.18       1.0  T
   3    -32.4166739 -0.189997E-06  0.772E-03    3.18       2.6  T
   4    -32.4166739 -0.931002E-07  0.232E-03    3.18       8.8  T
   5    -32.4166740 -0.339498E-07  0.122E-03    3.18      16.7  T
   6    -32.4166740 -0.377798E-08  0.417E-04    3.18      48.9  T
   7    -32.4166740 -0.155988E-08  0.145E-04    3.18     140.6  T
     SCC iter.                  ...        0 min,  0.003 sec
     gradient                   ...        0 min,  0.006 sec
 * total energy  :   -31.8161118 Eh     change       -0.2340601E-03 Eh
   gradient norm :     0.0052018 Eh/α   predicted    -0.2844824E-03 (  21.54%)
   displ. norm   :     0.0106984 α      lambda       -0.1582227E-04
   maximum displ.:     0.0067425 α      in ANC's #4, #3, #6, ...

........................................................................
.............................. CYCLE    9 ..............................
........................................................................

 iter      E             dE          RMSdq      gap      omega  full diag
   1    -32.4172030 -0.324172E+02  0.479E-03    3.18       0.0  T
   2    -32.4172031 -0.354463E-07  0.266E-03    3.18       7.7  T
   3    -32.4172031 -0.116565E-08  0.750E-04    3.18      27.2  T
   4    -32.4172031 -0.100500E-08  0.263E-04    3.18      77.8  T
     SCC iter.                  ...        0 min,  0.002 sec
     gradient                   ...        0 min,  0.006 sec
 * total energy  :   -31.8161258 Eh     change       -0.1398341E-04 Eh
   gradient norm :     0.0045302 Eh/α   predicted    -0.7909070E-05 ( -43.44%)
   displ. norm   :     0.0965948 α      lambda       -0.6715252E-04
   maximum displ.:     0.0688399 α      in ANC's #4, #3, #6, ...

........................................................................
.............................. CYCLE   10 ..............................
........................................................................

 iter      E             dE          RMSdq      gap      omega  full diag
   1    -32.4189104 -0.324189E+02  0.248E-02    3.18       0.0  T
   2    -32.4189106 -0.262898E-06  0.146E-02    3.18       1.4  T
   3    -32.4189106  0.844663E-08  0.204E-03    3.18      10.0  T
   4    -32.4189107 -0.321251E-07  0.891E-04    3.18      22.9  T
   5    -32.4189107 -0.890137E-08  0.384E-04    3.18      53.2  T
     SCC iter.                  ...        0 min,  0.002 sec
     gradient                   ...        0 min,  0.006 sec
 * total energy  :   -31.8161775 Eh     change       -0.5178438E-04 Eh
   gradient norm :     0.0034912 Eh/α   predicted    -0.3385797E-04 ( -34.62%)
   displ. norm   :     0.3738266 α      lambda       -0.1610306E-03
   maximum displ.:     0.2707345 α      in ANC's #4, #3, #6, ...

........................................................................
.............................. CYCLE   11 ..............................
........................................................................

 iter      E             dE          RMSdq      gap      omega  full diag
   1    -32.4192289 -0.324192E+02  0.829E-02    3.19       0.0  T
   2    -32.4192298 -0.878608E-06  0.499E-02    3.19       1.0  T
   3    -32.4192297  0.676411E-07  0.382E-03    3.19       5.3  T
   4    -32.4192299 -0.196191E-06  0.158E-03    3.19      12.9  T
   5    -32.4192300 -0.297454E-07  0.775E-04    3.19      26.4  T
   6    -32.4192300 -0.472767E-09  0.252E-04    3.19      81.1  T
     SCC iter.                  ...        0 min,  0.003 sec
     gradient                   ...        0 min,  0.006 sec
 * total energy  :   -31.8163900 Eh     change       -0.2124321E-03 Eh
   gradient norm :     0.0020168 Eh/α   predicted    -0.9126203E-04 ( -57.04%)
   displ. norm   :     0.4770596 α      lambda       -0.2787728E-03
   maximum displ.:     0.3451395 α      in ANC's #4, #3, #6, ...

........................................................................
.............................. CYCLE   12 ..............................
........................................................................

 iter      E             dE          RMSdq      gap      omega  full diag
   1    -32.4128444 -0.324128E+02  0.123E-01    3.19       0.0  T
   2    -32.4128633 -0.189031E-04  0.703E-02    3.19       1.0  T
   3    -32.4128640 -0.700037E-06  0.170E-02    3.19       1.2  T
   4    -32.4128643 -0.274554E-06  0.389E-03    3.19       5.2  T
   5    -32.4128644 -0.102338E-06  0.238E-03    3.19       8.6  T
   6    -32.4128644 -0.288735E-07  0.591E-04    3.19      34.5  T
   7    -32.4128644 -0.236371E-08  0.249E-04    3.19      82.0  T
     SCC iter.                  ...        0 min,  0.003 sec
     gradient                   ...        0 min,  0.006 sec
 * total energy  :   -31.8160839 Eh     change        0.3061133E-03 Eh
   gradient norm :     0.0224577 Eh/α   predicted    -0.1697478E-03 (-155.45%)
   displ. norm   :     0.2560278 α      lambda       -0.1557174E-02
   maximum displ.:     0.1823821 α      in ANC's #4, #3, #6, ...

........................................................................
.............................. CYCLE   13 ..............................
........................................................................

 iter      E             dE          RMSdq      gap      omega  full diag
   1    -32.4187683 -0.324188E+02  0.810E-02    3.19       0.0  T
   2    -32.4187792 -0.109426E-04  0.450E-02    3.19       1.0  T
   3    -32.4187797 -0.459315E-06  0.127E-02    3.19       1.6  T
   4    -32.4187798 -0.926814E-07  0.270E-03    3.19       7.6  T
   5    -32.4187798 -0.248155E-07  0.164E-03    3.19      12.5  T
   6    -32.4187798 -0.164919E-07  0.422E-04    3.19      48.3  T
   7    -32.4187798 -0.120677E-08  0.153E-04    3.19     133.7  T
     SCC iter.                  ...        0 min,  0.003 sec
     gradient                   ...        0 min,  0.006 sec
 * total energy  :   -31.8165180 Eh     change       -0.4341022E-03 Eh
   gradient norm :     0.0055674 Eh/α   predicted    -0.5841065E-03 (  34.56%)
   displ. norm   :     0.0399128 α      lambda       -0.9541778E-04
   maximum displ.:     0.0282953 α      in ANC's #4, #3, #6, ...

........................................................................
.............................. CYCLE   14 ..............................
........................................................................

 iter      E             dE          RMSdq      gap      omega  full diag
   1    -32.4190830 -0.324191E+02  0.100E-02    3.19       0.0  T
   2    -32.4190830 -0.212141E-07  0.598E-03    3.19       3.4  T
   3    -32.4190830 -0.170925E-08  0.501E-04    3.19      40.8  T
   4    -32.4190830 -0.122874E-08  0.242E-04    3.19      84.5  T
     SCC iter.                  ...        0 min,  0.002 sec
     gradient                   ...        0 min,  0.006 sec
 * total energy  :   -31.8165594 Eh     change       -0.4139112E-04 Eh
   gradient norm :     0.0047546 Eh/α   predicted    -0.2202268E-04 ( -46.79%)
   displ. norm   :     0.3514675 α      lambda       -0.1063371E-02
   maximum displ.:     0.2451937 α      in ANC's #4, #3, #6, ...

........................................................................
.............................. CYCLE   15 ..............................
........................................................................

 iter      E             dE          RMSdq      gap      omega  full diag
   1    -32.4187338 -0.324187E+02  0.771E-02    3.19       0.0  T
   2    -32.4187343 -0.504742E-06  0.463E-02    3.19       1.0  T
   3    -32.4187344 -0.708281E-07  0.207E-03    3.19       9.9  T
   4    -32.4187344 -0.261413E-07  0.111E-03    3.19      18.3  T
   5    -32.4187344 -0.686777E-08  0.610E-04    3.19      33.5  T
   6    -32.4187345 -0.793456E-09  0.146E-04    3.19     139.9  T
     SCC iter.                  ...        0 min,  0.003 sec
     gradient                   ...        0 min,  0.006 sec
 * total energy  :   -31.8168413 Eh     change       -0.2819684E-03 Eh
   gradient norm :     0.0058347 Eh/α   predicted    -0.2237986E-03 ( -20.63%)
   displ. norm   :     0.4759433 α      lambda       -0.1919562E-02
   maximum displ.:     0.3257187 α      in ANC's #4, #3, #6, ...

........................................................................
.............................. CYCLE   16 ..............................
........................................................................

 iter      E             dE          RMSdq      gap      omega  full diag
   1    -32.4137429 -0.324137E+02  0.111E-01    3.20       0.0  T
   2    -32.4137532 -0.103701E-04  0.649E-02    3.20       1.0  T
   3    -32.4137537 -0.440279E-06  0.118E-02    3.20       1.7  T
   4    -32.4137539 -0.172553E-06  0.285E-03    3.20       7.2  T
   5    -32.4137539 -0.375545E-07  0.173E-03    3.20      11.8  T
   6    -32.4137539 -0.150966E-07  0.427E-04    3.20      47.9  T
   7    -32.4137539 -0.151002E-08  0.165E-04    3.20     124.0  T
     SCC iter.                  ...        0 min,  0.003 sec
     gradient                   ...        0 min,  0.006 sec
 * total energy  :   -31.8168118 Eh     change        0.2956298E-04 Eh
   gradient norm :     0.0191089 Eh/α   predicted    -0.2567952E-03 (-968.64%)
   displ. norm   :     0.0436634 α      lambda       -0.2102462E-02
   maximum displ.:     0.0178637 α      in ANC's #41, #38, #3, ...

........................................................................
.............................. CYCLE   17 ..............................
........................................................................

 iter      E             dE          RMSdq      gap      omega  full diag
   1    -32.4184343 -0.324184E+02  0.478E-02    3.20       0.0  T
   2    -32.4184402 -0.588694E-05  0.251E-02    3.20       1.0  T
   3    -32.4184404 -0.259310E-06  0.901E-03    3.20       2.3  T
   4    -32.4184405 -0.424128E-07  0.191E-03    3.20      10.7  T
   5    -32.4184405 -0.120315E-08  0.106E-03    3.20      19.3  T
   6    -32.4184405 -0.625037E-08  0.386E-04    3.20      52.8  T
   7    -32.4184405 -0.109545E-08  0.134E-04    3.20     152.3  T
     SCC iter.                  ...        0 min,  0.003 sec
     gradient                   ...        0 min,  0.006 sec
 * total energy  :   -31.8172554 Eh     change       -0.4436663E-03 Eh
   gradient norm :     0.0068835 Eh/α   predicted    -0.3433092E-03 ( -22.62%)
   displ. norm   :     0.1669426 α      lambda       -0.1034115E-02
   maximum displ.:     0.0982645 α      in ANC's #4, #3, #6, ...

........................................................................
.............................. CYCLE   18 ..............................
........................................................................

 iter      E             dE          RMSdq      gap      omega  full diag
   1    -32.4201313 -0.324201E+02  0.395E-02    3.20       0.0  T
   2    -32.4201317 -0.475329E-06  0.234E-02    3.20       1.0  T
   3    -32.4201318 -0.282307E-07  0.233E-03    3.20       8.8  T
   4    -32.4201318 -0.238231E-07  0.895E-04    3.20      22.8  T
   5    -32.4201318 -0.588306E-08  0.517E-04    3.20      39.5  T
     SCC iter.                  ...        0 min,  0.002 sec
     gradient                   ...        0 min,  0.006 sec
 * total energy  :   -31.8174510 Eh     change       -0.1955298E-03 Eh
   gradient norm :     0.0033866 Eh/α   predicted    -0.1409949E-03 ( -27.89%)
   displ. norm   :     0.3254196 α      lambda       -0.1952835E-02
   maximum displ.:     0.1921072 α      in ANC's #4, #3, #6, ...

........................................................................
.............................. CYCLE   19 ..............................
........................................................................

 iter      E             dE          RMSdq      gap      omega  full diag
   1    -32.4187846 -0.324188E+02  0.717E-02    3.21       0.0  T
   2    -32.4187865 -0.187778E-05  0.426E-02    3.21       1.0  T
   3    -32.4187866 -0.978027E-07  0.414E-03    3.21       4.9  T
   4    -32.4187866 -0.420713E-07  0.128E-03    3.21      15.9  T
   5    -32.4187866 -0.779672E-08  0.808E-04    3.21      25.3  T
   6    -32.4187866 -0.294738E-08  0.254E-04    3.21      80.2  T
     SCC iter.                  ...        0 min,  0.003 sec
     gradient                   ...        0 min,  0.006 sec
 * total energy  :   -31.8176608 Eh     change       -0.2098109E-03 Eh
   gradient norm :     0.0072141 Eh/α   predicted    -0.2036257E-03 (  -2.95%)
   displ. norm   :     0.2291900 α      lambda       -0.1115112E-02
   maximum displ.:     0.1139061 α      in ANC's #4, #3, #6, ...

........................................................................
.............................. CYCLE   20 ..............................
........................................................................

 iter      E             dE          RMSdq      gap      omega  full diag
   1    -32.4185417 -0.324185E+02  0.520E-02    3.21       0.0  T
   2    -32.4185423 -0.532905E-06  0.311E-02    3.21       1.0  T
   3    -32.4185423 -0.259035E-07  0.214E-03    3.21       9.5  T
   4    -32.4185423 -0.293052E-07  0.855E-04    3.21      23.9  T
   5    -32.4185423 -0.483144E-08  0.503E-04    3.21      40.6  T
     SCC iter.                  ...        0 min,  0.002 sec
     gradient                   ...        0 min,  0.006 sec
 * total energy  :   -31.8177873 Eh     change       -0.1265470E-03 Eh
   gradient norm :     0.0086418 Eh/α   predicted    -0.9822129E-04 ( -22.38%)
   displ. norm   :     0.1623197 α      lambda       -0.2188629E-02
   maximum displ.:     0.0700181 α      in ANC's #2, #38, #3, ...
 * RMSD in coord.:     0.5402833 α      energy gain  -0.2939638E-02 Eh

generating ANC from exact Hessian ...
Using Lindh-Hessian (1995)
 Shifting diagonal of input Hessian by   7.926679600944129E-003
 Lowest  eigenvalues of input Hessian
    0.000000    0.000000    0.000000    0.000000    0.000000    0.000000
    0.010000    0.010930    0.015040    0.016459    0.017937    0.019221
    0.020523    0.020853    0.026510    0.030271    0.032174    0.042797
 Highest eigenvalues
    1.769425    1.824318    1.886272    1.953213    2.024984    2.126980
 

........................................................................
.............................. CYCLE   21 ..............................
........................................................................

 iter      E             dE          RMSdq      gap      omega  full diag
   1    -32.4225815 -0.324226E+02  0.594E-02    3.22       0.0  T
   2    -32.4225839 -0.244583E-05  0.343E-02    3.22       1.0  T
   3    -32.4225841 -0.196962E-06  0.521E-03    3.22       3.9  T
   4    -32.4225842 -0.387513E-07  0.166E-03    3.22      12.3  T
   5    -32.4225842 -0.456196E-08  0.922E-04    3.22      22.1  T
   6    -32.4225842 -0.424823E-08  0.242E-04    3.22      84.5  T
     SCC iter.                  ...        0 min,  0.003 sec
     gradient                   ...        0 min,  0.007 sec
 * total energy  :   -31.8179376 Eh     change       -0.1502782E-03 Eh
   gradient norm :     0.0050419 Eh/α   predicted     0.0000000E+00 (-100.00%)
   displ. norm   :     0.0460806 α      lambda       -0.8606132E-04
   maximum displ.:     0.0344049 α      in ANC's #3, #15, #2, ...

........................................................................
.............................. CYCLE   22 ..............................
........................................................................

 iter      E             dE          RMSdq      gap      omega  full diag
   1    -32.4216937 -0.324217E+02  0.242E-02    3.21       0.0  T
   2    -32.4216939 -0.144780E-06  0.143E-02    3.21       1.4  T
   3    -32.4216938  0.468485E-07  0.214E-03    3.21       9.5  T
   4    -32.4216939 -0.843455E-07  0.723E-04    3.21      28.2  T
   5    -32.4216939 -0.327699E-08  0.376E-04    3.21      54.3  T
     SCC iter.                  ...        0 min,  0.003 sec
     gradient                   ...        0 min,  0.007 sec
 * total energy  :   -31.8179992 Eh     change       -0.6160193E-04 Eh
   gradient norm :     0.0019619 Eh/α   predicted    -0.4408879E-04 ( -28.43%)
   displ. norm   :     0.1117972 α      lambda       -0.5171336E-04
   maximum displ.:     0.0943726 α      in ANC's #3, #6, #2, ...

........................................................................
.............................. CYCLE   23 ..............................
........................................................................

 iter      E             dE          RMSdq      gap      omega  full diag
   1    -32.4207702 -0.324208E+02  0.344E-02    3.21       0.0  T
   2    -32.4207703 -0.175773E-06  0.205E-02    3.21       1.0  T
   3    -32.4207703  0.507674E-07  0.250E-03    3.21       8.2  T
   4    -32.4207704 -0.104676E-06  0.854E-04    3.21      23.9  T
   5    -32.4207704 -0.257909E-08  0.461E-04    3.21      44.2  T
     SCC iter.                  ...        0 min,  0.003 sec
     gradient                   ...        0 min,  0.007 sec
 * total energy  :   -31.8180429 Eh     change       -0.4368093E-04 Eh
   gradient norm :     0.0026756 Eh/α   predicted    -0.2604500E-04 ( -40.37%)
   displ. norm   :     0.0529842 α      lambda       -0.2849294E-04
   maximum displ.:     0.0415128 α      in ANC's #3, #6, #2, ...

........................................................................
.............................. CYCLE   24 ..............................
........................................................................

 iter      E             dE          RMSdq      gap      omega  full diag
   1    -32.4209398 -0.324209E+02  0.126E-02    3.21       0.0  T
   2    -32.4209398 -0.621168E-08  0.753E-03    3.21       2.7  T
   3    -32.4209398  0.152831E-09  0.458E-04    3.21      44.6  T
   4    -32.4209399 -0.311017E-08  0.195E-04    3.21     104.8  T
     SCC iter.                  ...        0 min,  0.002 sec
     gradient                   ...        0 min,  0.007 sec
 * total energy  :   -31.8180691 Eh     change       -0.2627572E-04 Eh
   gradient norm :     0.0025564 Eh/α   predicted    -0.1428878E-04 ( -45.62%)
   displ. norm   :     0.1852887 α      lambda       -0.9545271E-04
   maximum displ.:     0.1325342 α      in ANC's #3, #6, #4, ...

........................................................................
.............................. CYCLE   25 ..............................
........................................................................

 iter      E             dE          RMSdq      gap      omega  full diag
   1    -32.4211159 -0.324211E+02  0.426E-02    3.21       0.0  T
   2    -32.4211160 -0.939745E-07  0.256E-02    3.21       1.0  T
   3    -32.4211160 -0.205979E-07  0.110E-03    3.21      18.6  T
   4    -32.4211160 -0.103710E-07  0.598E-04    3.21      34.1  T
   5    -32.4211160 -0.962650E-09  0.324E-04    3.21      63.0  T
     SCC iter.                  ...        0 min,  0.003 sec
     gradient                   ...        0 min,  0.007 sec
 * total energy  :   -31.8181413 Eh     change       -0.7210418E-04 Eh
   gradient norm :     0.0022374 Eh/α   predicted    -0.4938186E-04 ( -31.51%)
   displ. norm   :     0.2072291 α      lambda       -0.6502599E-04
   maximum displ.:     0.1469292 α      in ANC's #3, #6, #4, ...

........................................................................
.............................. CYCLE   26 ..............................
........................................................................

 iter      E             dE          RMSdq      gap      omega  full diag
   1    -32.4205454 -0.324205E+02  0.465E-02    3.21       0.0  T
   2    -32.4205457 -0.252008E-06  0.279E-02    3.21       1.0  T
   3    -32.4205457 -0.276371E-07  0.149E-03    3.21      13.7  T
   4    -32.4205457 -0.142312E-07  0.699E-04    3.21      29.2  T
   5    -32.4205457 -0.211683E-08  0.405E-04    3.21      50.4  T
     SCC iter.                  ...        0 min,  0.003 sec
     gradient                   ...        0 min,  0.007 sec
 * total energy  :   -31.8181775 Eh     change       -0.3624659E-04 Eh
   gradient norm :     0.0037210 Eh/α   predicted    -0.3391338E-04 (  -6.44%)
   displ. norm   :     0.0530819 α      lambda       -0.3461119E-04
   maximum displ.:     0.0378517 α      in ANC's #6, #3, #41, ...

........................................................................
.............................. CYCLE   27 ..............................
........................................................................

 iter      E             dE          RMSdq      gap      omega  full diag
   1    -32.4215769 -0.324216E+02  0.159E-02    3.21       0.0  T
   2    -32.4215771 -0.185912E-06  0.917E-03    3.21       2.2  T
   3    -32.4215771 -0.128390E-07  0.155E-03    3.21      13.2  T
   4    -32.4215771 -0.337865E-08  0.520E-04    3.21      39.3  T
   5    -32.4215771 -0.119123E-08  0.286E-04    3.21      71.4  T
     SCC iter.                  ...        0 min,  0.002 sec
     gradient                   ...        0 min,  0.006 sec
 * total energy  :   -31.8181999 Eh     change       -0.2237092E-04 Eh
   gradient norm :     0.0015397 Eh/α   predicted    -0.1735502E-04 ( -22.42%)
   displ. norm   :     0.1639897 α      lambda       -0.1700512E-04
   maximum displ.:     0.1164627 α      in ANC's #3, #6, #4, ...

........................................................................
.............................. CYCLE   28 ..............................
........................................................................

 iter      E             dE          RMSdq      gap      omega  full diag
   1    -32.4214218 -0.324214E+02  0.368E-02    3.21       0.0  T
   2    -32.4214219 -0.699108E-07  0.221E-02    3.21       1.0  T
   3    -32.4214219 -0.252384E-07  0.898E-04    3.21      22.7  T
   4    -32.4214219 -0.214352E-08  0.514E-04    3.21      39.7  T
     SCC iter.                  ...        0 min,  0.002 sec
     gradient                   ...        0 min,  0.006 sec
 * total energy  :   -31.8182127 Eh     change       -0.1279217E-04 Eh
   gradient norm :     0.0017839 Eh/α   predicted    -0.8608351E-05 ( -32.71%)
   displ. norm   :     0.0214399 α      lambda       -0.7139995E-05
   maximum displ.:     0.0152659 α      in ANC's #2, #1, #3, ...

........................................................................
.............................. CYCLE   29 ..............................
........................................................................

 iter      E             dE          RMSdq      gap      omega  full diag
   1    -32.4223400 -0.324223E+02  0.114E-02    3.21       0.0  T
   2    -32.4223402 -0.179697E-06  0.640E-03    3.21       3.2  T
   3    -32.4223402 -0.776623E-10  0.168E-03    3.21      12.2  T
   4    -32.4223402 -0.713111E-08  0.494E-04    3.21      41.3  T
   5    -32.4223402 -0.357146E-08  0.230E-04    3.21      88.8  T
     SCC iter.                  ...        0 min,  0.002 sec
     gradient                   ...        0 min,  0.006 sec
 * total energy  :   -31.8182154 Eh     change       -0.2778421E-05 Eh
   gradient norm :     0.0011757 Eh/α   predicted    -0.3572433E-05 (  28.58%)
   displ. norm   :     0.0337990 α      lambda       -0.2909146E-05
   maximum displ.:     0.0282892 α      in ANC's #3, #6, #4, ...

........................................................................
.............................. CYCLE   30 ..............................
........................................................................

 iter      E             dE          RMSdq      gap      omega  full diag
   1    -32.4218974 -0.324219E+02  0.887E-03    3.21       0.0  T
   2    -32.4218975 -0.283103E-07  0.523E-03    3.21       3.9  T
   3    -32.4218975 -0.236212E-08  0.540E-04    3.21      37.8  T
   4    -32.4218975 -0.714820E-09  0.214E-04    3.21      95.5  T
     SCC iter.                  ...        0 min,  0.002 sec
     gradient                   ...        0 min,  0.006 sec
 * total energy  :   -31.8182179 Eh     change       -0.2487087E-05 Eh
   gradient norm :     0.0003124 Eh/α   predicted    -0.1456376E-05 ( -41.44%)
   displ. norm   :     0.0122645 α      lambda       -0.4493369E-06
   maximum displ.:     0.0101016 α      in ANC's #3, #2, #6, ...

........................................................................
.............................. CYCLE   31 ..............................
........................................................................

 iter      E             dE          RMSdq      gap      omega  full diag
   1    -32.4218810 -0.324219E+02  0.431E-03    3.21       0.0  T
   2    -32.4218810 -0.182028E-08  0.254E-03    3.21       8.0  T
   3    -32.4218810  0.100187E-10  0.167E-04    3.21     122.2  T
   4    -32.4218810 -0.333614E-09  0.839E-05    3.21     243.4  T
     SCC iter.                  ...        0 min,  0.002 sec
     gradient                   ...        0 min,  0.006 sec
 * total energy  :   -31.8182184 Eh     change       -0.4305370E-06 Eh
   gradient norm :     0.0001463 Eh/α   predicted    -0.2286506E-06 ( -46.89%)
   displ. norm   :     0.0117895 α      lambda       -0.2538424E-06
   maximum displ.:     0.0086346 α      in ANC's #3, #2, #6, ...

........................................................................
.............................. CYCLE   32 ..............................
........................................................................

 iter      E             dE          RMSdq      gap      omega  full diag
   1    -32.4218934 -0.324219E+02  0.404E-03    3.21       0.0  T
   2    -32.4218934 -0.828052E-09  0.239E-03    3.21       8.6  T
   3    -32.4218934  0.311502E-10  0.142E-04    3.21     143.4  T
   4    -32.4218934 -0.329614E-09  0.593E-05    3.21     344.2  T
     SCC iter.                  ...        0 min,  0.002 sec
     gradient                   ...        0 min,  0.006 sec
 * total energy  :   -31.8182186 Eh     change       -0.2563656E-06 Eh
   gradient norm :     0.0001383 Eh/α   predicted    -0.1284680E-06 ( -49.89%)
   displ. norm   :     0.0085828 α      lambda       -0.1302276E-06
   maximum displ.:     0.0049446 α      in ANC's #3, #2, #6, ...

........................................................................
.............................. CYCLE   33 ..............................
........................................................................

 iter      E             dE          RMSdq      gap      omega  full diag
   1    -32.4219412 -0.324219E+02  0.262E-03    3.21       0.0  T
   2    -32.4219412 -0.497032E-09  0.155E-03    3.21      13.2  T
   3    -32.4219412 -0.970033E-10  0.721E-05    3.21     283.3  T
   4    -32.4219412 -0.328413E-10  0.419E-05    3.21     487.2  T
     SCC iter.                  ...        0 min,  0.002 sec
     gradient                   ...        0 min,  0.006 sec
 * total energy  :   -31.8182188 Eh     change       -0.1481993E-06 Eh
   gradient norm :     0.0001103 Eh/α   predicted    -0.6906312E-07 ( -53.40%)
   displ. norm   :     0.0094754 α      lambda       -0.1605129E-06
   maximum displ.:     0.0063015 α      in ANC's #4, #2, #1, ...

........................................................................
.............................. CYCLE   34 ..............................
........................................................................

 iter      E             dE          RMSdq      gap      omega  full diag
   1    -32.4219687 -0.324220E+02  0.276E-03    3.21       0.0  T
   2    -32.4219687 -0.312511E-09  0.164E-03    3.21      12.5  T
   3    -32.4219687 -0.101764E-09  0.684E-05    3.21     298.4  T
   4    -32.4219687 -0.293596E-10  0.406E-05    3.21     502.9  T
     SCC iter.                  ...        0 min,  0.002 sec
     gradient                   ...        0 min,  0.006 sec
 * total energy  :   -31.8182189 Eh     change       -0.1762544E-06 Eh
   gradient norm :     0.0001598 Eh/α   predicted    -0.8163176E-07 ( -53.69%)
   displ. norm   :     0.0102374 α      lambda       -0.1372467E-06
   maximum displ.:     0.0074979 α      in ANC's #4, #2, #1, ...

........................................................................
.............................. CYCLE   35 ..............................
........................................................................

 iter      E             dE          RMSdq      gap      omega  full diag
   1    -32.4219495 -0.324219E+02  0.274E-03    3.21       0.0  T
   2    -32.4219495 -0.370676E-09  0.163E-03    3.21      12.5  T
   3    -32.4219495 -0.129113E-09  0.583E-05    3.21     350.0  T
   4    -32.4219495 -0.522959E-11  0.340E-05    3.21     601.2  T
     SCC iter.                  ...        0 min,  0.002 sec
     gradient                   ...        0 min,  0.006 sec
 * total energy  :   -31.8182191 Eh     change       -0.1301994E-06 Eh
   gradient norm :     0.0001154 Eh/α   predicted    -0.7065586E-07 ( -45.73%)
   displ. norm   :     0.0038730 α      lambda       -0.4138752E-07
   maximum displ.:     0.0035057 α      in ANC's #4, #2, #6, ...

........................................................................
.............................. CYCLE   36 ..............................
........................................................................

 iter      E             dE          RMSdq      gap      omega  full diag
   1    -32.4219271 -0.324219E+02  0.104E-03    3.21       0.0  T
   2    -32.4219271 -0.106652E-09  0.617E-04    3.21      33.1  T
   3    -32.4219271  0.869704E-11  0.507E-05    3.21     402.8  T
     SCC iter.                  ...        0 min,  0.001 sec
     gradient                   ...        0 min,  0.006 sec
 * total energy  :   -31.8182191 Eh     change       -0.4446172E-07 Eh
   gradient norm :     0.0000504 Eh/α   predicted    -0.2248226E-07 ( -49.43%)
   displ. norm   :     0.0038730 α      lambda        0.0000000E+00
   maximum displ.:     0.0035057 α      in ANC's #4, #2, #6, ...

   *** GEOMETRY OPTIMIZATION CONVERGED AFTER 36 ITERATIONS ***

------------------------------------------------------------------------
 total energy gain   :        -0.0033714 Eh       -2.1156 kcal/mol
 total RMSD          :         0.6584824 a0        0.3485 Å
 total power (kW/mol):        -0.2458810 (step)  -19.4896 (real)
------------------------------------------------------------------------

 ANCopt (total)                0 d,  0 h,  0 min,  0.454 sec
 optimizer setup                ...        0 min,  0.000 sec (  0.069%)
 model hessian                  ...        0 min,  0.007 sec (  1.554%)
 ANC generation                 ...        0 min,  0.001 sec (  0.168%)
 coordinate transformation      ...        0 min,  0.000 sec (  0.036%)
 single point calculation       ...        0 min,  0.435 sec ( 95.696%)
 optimization log               ...        0 min,  0.008 sec (  1.721%)
 hessian update                 ...        0 min,  0.000 sec (  0.041%)
 rational function              ...        0 min,  0.002 sec (  0.466%)

================
 final structure:
================
$coord
       -5.72770128387042       -2.76742881751401       -0.04024905604085      C
       -3.27804500279942       -1.35090514624137       -0.01849353132199      C
       -1.02159853023461       -2.61862044964159       -0.07662674399622      C
        1.31572553048738       -1.34261408085712       -0.05698105157579      C
        3.64782409849414       -2.62996250215037       -0.11525464362034      C
        5.87626203449669       -1.32295170216292       -0.09241126764217      C
        5.87315102775736        1.32864293611204       -0.01068425380586      C
        3.64165530289080        2.62936333003762        0.04666323007832      C
        1.31258453573292        1.33541724810778        0.02525140431432      C
       -1.02773905385847        2.60474933043998        0.08308843259374      C
       -3.28119099587739        1.33057549458190        0.06305576523825      C
       -5.73414530912854        2.74007660753307        0.12659364796152      C
       -6.82786687114455       -2.33359722520215        1.64362506734029      H
       -6.85363906296386       -2.23825250826782       -1.67929321568500      H
       -5.39091418823404       -4.79211223918880       -0.10101622150205      H
       -1.00431565109783       -4.66150973455598       -0.13943625077172      H
        3.64107556707630       -4.67151319754523       -0.17809403587948      H
        7.65682615812286       -2.32002900602188       -0.13704413397573      H
        7.65135706961730        2.33074487953326        0.00649234572668      H
        3.63014303144840        4.67088955388232        0.10961803339525      H
       -1.01530276866324        4.64768052831049        0.14544094320061      H
       -6.86046795744101        2.30531391609992       -1.53969526659851      H
       -6.83163436889149        2.20556280287071        1.78312483760940      H
       -5.40215563024044        4.76569911660671        0.18461341996739      H
$end
 
 Bond Distances (Angstroems)
 ---------------------------
C1-C2=1.4975         C1-H13=1.0889        C1-H14=1.0889        C1-H15=1.0866        C2-C1=1.4975         C2-C3=1.3699         
C2-C11=1.4196        C3-C2=1.3699         C3-C4=1.4092         C3-H16=1.0816        C4-C3=1.4092         C4-C5=1.4100         
C4-C9=1.4178         C5-C4=1.4100         C5-C6=1.3672         C5-H17=1.0809        C6-C5=1.3672         C6-C7=1.4038         
C6-H18=1.0802        C7-C6=1.4038         C7-C8=1.3672         C7-H19=1.0802        C8-C7=1.3672         C8-C9=1.4100         
C8-H20=1.0809        C9-C4=1.4178         C9-C8=1.4100         C9-C10=1.4092        C10-C9=1.4092        C10-C11=1.3699       
C10-H21=1.0816       C11-C2=1.4196        C11-C10=1.3699       C11-C12=1.4975       C12-C11=1.4975       C12-H22=1.0889       
C12-H23=1.0889       C12-H24=1.0866       H13-C1=1.0889        H14-C1=1.0889        H15-C1=1.0866        H16-C3=1.0816        
H17-C5=1.0809        H18-C6=1.0802        H19-C7=1.0802        H20-C8=1.0809        H21-C10=1.0816       H22-C12=1.0889       
H23-C12=1.0889       H24-C12=1.0866       
 C  H  Rav=1.0845 sigma=0.0037  Rmin=1.0802  Rmax=1.0889    12
 C  C  Rav=1.4114 sigma=0.0415  Rmin=1.3672  Rmax=1.4975    13
 
 selected bond angles (degree)
 --------------------
H13-C1-C2=110.55               H14-C1-C2=110.55               H14-C1-H13=107.76              H15-C1-C2=110.60               
H15-C1-H13=108.65              H15-C1-H14=108.65              C3-C2-C1=120.61                C11-C2-C1=119.97               
C11-C2-C3=119.42               C4-C3-C2=122.02                H16-C3-C2=119.83               H16-C3-C4=118.15               
C5-C4-C3=122.45                C9-C4-C3=118.56                C9-C4-C5=118.99                C6-C5-C4=120.69                
H17-C5-C4=118.73               H17-C5-C6=120.58               C7-C6-C5=120.33                H18-C6-C5=120.34               
H18-C6-C7=119.34               C8-C7-C6=120.33                H19-C7-C6=119.34               H19-C7-C8=120.34               
C9-C8-C7=120.69                H20-C8-C7=120.58               H20-C8-C9=118.73               C8-C9-C4=118.99                
C10-C9-C4=118.56               C10-C9-C8=122.45               C11-C10-C9=122.02              H21-C10-C9=118.15              
H21-C10-C11=119.83             
 
 selected dihedral angles (degree)
 ---------------------------------
C3-C2-C1-H13=120.49           C3-C2-C1-H14=239.73           C3-C2-C1-H15=  0.11           C11-C2-C1-H13=300.49          
C11-C2-C1-H14= 59.73          C11-C2-C1-H15=180.11          C4-C3-C2-C1=180.03            C4-C3-C2-C11=  0.03           
H16-C3-C2-C1=  0.00           H16-C3-C2-C11=180.02          C5-C4-C3-C2=179.97            C5-C4-C3-H16=  0.00           
C9-C4-C3-C2=  0.00            C9-C4-C3-H16=180.00           C6-C5-C4-C3=180.04            C6-C5-C4-C9=  0.00            
H17-C5-C4-C3=  0.03           H17-C5-C4-C9=180.01           C7-C6-C5-C4=  0.00            C7-C6-C5-H17=180.00           
H18-C6-C5-C4=179.99           H18-C6-C5-H17=  0.00          C8-C7-C6-C5=  0.00            C8-C7-C6-H18=180.00           
H19-C7-C6-C5=179.99           H19-C7-C6-H18=  0.00          C9-C8-C7-C6=  0.00            C9-C8-C7-H19=180.01           
H20-C8-C7-C6=180.00           H20-C8-C7-H19=  0.00          C8-C9-C4-C3=179.97            C8-C9-C4-C5=  0.00            
C10-C9-C4-C3=  0.00           C10-C9-C4-C5=180.00           C4-C9-C8-C7=  0.00            C4-C9-C8-H20=180.01           
C10-C9-C8-C7=179.98           C10-C9-C8-H20=  0.00          C11-C10-C9-C4=  0.02          C11-C10-C9-C8=180.04          
H21-C10-C9-C4=180.01          H21-C10-C9-C8=  0.00          
           -------------------------------------------------
          |                Final Singlepoint                |
           -------------------------------------------------

          ...................................................
          :                      SETUP                      :
          :.................................................:
          :  # basis functions                  60          :
          :  # atomic orbitals                  60          :
          :  # shells                           36          :
          :  # electrons                        60          :
          :  max. iterations                   250          :
          :  Hamiltonian                  GFN2-xTB          :
          :  restarted?                      false          :
          :  GBSA solvation                   true          :
          :  PC potential                    false          :
          :  electronic temp.          300.0000000     K    :
          :  accuracy                    1.0000000          :
          :  -> integral cutoff          0.2500000E+02      :
          :  -> integral neglect         0.1000000E-07      :
          :  -> SCF convergence          0.1000000E-05 Eh   :
          :  -> wf. convergence          0.1000000E-03 e    :
          :  Broyden damping             0.4000000          :
          :  net charge                          0          :
          :  unpaired electrons                  0          :
          ...................................................

 iter      E             dE          RMSdq      gap      omega  full diag
   1    -32.4219271 -0.324219E+02  0.221E-05    3.21       0.0  T
   2    -32.4219271 -0.186162E-11  0.127E-05    3.21    1608.0  T
   3    -32.4219271 -0.105160E-11  0.791E-06    3.21    2580.2  T

   *** convergence criteria satisfied after 3 iterations ***

         #    Occupation            Energy/Eh            Energy/eV
      -------------------------------------------------------------
         1        2.0000           -0.6433568             -17.5066
       ...           ...                  ...                  ...
        24        2.0000           -0.4331132             -11.7856
        25        2.0000           -0.4306603             -11.7189
        26        2.0000           -0.4165741             -11.3356
        27        2.0000           -0.4100818             -11.1589
        28        2.0000           -0.4078797             -11.0990
        29        2.0000           -0.3843274             -10.4581
        30        2.0000           -0.3687939             -10.0354 (HOMO)
        31                         -0.2507571              -6.8234 (LUMO)
        32                         -0.2195077              -5.9731
        33                         -0.1805871              -4.9140
        34                         -0.1379882              -3.7549
        35                         -0.0491325              -1.3370
       ...                                ...                  ...
        60                          0.7044604              19.1693
      -------------------------------------------------------------
                  HL-Gap            0.1180368 Eh            3.2119 eV
             Fermi-level           -0.3097755 Eh           -8.4294 eV

 SCC (total)                   0 d,  0 h,  0 min,  0.011 sec
 SCC setup                      ...        0 min,  0.001 sec ( 10.150%)
 Dispersion                     ...        0 min,  0.000 sec (  0.658%)
 classical contributions        ...        0 min,  0.000 sec (  0.179%)
 integral evaluation            ...        0 min,  0.002 sec ( 18.698%)
 iterations                     ...        0 min,  0.002 sec ( 14.842%)
 molecular gradient             ...        0 min,  0.006 sec ( 54.546%)
 printout                       ...        0 min,  0.000 sec (  0.820%)

         :::::::::::::::::::::::::::::::::::::::::::::::::::::
         ::                     SUMMARY                     ::
         :::::::::::::::::::::::::::::::::::::::::::::::::::::
         :: total energy             -31.818219112172 Eh    ::
         :: total w/o Gsasa/hb       -31.816523143275 Eh    ::
         :: gradient norm              0.000050474384 Eh/a0 ::
         :: HOMO-LUMO gap              3.211945774094 eV    ::
         ::.................................................::
         :: SCC energy               -32.421904513007 Eh    ::
         :: -> isotropic ES            0.004509793244 Eh    ::
         :: -> anisotropic ES          0.005703170564 Eh    ::
         :: -> anisotropic XC          0.019578461167 Eh    ::
         :: -> dispersion             -0.022439053706 Eh    ::
         :: -> Gsolv                  -0.002593243446 Eh    ::
         ::    -> Gelec               -0.000897274548 Eh    ::
         ::    -> Gsasa               -0.002107556605 Eh    ::
         ::    -> Ghb                 -0.000669171990 Eh    ::
         ::    -> Gshift               0.001080759698 Eh    ::
         :: repulsion energy           0.603685400835 Eh    ::
         :: add. restraining           0.000000000000 Eh    ::
         :: total charge              -0.000000000000 e     ::
         :::::::::::::::::::::::::::::::::::::::::::::::::::::

           ------------------------------------------------- 
          |                Numerical Hessian                |
           ------------------------------------------------- 
step length          :   0.00500
SCC accuracy         :   0.30000
Hessian scale factor :   1.00000
frozen atoms in %    :   0.00000    0
RMS gradient         :   0.00005
estimated CPU  time      0.03 min
estimated wall time      0.03 min

writing file <hessian>.

 projected vibrational frequencies (cm⁻¹)
eigval :       -0.00    -0.00     0.00     0.00     0.00     0.00
eigval :      101.80   106.99   123.85   194.54   247.84   259.96
eigval :      288.64   305.60   383.05   401.37   443.21   451.37
eigval :      500.64   503.49   590.54   614.01   655.24   718.28
eigval :      758.58   765.98   853.37   865.12   871.18   873.14
eigval :      879.35   912.60   925.08  1015.72  1021.22  1025.10
eigval :     1030.14  1078.56  1120.62  1160.35  1178.89  1198.60
eigval :     1229.07  1265.81  1267.31  1320.65  1376.79  1396.49
eigval :     1404.12  1405.46  1443.28  1457.15  1468.94  1476.02
eigval :     1483.94  1485.82  1505.59  1565.92  1610.06  1621.60
eigval :     3003.33  3005.83  3016.51  3021.34  3045.74  3046.75
eigval :     3057.75  3059.44  3061.57  3063.95  3071.71  3085.40
           -------------------------------------------------
          |                Property Printout                |
           -------------------------------------------------

    * Orbital Energies and Occupations

         #    Occupation            Energy/Eh            Energy/eV
      -------------------------------------------------------------
         1        2.0000           -0.6433568             -17.5066
       ...           ...                  ...                  ...
        18        2.0000           -0.4695841             -12.7780
        19        2.0000           -0.4691325             -12.7657
        20        2.0000           -0.4680527             -12.7364
        21        2.0000           -0.4571619             -12.4400
        22        2.0000           -0.4509177             -12.2701
        23        2.0000           -0.4508242             -12.2676
        24        2.0000           -0.4331132             -11.7856
        25        2.0000           -0.4306603             -11.7189
        26        2.0000           -0.4165741             -11.3356
        27        2.0000           -0.4100818             -11.1589
        28        2.0000           -0.4078797             -11.0990
        29        2.0000           -0.3843274             -10.4581
        30        2.0000           -0.3687939             -10.0354 (HOMO)
        31                         -0.2507571              -6.8234 (LUMO)
        32                         -0.2195077              -5.9731
        33                         -0.1805871              -4.9140
        34                         -0.1379882              -3.7549
        35                         -0.0491325              -1.3370
        36                          0.1023040               2.7838
        37                          0.1068413               2.9073
        38                          0.1326476               3.6095
        39                          0.1439822               3.9180
        40                          0.1494884               4.0678
        41                          0.1507530               4.1022
       ...                                ...                  ...
        60                          0.7044605              19.1693
      -------------------------------------------------------------
                  HL-Gap            0.1180368 Eh            3.2119 eV
             Fermi-level           -0.3097755 Eh           -8.4294 eV

     #   Z          covCN         q      C6AA      α(0)
     1   6 C        3.758    -0.119    22.827     6.812
     2   6 C        2.966     0.007    27.867     8.659
     3   6 C        2.922    -0.055    29.357     8.885
     4   6 C        2.986     0.003    27.942     8.671
     5   6 C        2.918    -0.042    29.041     8.837
     6   6 C        2.916    -0.039    28.962     8.825
     7   6 C        2.916    -0.039    28.962     8.825
     8   6 C        2.918    -0.042    29.041     8.837
     9   6 C        2.986     0.003    27.942     8.671
    10   6 C        2.922    -0.055    29.357     8.885
    11   6 C        2.966     0.007    27.867     8.659
    12   6 C        3.758    -0.119    22.827     6.812
    13   1 H        0.925     0.055     2.253     2.347
    14   1 H        0.925     0.055     2.253     2.347
    15   1 H        0.925     0.044     2.394     2.420
    16   1 H        0.925     0.030     2.589     2.516
    17   1 H        0.926     0.030     2.586     2.515
    18   1 H        0.926     0.029     2.601     2.522
    19   1 H        0.926     0.029     2.601     2.522
    20   1 H        0.926     0.030     2.586     2.515
    21   1 H        0.925     0.030     2.589     2.516
    22   1 H        0.925     0.055     2.253     2.347
    23   1 H        0.925     0.055     2.253     2.347
    24   1 H        0.925     0.044     2.394     2.420

 Mol. C6AA /au·bohr⁶  :       6684.337431
 Mol. C8AA /au·bohr⁸  :     163261.857480
 Mol. α(0) /au        :        130.710943


Wiberg/Mayer (AO) data.
largest (>0.10) Wiberg bond orders for each atom

 ---------------------------------------------------------------------------
     #   Z sym  total        # sym  WBO       # sym  WBO       # sym  WBO
 ---------------------------------------------------------------------------
     1   6 C    3.995 --     2 C    1.030    15 H    0.985    13 H    0.968
                            14 H    0.968
     2   6 C    3.989 --     3 C    1.535    11 C    1.259     1 C    1.030
     3   6 C    3.991 --     2 C    1.535     4 C    1.278    16 H    0.966
                            10 C    0.109
     4   6 C    3.991 --     5 C    1.282     3 C    1.278     9 C    1.250
     5   6 C    3.989 --     6 C    1.554     4 C    1.282    17 H    0.969
                             8 C    0.117
     6   6 C    3.989 --     5 C    1.554     7 C    1.322    18 H    0.971
     7   6 C    3.989 --     8 C    1.554     6 C    1.322    19 H    0.971
     8   6 C    3.989 --     7 C    1.554     9 C    1.282    20 H    0.969
                             5 C    0.117
     9   6 C    3.991 --     8 C    1.282    10 C    1.278     4 C    1.250
    10   6 C    3.991 --    11 C    1.535     9 C    1.278    21 H    0.966
                             3 C    0.109
    11   6 C    3.989 --    10 C    1.535     2 C    1.259    12 C    1.030
    12   6 C    3.995 --    11 C    1.030    24 H    0.985    22 H    0.968
                            23 H    0.968
    13   1 H    0.995 --     1 C    0.968
    14   1 H    0.995 --     1 C    0.968
    15   1 H    0.998 --     1 C    0.985
    16   1 H    0.998 --     3 C    0.966
    17   1 H    0.999 --     5 C    0.969
    18   1 H    0.999 --     6 C    0.971
    19   1 H    0.999 --     7 C    0.971
    20   1 H    0.999 --     8 C    0.969
    21   1 H    0.998 --    10 C    0.966
    22   1 H    0.995 --    12 C    0.968
    23   1 H    0.995 --    12 C    0.968
    24   1 H    0.998 --    12 C    0.985
 ---------------------------------------------------------------------------

Topologies differ in total number of bonds
Writing topology from bond orders to xtbtopo.mol

molecular dipole:
                 x           y           z       tot (Debye)
 q only:       -0.716      -0.001       0.006
   full:       -0.673      -0.001       0.006       1.712
molecular quadrupole (traceless):
                xx          xy          yy          xz          yz          zz
 q only:        3.935       0.013      -0.292      -0.058       0.103      -3.643
  q+dip:        6.190       0.013       2.957      -0.120       0.372      -9.147
   full:        4.336       0.012       0.889      -0.073       0.188      -5.225

           -------------------------------------------------
          |                Geometry Summary                 |
           -------------------------------------------------

      molecular mass/u    :      156.2241198
   center of mass at/Å    :        0.0048500      -0.0029010      -0.0023514
  moments of inertia/u·Å² :        0.2290278E+03   0.7470601E+03   0.9698491E+03
rotational constants/cm⁻¹ :        0.7360517E-01   0.2256530E-01   0.1738171E-01

 * 23 selected distances

     #   Z          #   Z                                           value/Å
     2   6 C        3   6 C                                       1.3699491
     3   6 C        4   6 C                                       1.4092083
     4   6 C        5   6 C                                       1.4099715
     5   6 C        6   6 C                                       1.3671563
     6   6 C        7   6 C                                       1.4038309
     7   6 C        8   6 C                                       1.3671564
     4   6 C        9   6 C                                       1.4178222
     8   6 C        9   6 C                                       1.4099695
     9   6 C       10   6 C                                       1.4092084
     2   6 C       11   6 C                                       1.4196356 (max)
    10   6 C       11   6 C                                       1.3699423
     1   6 C       13   1 H                                       1.0888722
     1   6 C       14   1 H                                       1.0889009
     1   6 C       15   1 H                                       1.0866138
     3   6 C       16   1 H                                       1.0816000
     5   6 C       17   1 H                                       1.0808598
     6   6 C       18   1 H                                       1.0801652
     7   6 C       19   1 H                                       1.0801596 (min)
     8   6 C       20   1 H                                       1.0808600
    10   6 C       21   1 H                                       1.0815962
    12   6 C       22   1 H                                       1.0888894
    12   6 C       23   1 H                                       1.0889078
    12   6 C       24   1 H                                       1.0866485

 * 2 distinct bonds (by element types)

   Z      Z             #   av. dist./Å        max./Å        min./Å
   1 H    6 C          12     1.0845061     1.0889078     1.0801596
   6 C    6 C          11     1.3958046     1.4196356     1.3671563

           -------------------------------------------------
          |               Frequency Printout                |
           -------------------------------------------------
 projected vibrational frequencies (cm⁻¹)
eigval :       -0.00    -0.00     0.00     0.00     0.00     0.00
eigval :      101.80   106.99   123.85   194.54   247.84   259.96
eigval :      288.64   305.60   383.05   401.37   443.21   451.37
eigval :      500.64   503.49   590.54   614.01   655.24   718.28
eigval :      758.58   765.98   853.37   865.12   871.18   873.14
eigval :      879.35   912.60   925.08  1015.72  1021.22  1025.10
eigval :     1030.14  1078.56  1120.62  1160.35  1178.89  1198.60
eigval :     1229.07  1265.81  1267.31  1320.65  1376.79  1396.49
eigval :     1404.12  1405.46  1443.28  1457.15  1468.94  1476.02
eigval :     1483.94  1485.82  1505.59  1565.92  1610.06  1621.60
eigval :     3003.33  3005.83  3016.51  3021.34  3045.74  3046.75
eigval :     3057.75  3059.44  3061.57  3063.95  3071.71  3085.40
 reduced masses (amu)
   1: 10.83   2: 10.76   3: 10.84   4: 10.94   5: 10.40   6:  9.92   7:  9.22   8:  9.56
   9:  1.26  10:  1.88  11:  9.33  12:  9.45  13:  9.24  14:  8.42  15:  8.91  16: 10.49
  17: 10.97  18:  8.84  19:  9.75  20:  9.77  21: 11.23  22: 10.14  23: 10.65  24: 11.35
  25:  3.14  26: 10.73  27:  4.26  28:  9.14  29:  3.42  30: 10.97  31:  3.47  32:  3.93
  33:  3.10  34:  3.95  35:  4.38  36:  4.86  37:  4.93  38:  6.74  39:  8.71  40:  4.85
  41:  1.56  42:  4.19  43:  5.16  44: 10.30  45:  4.43  46:  7.58  47:  9.96  48:  3.30
  49:  6.24  50:  7.35  51:  8.71  52:  9.72  53:  1.58  54:  3.40  55:  1.56  56:  4.31
  57:  9.07  58: 11.49  59: 11.41  60: 11.47  61:  1.93  62:  1.94  63:  1.60  64:  1.55
  65:  1.64  66:  1.61  67:  1.81  68:  1.81  69:  1.75  70:  1.78  71:  1.85  72:  1.91
 IR intensities (km·mol⁻¹)
   1:  0.06   2:  0.11   3:  0.07   4:  0.05   5:  0.04   6:  0.04   7:  0.00   8:  1.61
   9:  0.00  10:  0.71  11:  0.00  12:  0.78  13:  0.39  14:  0.61  15:  0.96  16:  0.32
  17:  0.05  18:  2.27  19:  0.00  20:  0.11  21:  3.00  22:  0.00  23:  0.18  24:  0.00
  25: 13.50  26:  1.99  27: 18.59  28:  0.72  29:  0.00  30:  0.09  31:  0.00  32:  0.66
  33:  0.00  34: 26.71  35: 14.90  36:  1.17  37:  0.00  38:  1.24  39:  9.61  40:  1.10
  41:  0.13  42: 24.47  43:  0.48  44: 28.14  45:  2.08  46:  0.81  47:  3.73  48:  1.37
  49:  3.38  50:  0.20  51:  0.48  52: 80.08  53:  0.01  54:  4.73  55:  7.78  56:  0.12
  57:  6.41  58:  0.01  59:  0.46  60:  6.23  61: 67.77  62:  0.14  63:  3.65  64:129.04
  65:  8.08  66: 79.38  67:222.60  68:  1.08  69: 56.52  70: 30.21  71:238.37  72:204.83
 Raman intensities (Ä⁴*amu⁻¹)
   1:  0.00   2:  0.00   3:  0.00   4:  0.00   5:  0.00   6:  0.00   7:  0.00   8:  0.00
   9:  0.00  10:  0.00  11:  0.00  12:  0.00  13:  0.00  14:  0.00  15:  0.00  16:  0.00
  17:  0.00  18:  0.00  19:  0.00  20:  0.00  21:  0.00  22:  0.00  23:  0.00  24:  0.00
  25:  0.00  26:  0.00  27:  0.00  28:  0.00  29:  0.00  30:  0.00  31:  0.00  32:  0.00
  33:  0.00  34:  0.00  35:  0.00  36:  0.00  37:  0.00  38:  0.00  39:  0.00  40:  0.00
  41:  0.00  42:  0.00  43:  0.00  44:  0.00  45:  0.00  46:  0.00  47:  0.00  48:  0.00
  49:  0.00  50:  0.00  51:  0.00  52:  0.00  53:  0.00  54:  0.00  55:  0.00  56:  0.00
  57:  0.00  58:  0.00  59:  0.00  60:  0.00  61:  0.00  62:  0.00  63:  0.00  64:  0.00
  65:  0.00  66:  0.00  67:  0.00  68:  0.00  69:  0.00  70:  0.00  71:  0.00  72:  0.00
 output can be read by thermo (or use thermo option).
 writing <g98.out> molden fake output.
 recommended (thermochemical) frequency scaling factor: 1.0
           -------------------------------------------------
          |             Thermodynamic Functions             |
           -------------------------------------------------

Molecule has the following symmetry elements: (C2) 2*(sigma) 
It seems to be the C2v point group
c2v symmetry found (for desy threshold:  0.10E+00) used in thermo

          ...................................................
          :                      SETUP                      :
          :.................................................:
          :  # frequencies                          66      :
          :  # imaginary freq.                       0      :
          :  linear?                             false      :
          :  only rotor calc.                    false      :
          :  symmetry                              c2v      :
          :  rotational number                       2      :
          :  scaling factor                  1.0000000      :
          :  rotor cutoff                    0.0000000 cm⁻¹ :
          :  imag. cutoff                 -100.0000000 cm⁻¹ :
          :.................................................:

    mode    ω/cm⁻¹     T·S(HO)/kcal·mol⁻¹    T·S(FR)/kcal·mol⁻¹   T·S(vib)
   ------------------------------------------------------------------------
       1    101.80    -1.01954 (100.00%)    -0.84585 (  0.00%)    -1.01954
       2    106.99    -0.99067 (100.00%)    -0.83111 (  0.00%)    -0.99067
       3    123.85    -0.90620 (100.00%)    -0.78779 (  0.00%)    -0.90620
       4    194.54    -0.65121 (100.00%)    -0.65404 (  0.00%)    -0.65121
       5    247.84    -0.52054 (100.00%)    -0.58231 (  0.00%)    -0.52054
       6    259.96    -0.49554 (100.00%)    -0.56817 (  0.00%)    -0.49554
       7    288.64    -0.44183 (100.00%)    -0.53717 (  0.00%)    -0.44183
   ------------------------------------------------------------------------

   temp. (K)  partition function   enthalpy   heat capacity  entropy
                                   cal/mol     cal/K/mol   cal/K/mol   J/K/mol
 298.15  VIB   259.                 4795.811     36.056     27.129
         ROT  0.492E+06              888.752      2.981     29.026
         INT  0.128E+09             5684.563     39.037     56.156
         TR   0.189E+28             1481.254      4.968     41.029
         TOT                        7165.8169    44.0052    97.1851   406.6224

       T/K    H(0)-H(T)+PV         H(T)/Eh          T*S/Eh         G(T)/Eh
   ------------------------------------------------------------------------
    298.15    0.114195E-01    0.209044E+00    0.461758E-01    0.162869E+00
   ------------------------------------------------------------------------

         :::::::::::::::::::::::::::::::::::::::::::::::::::::
         ::                  THERMODYNAMIC                  ::
         :::::::::::::::::::::::::::::::::::::::::::::::::::::
         :: total free energy         -31.655350427177 Eh   ::
         ::.................................................::
         :: total energy              -31.818219112184 Eh   ::
         :: zero point energy           0.197625002789 Eh   ::
         :: G(RRHO) w/o ZPVE           -0.034756317782 Eh   ::
         :: G(RRHO) contrib.            0.162868685006 Eh   ::
         :::::::::::::::::::::::::::::::::::::::::::::::::::::

optimized geometry written to: xtbopt.coord


           -------------------------------------------------
          | TOTAL ENERGY              -31.818219112184 Eh   |
          | TOTAL ENTHALPY            -31.609174653344 Eh   |
          | TOTAL FREE ENERGY         -31.655350427177 Eh   |
          | GRADIENT NORM               0.000050480915 Eh/α |
          | HOMO-LUMO GAP               3.211945695226 eV   |
           -------------------------------------------------

------------------------------------------------------------------------
 * finished run on 2025/04/03 at 21:04:46.321     
------------------------------------------------------------------------
 total:
 * wall-time:     0 d,  0 h,  0 min,  2.269 sec
 *  cpu-time:     0 d,  0 h,  0 min,  2.191 sec
 * ratio c/w:     0.965 speedup
 SCF:
 * wall-time:     0 d,  0 h,  0 min,  0.017 sec
 *  cpu-time:     0 d,  0 h,  0 min,  0.017 sec
 * ratio c/w:     0.993 speedup
 ANC optimizer:
 * wall-time:     0 d,  0 h,  0 min,  0.476 sec
 *  cpu-time:     0 d,  0 h,  0 min,  0.461 sec
 * ratio c/w:     0.968 speedup
 analytical hessian:
 * wall-time:     0 d,  0 h,  0 min,  1.715 sec
 *  cpu-time:     0 d,  0 h,  0 min,  1.702 sec
 * ratio c/w:     0.992 speedup

