      -----------------------------------------------------------      
     |                   =====================                   |     
     |                           x T B                           |     
     |                   =====================                   |     
     |                         S. Grimme                         |     
     |          Mulliken Center for Theoretical Chemistry        |     
     |                    University of Bonn                     |     
      -----------------------------------------------------------      

   * xtb version 6.7.1 (edcfbbe) compiled by 'albert@albert-system' on 2024-07-22

   xtb is free software: you can redistribute it and/or modify it under
   the terms of the GNU Lesser General Public License as published by
   the Free Software Foundation, either version 3 of the License, or
   (at your option) any later version.
   
   xtb is distributed in the hope that it will be useful,
   but WITHOUT ANY WARRANTY; without even the implied warranty of
   MERCHANTABILITY or FITNESS FOR A PARTICULAR PURPOSE.  See the
   GNU Lesser General Public License for more details.
   
   Cite this work as:
   * C. Bannwarth, E. Caldeweyher, S. Ehlert, A. Hansen, P. Pracht,
     J. Seibert, S. Spicher, S. Grimme, WIREs Comput. Mol. Sci., 2020, 11,
     e01493. DOI: 10.1002/wcms.1493
   
   for GFN2-xTB:
   * C. Bannwarth, S. Ehlert and S. Grimme., J. Chem. Theory Comput., 2019,
     15, 1652-1671. DOI: 10.1021/acs.jctc.8b01176
   for GFN1-xTB:
   * S. Grimme, C. Bannwarth, P. Shushkov, J. Chem. Theory Comput., 2017,
     13, 1989-2009. DOI: 10.1021/acs.jctc.7b00118
   for GFN0-xTB:
   * P. Pracht, E. Caldeweyher, S. Ehlert, S. Grimme, ChemRxiv, 2019, preprint.
     DOI: 10.26434/chemrxiv.8326202.v1
   for GFN-FF:
   * S. Spicher and S. Grimme, Angew. Chem. Int. Ed., 2020, 59, 15665-15673.
     DOI: 10.1002/anie.202004239
   
   for ALPB and GBSA implicit solvation:
   * S. Ehlert, M. Stahn, S. Spicher, S. Grimme, J. Chem. Theory Comput.,
     2021, 17, 4250-4261. DOI: 10.1021/acs.jctc.1c00471
   
   for ddCOSMO and CPCM-X implicit solvation:
   * M. Stahn, S. Ehlert, S. Grimme, J. Phys. Chem. A,
     2023, XX, XXXX-XXXX. DOI: 10.1021/acs.jpca.3c04382
   
   for DFT-D4:
   * E. Caldeweyher, C. Bannwarth and S. Grimme, J. Chem. Phys., 2017,
     147, 034112. DOI: 10.1063/1.4993215
   * E. Caldeweyher, S. Ehlert, A. Hansen, H. Neugebauer, S. Spicher,
     C. Bannwarth and S. Grimme, J. Chem. Phys., 2019, 150, 154122.
     DOI: 10.1063/1.5090222
   * E. Caldeweyher, J.-M. Mewes, S. Ehlert and S. Grimme, Phys. Chem. Chem. Phys.
     2020, 22, 8499-8512. DOI: 10.1039/D0CP00502A
   
   for sTDA-xTB:
   * S. Grimme and C. Bannwarth, J. Chem. Phys., 2016, 145, 054103.
     DOI: 10.1063/1.4959605
   
   in the mass-spec context:
   * V. Asgeirsson, C. Bauer and S. Grimme, Chem. Sci., 2017, 8, 4879.
     DOI: 10.1039/c7sc00601b
   * J. Koopman and S. Grimme, ACS Omega 2019, 4, 12, 15120-15133.
     DOI: 10.1021/acsomega.9b02011
   
   for metadynamics refer to:
   * S. Grimme, J. Chem. Theory Comput., 2019, 155, 2847-2862
     DOI: 10.1021/acs.jctc.9b00143
   
   for SPH calculations refer to:
   * S. Spicher and S. Grimme, J. Chem. Theory Comput., 2021, 17, 1701-1714
     DOI: 10.1021/acs.jctc.0c01306
   
   for ONIOM refer to:
   * C. Plett, A. Katbashev, S. Ehlert, S. Grimme, M. Bursch,
     Phys. Chem. Chem. Phys., 2023, 25, 17860-17868. DOI: 10.1039/D3CP02178E
   
   for DIPRO refer to:
   * J. Kohn, N. Gildemeister, S. Grimme, D. Fazzi, A. Hansen,
     J. Chem. Phys., 2023, just accepted.
   
   for PTB refer to:
   * S. Grimme, M. Mueller, A. Hansen, J. Chem. Phys., 2023, 158, 124111.
     DOI: 10.1063/5.0137838
   
   with help from (in alphabetical order)
   P. Atkinson, C. Bannwarth, F. Bohle, G. Brandenburg, E. Caldeweyher
   M. Checinski, S. Dohm, S. Ehlert, S. Ehrlich, I. Gerasimov, C. Hölzer
   A. Katbashev, J. Kohn, J. Koopman, C. Lavigne, S. Lehtola, F. März, M. Müller,
   F. Musil, H. Neugebauer, J. Pisarek, C. Plett, P. Pracht, F. Pultar,
   J. Seibert, P. Shushkov, S. Spicher, M. Stahn, M. Steiner, T. Strunk,
   J. Stückrath, T. Rose, and J. Unsleber
   
 * started run on 2025/04/06 at 18:00:47.108     
   ID    Z sym.   atoms
    1    6 C      1, 2, 4, 6, 8, 10
    2    1 H      3, 5, 7, 9, 11, 18-24
    3    8 O      12-17

           -------------------------------------------------
          |                Calculation Setup                |
           -------------------------------------------------

          program call               : /srv/scratch/z5358697/.xtb/bin/xtb solv.coord --gfn2 --sp --chrg 0 --norestart --parallel 1 --alpb water reference -I xtb_sp-xcontrol-inp
          hostname                   : k155
          coordinate file            : solv.coord
          omp threads                :                     1


           -------------------------------------------------
          |                 G F N 2 - x T B                 |
           -------------------------------------------------

        Reference                      10.1021/acs.jctc.8b01176
      * Hamiltonian:
        H0-scaling (s, p, d)           1.850000    2.230000    2.230000
        zeta-weighting                 0.500000
      * Dispersion:
        s8                             2.700000
        a1                             0.520000
        a2                             5.000000
        s9                             5.000000
      * Repulsion:
        kExp                           1.500000    1.000000
        rExp                           1.000000
      * Coulomb:
        alpha                          2.000000
        third order                    shell-resolved
        anisotropic                    true
        a3                             3.000000
        a5                             4.000000
        cn-shift                       1.200000
        cn-exp                         4.000000
        max-rad                        5.000000

      * Solvation model:               ALPB
        Solvent                        water
        Parameter file                 internal GFN2-xTB/ALPB
        Dielectric constant                8.0200E+01
        Reference state                gsolv=reference [X=1]
        Free energy shift                  2.8945E-03 Eh       1.8164E+00 kcal/mol
        Temperature                        2.9815E+02 K
        Density                            1.0000E+00 kg/L
        Solvent mass                       1.8000E+01 g/mol
        Interaction kernel             P16
        Born radius scaling (c1)           1.4744E+00
        Born radii integrator          GBOBC
        Born offset                        0.0000E+00 a0       0.0000E+00 AA
        H-bond correction              true
        Ion screening                  false
        Surface tension                    1.0000E-05 Eh       1.5569E+01 dyn/cm
        Grid points                               974 per atom

          ...................................................
          :                      SETUP                      :
          :.................................................:
          :  # basis functions                  60          :
          :  # atomic orbitals                  60          :
          :  # shells                           36          :
          :  # electrons                        72          :
          :  max. iterations                   250          :
          :  Hamiltonian                  GFN2-xTB          :
          :  restarted?                      false          :
          :  GBSA solvation                   true          :
          :  PC potential                    false          :
          :  electronic temp.          300.0000000     K    :
          :  accuracy                    1.0000000          :
          :  -> integral cutoff          0.2500000E+02      :
          :  -> integral neglect         0.1000000E-07      :
          :  -> SCF convergence          0.1000000E-05 Eh   :
          :  -> wf. convergence          0.1000000E-03 e    :
          :  Broyden damping             0.4000000          :
          :  net charge                          0          :
          :  unpaired electrons                  0          :
          ...................................................

 iter      E             dE          RMSdq      gap      omega  full diag
   1    -43.6478323 -0.436478E+02  0.491E+00   10.40       0.0  T
   2    -43.6808676 -0.330354E-01  0.265E+00   10.21       1.0  T
   3    -43.6829602 -0.209254E-02  0.584E-01   10.20       1.0  T
   4    -43.6833719 -0.411767E-03  0.183E-01   10.19       1.0  T
   5    -43.6834404 -0.684202E-04  0.802E-02   10.21       1.0  T
   6    -43.6834604 -0.200944E-04  0.230E-02   10.21       1.0  T
   7    -43.6834615 -0.104241E-05  0.564E-03   10.21       3.6  T
   8    -43.6834617 -0.241391E-06  0.256E-03   10.21       8.0  T
   9    -43.6834617 -0.157301E-07  0.967E-04   10.21      21.1  T
  10    -43.6834618 -0.580015E-08  0.268E-04   10.21      76.2  T

   *** convergence criteria satisfied after 10 iterations ***

         #    Occupation            Energy/Eh            Energy/eV
      -------------------------------------------------------------
         1        2.0000           -0.7278250             -19.8051
       ...           ...                  ...                  ...
        30        2.0000           -0.4607690             -12.5382
        31        2.0000           -0.4460336             -12.1372
        32        2.0000           -0.4405444             -11.9878
        33        2.0000           -0.4358765             -11.8608
        34        2.0000           -0.4287583             -11.6671
        35        2.0000           -0.4096629             -11.1475
        36        2.0000           -0.4011207             -10.9151 (HOMO)
        37                         -0.0258784              -0.7042 (LUMO)
        38                         -0.0005771              -0.0157
        39                          0.0180699               0.4917
        40                          0.0240055               0.6532
        41                          0.0483391               1.3154
       ...                                ...                  ...
        60                          0.3068478               8.3498
      -------------------------------------------------------------
                  HL-Gap            0.3752423 Eh           10.2109 eV
             Fermi-level           -0.2134996 Eh           -5.8096 eV

 SCC (total)                   0 d,  0 h,  0 min,  0.029 sec
 SCC setup                      ...        0 min,  0.002 sec (  5.217%)
 Dispersion                     ...        0 min,  0.000 sec (  0.469%)
 classical contributions        ...        0 min,  0.000 sec (  0.096%)
 integral evaluation            ...        0 min,  0.003 sec (  9.372%)
 iterations                     ...        0 min,  0.018 sec ( 60.514%)
 molecular gradient             ...        0 min,  0.007 sec ( 23.874%)
 printout                       ...        0 min,  0.000 sec (  0.413%)

         :::::::::::::::::::::::::::::::::::::::::::::::::::::
         ::                     SUMMARY                     ::
         :::::::::::::::::::::::::::::::::::::::::::::::::::::
         :: total energy             -43.383072989306 Eh    ::
         :: total w/o Gsasa/hb       -43.365780599904 Eh    ::
         :: gradient norm              0.000046714834 Eh/a0 ::
         :: HOMO-LUMO gap             10.210862366695 eV    ::
         ::.................................................::
         :: SCC energy               -43.683269890737 Eh    ::
         :: -> isotropic ES            0.172030825394 Eh    ::
         :: -> anisotropic ES         -0.008940877641 Eh    ::
         :: -> anisotropic XC         -0.009976332170 Eh    ::
         :: -> dispersion             -0.020024749636 Eh    ::
         :: -> Gsolv                  -0.035915099317 Eh    ::
         ::    -> Gelec               -0.018622709915 Eh    ::
         ::    -> Gsasa                0.004794512700 Eh    ::
         ::    -> Ghb                 -0.024981451263 Eh    ::
         ::    -> Gshift               0.002894549160 Eh    ::
         :: repulsion energy           0.300196901431 Eh    ::
         :: add. restraining           0.000000000000 Eh    ::
         :: total charge              -0.000000000000 e     ::
         :::::::::::::::::::::::::::::::::::::::::::::::::::::

           -------------------------------------------------
          |                Property Printout                |
           -------------------------------------------------

    * Orbital Energies and Occupations

         #    Occupation            Energy/Eh            Energy/eV
      -------------------------------------------------------------
         1        2.0000           -0.7278250             -19.8051
       ...           ...                  ...                  ...
        24        2.0000           -0.5164801             -14.0541
        25        2.0000           -0.5080133             -13.8237
        26        2.0000           -0.4964619             -13.5094
        27        2.0000           -0.4936944             -13.4341
        28        2.0000           -0.4771339             -12.9835
        29        2.0000           -0.4658604             -12.6767
        30        2.0000           -0.4607690             -12.5382
        31        2.0000           -0.4460336             -12.1372
        32        2.0000           -0.4405444             -11.9878
        33        2.0000           -0.4358765             -11.8608
        34        2.0000           -0.4287583             -11.6671
        35        2.0000           -0.4096629             -11.1475
        36        2.0000           -0.4011207             -10.9151 (HOMO)
        37                         -0.0258784              -0.7042 (LUMO)
        38                         -0.0005771              -0.0157
        39                          0.0180699               0.4917
        40                          0.0240055               0.6532
        41                          0.0483391               1.3154
        42                          0.0497358               1.3534
        43                          0.0650589               1.7703
        44                          0.0809624               2.2031
        45                          0.1076320               2.9288
        46                          0.1195571               3.2533
        47                          0.1303491               3.5470
       ...                                ...                  ...
        60                          0.3068478               8.3498
      -------------------------------------------------------------
                  HL-Gap            0.3752423 Eh           10.2109 eV
             Fermi-level           -0.2134996 Eh           -5.8096 eV

     #   Z          covCN         q      C6AA      α(0)
     1   6 C        3.675     0.059    19.810     6.378
     2   6 C        3.744     0.094    19.097     6.234
     3   1 H        0.923     0.052     2.291     2.367
     4   6 C        3.723     0.091    19.183     6.255
     5   1 H        0.923     0.041     2.432     2.439
     6   6 C        3.723     0.092    19.158     6.250
     7   1 H        0.923     0.051     2.303     2.373
     8   6 C        3.723     0.091    19.171     6.253
     9   1 H        0.924     0.046     2.367     2.406
    10   6 C        3.624     0.252    17.088     5.958
    11   1 H        0.922     0.017     2.785     2.610
    12   8 O        1.701    -0.363    20.129     6.057
    13   8 O        1.658    -0.499    22.864     6.455
    14   8 O        1.656    -0.512    23.155     6.496
    15   8 O        1.654    -0.506    23.015     6.476
    16   8 O        1.656    -0.510    23.117     6.491
    17   8 O        1.655    -0.483    22.521     6.406
    18   1 H        0.924     0.073     2.056     2.242
    19   1 H        0.924     0.061     2.192     2.315
    20   1 H        0.804     0.392     0.499     1.109
    21   1 H        0.805     0.377     0.529     1.142
    22   1 H        0.803     0.348     0.593     1.210
    23   1 H        0.805     0.367     0.549     1.164
    24   1 H        0.804     0.367     0.550     1.165

 Mol. C6AA /au·bohr⁶  :       4725.448591
 Mol. C8AA /au·bohr⁸  :     100742.921410
 Mol. α(0) /au        :         98.249827


Wiberg/Mayer (AO) data.
largest (>0.10) Wiberg bond orders for each atom

 ---------------------------------------------------------------------------
     #   Z sym  total        # sym  WBO       # sym  WBO       # sym  WBO
 ---------------------------------------------------------------------------
     1   6 C    3.953 --    17 O    1.003     2 C    0.977    19 H    0.969
                            18 H    0.968
     2   6 C    3.942 --     1 C    0.977     4 C    0.971    12 O    0.960
                             3 H    0.955
     3   1 H    0.997 --     2 C    0.955
     4   6 C    3.957 --    16 O    0.994     2 C    0.971     6 C    0.966
                             5 H    0.956
     5   1 H    0.998 --     4 C    0.956
     6   6 C    3.960 --    15 O    1.009     4 C    0.966     7 H    0.957
                             8 C    0.950
     7   1 H    0.997 --     6 C    0.957
     8   6 C    3.957 --    14 O    1.000    10 C    0.963     9 H    0.960
                             6 C    0.950
     9   1 H    0.998 --     8 C    0.960
    10   6 C    3.930 --    13 O    1.019     8 C    0.963    12 O    0.950
                            11 H    0.948
    11   1 H    1.000 --    10 C    0.948
    12   8 O    2.057 --     2 C    0.960    10 C    0.950
    13   8 O    1.935 --    10 C    1.019    20 H    0.828
    14   8 O    1.915 --     8 C    1.000    21 H    0.844
    15   8 O    1.925 --     6 C    1.009    22 H    0.818
    16   8 O    1.916 --     4 C    0.994    23 H    0.848
    17   8 O    1.976 --     1 C    1.003    24 H    0.850
    18   1 H    0.994 --     1 C    0.968
    19   1 H    0.996 --     1 C    0.969
    20   1 H    0.846 --    13 O    0.828
    21   1 H    0.858 --    14 O    0.844
    22   1 H    0.879 --    15 O    0.818
    23   1 H    0.865 --    16 O    0.848
    24   1 H    0.865 --    17 O    0.850
 ---------------------------------------------------------------------------

Topologies differ in total number of bonds
Writing topology from bond orders to xtbtopo.mol

molecular dipole:
                 x           y           z       tot (Debye)
 q only:       -0.568      -0.128       0.253
   full:       -0.624      -0.149       0.423       1.953
molecular quadrupole (traceless):
                xx          xy          yy          xz          yz          zz
 q only:       -0.396       5.561       7.398      -3.348       4.535      -7.002
  q+dip:       -2.503       7.302      11.327      -5.624       4.775      -8.824
   full:       -2.202       7.397      10.759      -5.212       5.022      -8.558


           -------------------------------------------------
          | TOTAL ENERGY              -43.383072989306 Eh   |
          | GRADIENT NORM               0.000046714834 Eh/α |
          | HOMO-LUMO GAP              10.210862366695 eV   |
           -------------------------------------------------

------------------------------------------------------------------------
 * finished run on 2025/04/06 at 18:00:47.168     
------------------------------------------------------------------------
 total:
 * wall-time:     0 d,  0 h,  0 min,  0.060 sec
 *  cpu-time:     0 d,  0 h,  0 min,  0.028 sec
 * ratio c/w:     0.466 speedup
 SCF:
 * wall-time:     0 d,  0 h,  0 min,  0.029 sec
 *  cpu-time:     0 d,  0 h,  0 min,  0.020 sec
 * ratio c/w:     0.669 speedup

