
                                 *****************
                                 * O   R   C   A *
                                 *****************

                                            #,                                       
                                            ###                                      
                                            ####                                     
                                            #####                                    
                                            ######                                   
                                           ########,                                 
                                     ,,################,,,,,                         
                               ,,#################################,,                 
                          ,,##########################################,,             
                       ,#########################################, ''#####,          
                    ,#############################################,,   '####,        
                  ,##################################################,,,,####,       
                ,###########''''           ''''###############################       
              ,#####''   ,,,,##########,,,,          '''####'''          '####       
            ,##' ,,,,###########################,,,                        '##       
           ' ,,###''''                  '''############,,,                           
         ,,##''                                '''############,,,,        ,,,,,,###''
      ,#''                                            '''#######################'''  
     '                                                          ''''####''''         
             ,#######,   #######,   ,#######,      ##                                
            ,#'     '#,  ##    ##  ,#'     '#,    #''#        ,####,   ,####,        
            ##       ##  ##   ,#'  ##            #'  '#       #'       #'  '#        
            ##       ##  #######   ##           ,######,      #####,   #    #        
            '#,     ,#'  ##    ##  '#,     ,#' ,#      #,     #,   #   #,  ,#        
             '#######'   ##     ##  '#######'  #'      '#     '####' # '####'        



                #########################################################
                #                        -***-                          #
                #          Department of theory and spectroscopy        #
                #                                                       #
                #                      Frank Neese                      #
                #                                                       #
                #     Directorship, Architecture, Infrastructure        #
                #                    SHARK, DRIVERS                     #
                #        Core code/Algorithms in most modules           #
                #                                                       #
                #        Max Planck Institute fuer Kohlenforschung      #
                #                Kaiser Wilhelm Platz 1                 #
                #                 D-45470 Muelheim/Ruhr                 #
                #                      Germany                          #
                #                                                       #
                #                  All rights reserved                  #
                #                        -***-                          #
                #########################################################


                         Program Version 6.0.0  -   RELEASE  -


 With contributions from (in alphabetic order):
   Daniel Aravena         : Magnetic Suceptibility
   Michael Atanasov       : Ab Initio Ligand Field Theory (pilot matlab implementation)
   Alexander A. Auer      : GIAO ZORA, VPT2 properties, NMR spectrum
   Ute Becker             : All parallelization in ORCA, NUMFREQ, NUMCALC
   Giovanni Bistoni       : ED, misc. LED, open-shell LED, HFLD
   Martin Brehm           : Molecular dynamics
   Dmytro Bykov           : pre 5.0 version of the SCF Hessian
   Marcos Casanova-Páez   : Triplet and SCS-CIS(D). UHF-(DLPNO)-IP/EA/STEOM-CCSD. UHF-CVS-IP/STEOM-CCSD
   Vijay G. Chilkuri      : MRCI spin determinant printing, contributions to CSF-ICE
   Pauline Colinet        : FMM embedding
   Dipayan Datta          : RHF DLPNO-CCSD density
   Achintya Kumar Dutta   : EOM-CC, STEOM-CC
   Nicolas Foglia         : Exact transition moments, OPA infrastructure, MCD improvements
   Dmitry Ganyushin       : Spin-Orbit,Spin-Spin,Magnetic field MRCI
   Miquel Garcia          : C-PCM and meta-GGA Hessian, CCSD/C-PCM, Gaussian charge scheme
   Tiago L. C. Gouveia    : GS-ROHF, GS-ROCIS
   Yang Guo               : DLPNO-NEVPT2, F12-NEVPT2, CIM, IAO-localization
   Andreas Hansen         : Spin unrestricted coupled pair/coupled cluster methods
   Ingolf Harden          : AUTO-CI MPn and infrastructure 
   Benjamin Helmich-Paris : MC-RPA, TRAH-(SCF,CASSCF), AVAS, COSX integrals, SCF dyn. polar.
   Lee Huntington         : MR-EOM, pCC
   Robert Izsak           : Overlap fitted RIJCOSX, COSX-SCS-MP3, EOM
   Riya Kayal             : Wick's Theorem for AUTO-CI, AUTO-CI UHF-CCSDT
   Emily Kempfer          : AUTO-CI, RHF CISDT and CCSDT
   Christian Kollmar      : KDIIS, OOCD, Brueckner-CCSD(T), CCSD density, CASPT2, CASPT2-K, improved NEVPT2
   Axel Koslowski         : Symmetry handling
   Simone Kossmann        : Meta GGA functionals, TD-DFT gradient, OOMP2, (MP2 Hessian; deprecated post 5.0)
   Lucas Lang             : DCDCAS
   Marvin Lechner         : AUTO-CI (C++ implementation), FIC-MRCC
   Spencer Leger          : CASSCF response
   Dagmar Lenk            : GEPOL surface, SMD, ORCA-2-JSON
   Dimitrios Liakos       : Extrapolation schemes; Compound Job, initial MDCI parallelization
   Dimitrios Manganas     : Further ROCIS development; embedding schemes. LFT, Crystal Embedding
   Dimitrios Pantazis     : SARC Basis sets
   Anastasios Papadopoulos: AUTO-CI, single reference methods and gradients
   Taras Petrenko         : pre 6.0 DFT Hessian and TD-DFT gradient, (ASA, deprecated), ECA, 1-Electron XAS/XES, NRVS
   Peter Pinski           : DLPNO-MP2, DLPNO-MP2 Gradient
   Christoph Reimann      : Effective Core Potentials
   Marius Retegan         : Local ZFS, SOC
   Christoph Riplinger    : Optimizer, TS searches, QM/MM, DLPNO-CCSD(T), (RO)-DLPNO pert. Triples
   Michael Roemelt        : Original ROCIS implementation
   Masaaki Saitow         : Open-shell DLPNO-CCSD energy and density
   Barbara Sandhoefer     : DKH picture change effects
   Kantharuban Sivalingam : CASSCF convergence/infrastructure, NEVPT2 and variants, FIC-MRCI
   Bernardo de Souza      : ESD, SOC TD-DFT
   Georgi Stoychev        : AutoAux, RI-MP2 NMR, DLPNO-MP2 response, X2C
   Van Anh Tran           : RI-MP2 g-tensors
   Willem Van den Heuvel  : Paramagnetic NMR
   Zikuan Wang            : NOTCH, Electric field optimization 
   Frank Wennmohs         : Technical directorship and infrastructure
   Hang Xu                : AUTO-CI-Response properties 


 We gratefully acknowledge several colleagues who have allowed us to
 interface, adapt or use parts of their codes:
   Stefan Grimme, W. Hujo, H. Kruse, P. Pracht,  : VdW corrections, initial TS optimization,
                  C. Bannwarth, S. Ehlert,         DFT functionals, gCP, sTDA/sTD-DF
                  L. Wittmann, M. Mueller
   Ed Valeev, F. Pavosevic, A. Kumar             : LibInt (2-el integral package), F12 methods
   Garnet Chan, S. Sharma, J. Yang, R. Olivares  : DMRG
   Ulf Ekstrom                                   : XCFun DFT Library
   Mihaly Kallay                                 : mrcc  (arbitrary order and MRCC methods)
   Frank Weinhold                                : gennbo (NPA and NBO analysis)
   Simon Mueller                                 : openCOSMO-RS
   Christopher J. Cramer and Donald G. Truhlar   : smd solvation model
   Lars Goerigk                                  : TD-DFT with DH, B97 family of functionals
   V. Asgeirsson, H. Jonsson                     : NEB implementation
   FAccTs GmbH                                   : IRC, NEB, NEB-TS, DLPNO-Multilevel, CI-OPT
                                                   MM, QMMM, 2- and 3-layer-ONIOM, Crystal-QMMM,
                                                   LR-CPCM, SF, NACMEs, symmetry and pop. for TD-DFT,
                                                   nearIR, NL-DFT gradient (VV10), updates on ESD,
                                                   ML-optimized integration grids, MBIS, APM,
                                                   GOAT, DOCKER, SOLVATOR, interface openCOSMO-RS
   S Lehtola, MJT Oliveira, MAL Marques          : LibXC Library
   Liviu Ungur et al                             : ANISO software


 Your calculation uses the libint2 library for the computation of 2-el integrals
 For citations please refer to: http://libint.valeyev.net

 Your ORCA version has been built with support for libXC version: 6.2.2
 For citations please refer to: https://libxc.gitlab.io

 This ORCA versions uses:
   CBLAS   interface :  Fast vector & matrix operations
   LAPACKE interface :  Fast linear algebra routines
   SCALAPACK package :  Parallel linear algebra routines
   Shared memory     :  Shared parallel matrices
   BLAS/LAPACK       :  OpenBLAS 0.3.27  USE64BITINT DYNAMIC_ARCH NO_AFFINITY SkylakeX SINGLE_THREADED
        Core in use  :  SkylakeX
   Copyright (c) 2011-2014, The OpenBLAS Project


Your calculation utilizes the geometrical counterpoise correction gCP
Please cite in your paper:
H.Kruse, S. Grimme J.Chem.Phys., 136, (2012), 154101 
   

Your calculation utilizes the atom-pairwise dispersion correction
based on EEQ partial charges (D4)


================================================================================

----- Orbital basis set information -----
Your calculation utilizes the basis: def2-SV(P)
   F. Weigend and R. Ahlrichs, Phys. Chem. Chem. Phys. 7, 3297 (2005).

----- AuxJ basis set information -----
Your calculation utilizes the auxiliary basis: def2/J
   F. Weigend, Phys. Chem. Chem. Phys. 8, 1057 (2006).

================================================================================
                                        WARNINGS
                       Please study these warnings very carefully!
================================================================================


================================================================================
                                       INPUT FILE
================================================================================
NAME = sp.inp
|  1> ! pbe def2-sv(p) def2/J RI DEFGRID1 loosescf d4 GCP(DFT/SV(P)) printgap
|  2> %output
|  3>     printlevel normal
|  4> end
|  5> * xyz 0 1
|  6> C -2.5735176091 -0.5413956182 1.0740780589
|  7> C -1.7501947485 0.0424685802 -0.0399594179
|  8> O -2.2421341966 0.3122052453 -1.1189531322
|  9> C -0.278152025 0.2347366398 0.260044463
| 10> C 0.4202025968 1.0856166706 -0.810170283
| 11> C 1.8967618789 0.7121682145 -0.9700322963
| 12> C 2.4854076162 0.3164710279 0.3796097085
| 13> C 1.8380785472 -0.980216362 0.8820225516
| 14> C 0.4038613142 -1.1384216824 0.3633791498
| 15> H -2.0978776921 -0.4182434882 2.0404276056
| 16> H -3.5596664418 -0.0838317908 1.0727752766
| 17> H -2.7111628923 -1.6030205942 0.874215949
| 18> H -0.2027889862 0.7200749775 1.2374923064
| 19> H -0.1033726603 0.9531901275 -1.7600014578
| 20> H 0.3318194545 2.1387956486 -0.5364018618
| 21> H 2.0043842374 -0.1212926469 -1.6659175328
| 22> H 2.4416121027 1.5597612113 -1.3876431335
| 23> H 3.5648453945 0.1844262946 0.2971232766
| 24> H 2.3071305775 1.1264779742 1.0892122018
| 25> H 2.4233840627 -1.839638256 0.5521393041
| 26> H 1.8361781555 -0.9829650866 1.9729242519
| 27> H 0.4051344381 -1.5947752593 -0.6276785688
| 28> H -0.1542897617 -1.7943633658 1.0306238169
| 29> *
| 30> 
| 31>                          ****END OF INPUT****
================================================================================

                       ****************************
                       * Single Point Calculation *
                       ****************************

---------------------------------
CARTESIAN COORDINATES (ANGSTROEM)
---------------------------------
  C     -2.573518   -0.541396    1.074078
  C     -1.750195    0.042469   -0.039959
  O     -2.242134    0.312205   -1.118953
  C     -0.278152    0.234737    0.260044
  C      0.420203    1.085617   -0.810170
  C      1.896762    0.712168   -0.970032
  C      2.485408    0.316471    0.379610
  C      1.838079   -0.980216    0.882023
  C      0.403861   -1.138422    0.363379
  H     -2.097878   -0.418243    2.040428
  H     -3.559666   -0.083832    1.072775
  H     -2.711163   -1.603021    0.874216
  H     -0.202789    0.720075    1.237492
  H     -0.103373    0.953190   -1.760001
  H      0.331819    2.138796   -0.536402
  H      2.004384   -0.121293   -1.665918
  H      2.441612    1.559761   -1.387643
  H      3.564845    0.184426    0.297123
  H      2.307131    1.126478    1.089212
  H      2.423384   -1.839638    0.552139
  H      1.836178   -0.982965    1.972924
  H      0.405134   -1.594775   -0.627679
  H     -0.154290   -1.794363    1.030624

----------------------------
CARTESIAN COORDINATES (A.U.)
----------------------------
  NO LB      ZA    FRAG     MASS         X           Y           Z
   0 C     6.0000    0    12.011   -4.863243   -1.023089    2.029713
   1 C     6.0000    0    12.011   -3.307389    0.080254   -0.075512
   2 O     8.0000    0    15.999   -4.237020    0.589982   -2.114515
   3 C     6.0000    0    12.011   -0.525631    0.443588    0.491413
   4 C     6.0000    0    12.011    0.794068    2.051518   -1.531000
   5 C     6.0000    0    12.011    3.584360    1.345803   -1.833095
   6 C     6.0000    0    12.011    4.696740    0.598044    0.717358
   7 C     6.0000    0    12.011    3.473465   -1.852340    1.666781
   8 C     6.0000    0    12.011    0.763187   -2.151305    0.686687
   9 H     1.0000    0     1.008   -3.964414   -0.790366    3.855849
  10 H     1.0000    0     1.008   -6.726795   -0.158419    2.027251
  11 H     1.0000    0     1.008   -5.123355   -3.029270    1.652029
  12 H     1.0000    0     1.008   -0.383216    1.360745    2.338522
  13 H     1.0000    0     1.008   -0.195346    1.801268   -3.325921
  14 H     1.0000    0     1.008    0.627048    4.041738   -1.013653
  15 H     1.0000    0     1.008    3.787737   -0.229210   -3.148128
  16 H     1.0000    0     1.008    4.613978    2.947522   -2.622265
  17 H     1.0000    0     1.008    6.736582    0.348515    0.561482
  18 H     1.0000    0     1.008    4.359845    2.128735    2.058313
  19 H     1.0000    0     1.008    4.579532   -3.476412    1.043392
  20 H     1.0000    0     1.008    3.469874   -1.857535    3.728287
  21 H     1.0000    0     1.008    0.765593   -3.013688   -1.186141
  22 H     1.0000    0     1.008   -0.291565   -3.390855    1.947597

--------------------------------
INTERNAL COORDINATES (ANGSTROEM)
--------------------------------
 C      0   0   0     0.000000000000     0.00000000     0.00000000
 C      1   0   0     1.503275568442     0.00000000     0.00000000
 O      2   1   0     1.216137214542   121.47345464     0.00000000
 C      2   1   3     1.514555748431   115.77421647   181.51041654
 C      4   2   1     1.535270532238   111.98621528   191.52604340
 C      5   4   2     1.531419905256   112.09819796   209.92182260
 C      6   5   4     1.524668360216   110.06793498   325.16902903
 C      7   6   5     1.533900836303   110.26736635    66.32587807
 C      8   7   6     1.533296766144   111.78821656   331.06766348
 H      1   2   3     1.084080819946   112.09689027   199.09476602
 H      1   2   3     1.087131948579   109.41766048   322.12428932
 H      1   2   3     1.089008115961   108.17054426    78.57244106
 H      4   2   1     1.093909126128   107.47409551   312.71635583
 H      5   4   2     1.092633103922   108.71365885   331.72058948
 H      5   4   2     1.091763109832   108.84510600    88.20546452
 H      6   5   4     1.091098456563   110.36238226    85.72198340
 H      6   5   4     1.090721992969   109.39654531   203.76168438
 H      7   6   5     1.090607968182   110.27939290   187.85725447
 H      7   6   5     1.091526295643   108.65205441   305.44040869
 H      8   7   6     1.090876480332   109.90811437    91.68747135
 H      8   7   6     1.090906818520   109.29323531   209.48515935
 H      9   8   7     1.091080019793   110.44508807    85.11545240
 H      9   8   7     1.089498766095   109.52141876   203.64466588

---------------------------
INTERNAL COORDINATES (A.U.)
---------------------------
 C      0   0   0     0.000000000000     0.00000000     0.00000000
 C      1   0   0     2.840779128170     0.00000000     0.00000000
 O      2   1   0     2.298166276755   121.47345464     0.00000000
 C      2   1   3     2.862095579092   115.77421647   181.51041654
 C      4   2   1     2.901240847410   111.98621528   191.52604340
 C      5   4   2     2.893964216970   112.09819796   209.92182260
 C      6   5   4     2.881205645864   110.06793498   325.16902903
 C      7   6   5     2.898652497205   110.26736635    66.32587807
 C      8   7   6     2.897510970039   111.78821656   331.06766348
 H      1   2   3     2.048615856735   112.09689027   199.09476602
 H      1   2   3     2.054381654251   109.41766048   322.12428932
 H      1   2   3     2.057927096783   108.17054426    78.57244106
 H      4   2   1     2.067188663779   107.47409551   312.71635583
 H      5   4   2     2.064777331269   108.71365885   331.72058948
 H      5   4   2     2.063133280701   108.84510600    88.20546452
 H      6   5   4     2.061877268048   110.36238226    85.72198340
 H      6   5   4     2.061165854956   109.39654531   203.76168438
 H      7   6   5     2.060950379335   110.27939290   187.85725447
 H      7   6   5     2.062685766738   108.65205441   305.44040869
 H      8   7   6     2.061457793764   109.90811437    91.68747135
 H      8   7   6     2.061515124630   109.29323531   209.48515935
 H      9   8   7     2.061842427601   110.44508807    85.11545240
 H      9   8   7     2.058854291165   109.52141876   203.64466588

---------------------
BASIS SET INFORMATION
---------------------
There are 3 groups of distinct atoms

 Group   1 Type C   : 7s4p1d contracted to 3s2p1d pattern {511/31/1}
 Group   2 Type O   : 7s4p1d contracted to 3s2p1d pattern {511/31/1}
 Group   3 Type H   : 4s contracted to 2s pattern {31}

Atom   0C    basis set group =>   1
Atom   1C    basis set group =>   1
Atom   2O    basis set group =>   2
Atom   3C    basis set group =>   1
Atom   4C    basis set group =>   1
Atom   5C    basis set group =>   1
Atom   6C    basis set group =>   1
Atom   7C    basis set group =>   1
Atom   8C    basis set group =>   1
Atom   9H    basis set group =>   3
Atom  10H    basis set group =>   3
Atom  11H    basis set group =>   3
Atom  12H    basis set group =>   3
Atom  13H    basis set group =>   3
Atom  14H    basis set group =>   3
Atom  15H    basis set group =>   3
Atom  16H    basis set group =>   3
Atom  17H    basis set group =>   3
Atom  18H    basis set group =>   3
Atom  19H    basis set group =>   3
Atom  20H    basis set group =>   3
Atom  21H    basis set group =>   3
Atom  22H    basis set group =>   3
---------------------------------
AUXILIARY/J BASIS SET INFORMATION
---------------------------------
There are 3 groups of distinct atoms

 Group   1 Type C   : 12s5p4d2f1g contracted to 6s4p3d1f1g pattern {711111/2111/211/2/1}
 Group   2 Type O   : 12s5p4d2f1g contracted to 6s4p3d1f1g pattern {711111/2111/211/2/1}
 Group   3 Type H   : 5s2p1d contracted to 3s1p1d pattern {311/2/1}

Atom   0C    basis set group =>   1
Atom   1C    basis set group =>   1
Atom   2O    basis set group =>   2
Atom   3C    basis set group =>   1
Atom   4C    basis set group =>   1
Atom   5C    basis set group =>   1
Atom   6C    basis set group =>   1
Atom   7C    basis set group =>   1
Atom   8C    basis set group =>   1
Atom   9H    basis set group =>   3
Atom  10H    basis set group =>   3
Atom  11H    basis set group =>   3
Atom  12H    basis set group =>   3
Atom  13H    basis set group =>   3
Atom  14H    basis set group =>   3
Atom  15H    basis set group =>   3
Atom  16H    basis set group =>   3
Atom  17H    basis set group =>   3
Atom  18H    basis set group =>   3
Atom  19H    basis set group =>   3
Atom  20H    basis set group =>   3
Atom  21H    basis set group =>   3
Atom  22H    basis set group =>   3
------------------------------------------------------------------------------
                             ORCA STARTUP CALCULATIONS
                           -- RI-GTO INTEGRALS CHOSEN --
------------------------------------------------------------------------------
------------------------------------------------------------------------------
                   ___                                                        
                  /   \      - P O W E R E D   B Y -                         
                 /     \                                                     
                 |  |  |   _    _      __       _____    __    __             
                 |  |  |  | |  | |    /  \     |  _  \  |  |  /  |          
                  \  \/   | |  | |   /    \    | | | |  |  | /  /          
                 / \  \   | |__| |  /  /\  \   | |_| |  |  |/  /          
                |  |  |   |  __  | /  /__\  \  |    /   |      \           
                |  |  |   | |  | | |   __   |  |    \   |  |\   \          
                \     /   | |  | | |  |  |  |  | |\  \  |  | \   \       
                 \___/    |_|  |_| |__|  |__|  |_| \__\ |__|  \__/        
                                                                              
                      - O R C A' S   B I G   F R I E N D -                    
                                      &                                       
                       - I N T E G R A L  F E E D E R -                       
                                                                              
 v1 FN, 2020, v2 2021, v3 2022-2024                                           
------------------------------------------------------------------------------


----------------------
SHARK INTEGRAL PACKAGE
----------------------

Number of atoms                             ...     23
Number of basis functions                   ...    154
Number of shells                            ...     82
Maximum angular momentum                    ...      2
Integral batch strategy                     ... SHARK/LIBINT Hybrid
RI-J (if used) integral strategy            ... SPLIT-RIJ (Revised 2003 algorithm where possible)
Printlevel                                  ...      1
Contraction scheme used                     ... SEGMENTED contraction
Prescreening option                         ... SCHWARTZ
   Thresh                                   ... 1.000e-09
   Tcut                                     ... 1.000e-10
   Tpresel                                  ... 1.000e-10 
Coulomb Range Separation                    ... NOT USED
Exchange Range Separation                   ... NOT USED
Multipole approximations                    ... NOT USED
Finite Nucleus Model                        ... NOT USED
CABS basis                                  ... NOT available
Auxiliary Coulomb fitting basis             ... AVAILABLE
   # of basis functions in Aux-J            ...    595
   # of shells in Aux-J                     ...    205
   Maximum angular momentum in Aux-J        ...      4
Auxiliary J/K fitting basis                 ... NOT available
Auxiliary Correlation fitting basis         ... NOT available
Auxiliary 'external' fitting basis          ... NOT available

Checking pre-screening integrals            ... done (  0.0 sec) Dimension = 82
Check shell pair data                       ... done (  0.0 sec)
Shell pair information
Shell pair cut-off parameter TPreSel        ...   1.0e-10
Total number of shell pairs                 ...      3403
Shell pairs after pre-screening             ...      3210
Total number of primitive shell pairs       ...     13689
Primitive shell pairs kept                  ...      9063
          la=0 lb=0:   1441 shell pairs
          la=1 lb=0:    952 shell pairs
          la=1 lb=1:    169 shell pairs
          la=2 lb=0:    453 shell pairs
          la=2 lb=1:    154 shell pairs
          la=2 lb=2:     41 shell pairs

Calculating one electron integrals          ... done (  0.0 sec)
Calculating RI/J V-Matrix + Cholesky decomp.... done (  0.1 sec)
Calculating Nuclear repulsion               ... done (  0.0 sec) ENN=    474.302298310718 Eh

Diagonalization of the overlap matrix:
Smallest eigenvalue                        ... 6.569e-04
Time for diagonalization                   ...    0.002 sec
Threshold for overlap eigenvalues          ... 1.000e-07
Number of eigenvalues below threshold      ... 0
Time for construction of square roots      ...    0.017 sec
Total time needed                          ...    0.031 sec

-------------------
DFT GRID GENERATION
-------------------

General Integration Accuracy     IntAcc      ... 4.159
Radial Grid Type                 RadialGrid  ... OptM3 with GC (2021)
Angular Grid (max. ang.)         AngularGrid ... 3 (Lebedev-194)
Angular grid pruning method      GridPruning ... 4 (adaptive)
Weight generation scheme         WeightScheme... mBecke (2022)
Basis function cutoff            BFCut       ... 1.0000e-10
Integration weight cutoff        WCut        ... 1.0000e-14
Partially contracted basis set               ... off
Rotationally invariant grid construction     ... off
Angular grids for H and He will be reduced by one unit

Total number of grid points                  ...    48490
Total number of batches                      ...      770
Average number of points per batch           ...       62
Average number of grid points per atom       ...     2108
Initializing property integral containers    ... done (  0.0 sec)

SHARK setup successfully completed in   0.7 seconds

Maximum memory used throughout the entire STARTUP-calculation: 24.5 MB
-------------------------------------------------------------------------------
                                 ORCA GUESS
                   Start orbitals & Density for SCF / CASSCF
-------------------------------------------------------------------------------

------------
SCF SETTINGS
------------
Hamiltonian:
 Density Functional     Method          .... DFT(GTOs)
 Exchange Functional    Exchange        .... PBE
   PBE kappa parameter   XKappa         ....  0.804000
   PBE mue parameter    XMuePBE         ....  0.219520
 Correlation Functional Correlation     .... PBE
   PBE beta parameter  CBetaPBE         ....  0.066725
 LDA part of GGA corr.  LDAOpt          .... PW91-LDA
 Gradients option       PostSCFGGA      .... off
   NL short-range parameter             ....  6.400000
 RI-approximation to the Coulomb term is turned on
   Number of AuxJ basis functions       .... 595


General Settings:
 Integral files         IntName         .... sp
 Hartree-Fock type      HFTyp           .... RHF
 Total Charge           Charge          ....    0
 Multiplicity           Mult            ....    1
 Number of Electrons    NEL             ....   70
 Basis Dimension        Dim             ....  154
 Nuclear Repulsion      ENuc            ....    474.3022983107 Eh

Convergence Acceleration:
 AO-DIIS                CNVDIIS         .... on
   Start iteration      DIISMaxIt       ....    12
   Startup error        DIISStart       ....  0.200000
   # of expansion vecs  DIISMaxEq       ....     5
   Bias factor          DIISBfac        ....   1.050
   Max. coefficient     DIISMaxC        ....  10.000
 MO-DIIS                CNVKDIIS        .... off
 Trust-Rad. Augm. Hess. CNVTRAH         .... auto
   Auto Start mean grad. ratio tolernc. ....  1.125000
   Auto Start start iteration           ....    50
   Auto Start num. interpolation iter.  ....    10
   Max. Number of Micro iterations      ....    24
   Max. Number of Macro iterations      .... Maxiter - #DIIS iter
   Number of Davidson start vectors     ....     2
   Converg. threshold    (grad. norm)   ....   1.000e-04
   Grad. Scal. Fac. for Micro threshold ....   0.100
   Minimum threshold for Micro iter.    ....   1.000e-02
   NR start threshold (gradient norm)   ....   1.000e-04
   Initial trust radius                 ....   0.400
   Minimum AH scaling param. (alpha)    ....   1.000
   Maximum AH scaling param. (alpha)    .... 1000.000
   Quad. conv. algorithm                .... NR
   White noise on init. David. guess    .... on
   Maximum white noise                  ....   0.010
   Pseudo random numbers                .... off
   Inactive MOs                         .... canonical
   Orbital update algorithm             .... Taylor
   Preconditioner                       .... Diag
   Full preconditioner red. dimension   ....   250
 SOSCF                  CNVSOSCF        .... on
   Start iteration      SOSCFMaxIt      ....   150
   Startup grad/error   SOSCFStart      ....  0.003300
   Hessian update       SOSCFHessUp     .... L-BFGS
 Level Shifting         CNVShift        .... on
   Level shift para.    LevelShift      ....    0.2500
   Turn off err/grad.   ShiftErr        ....    0.0010
 Zerner damping         CNVZerner       .... off
 Static damping         CNVDamp         .... on
   Fraction old density DampFac         ....    0.7000
   Max. Damping (<1)    DampMax         ....    0.9800
   Min. Damping (>=0)   DampMin         ....    0.0000
   Turn off err/grad.   DampErr         ....    0.1000

SCF Procedure:
 Maximum # iterations   MaxIter         ....   125
 SCF integral mode      SCFMode         .... Direct
   Integral package                     .... SHARK and LIBINT hybrid scheme
 Reset frequency        DirectResetFreq ....    20
 Integral Threshold     Thresh          ....  1.000e-09 Eh
 Primitive CutOff       TCut            ....  1.000e-10 Eh

Convergence Tolerance:
 Convergence Check Mode ConvCheckMode   .... Total+1el-Energy
 Convergence forced     ConvForced      .... 0
 Energy Change          TolE            ....  1.000e-05 Eh
 1-El. energy change                    ....  1.000e-02 Eh
 Orbital Gradient       TolG            ....  1.000e-04
 Orbital Rotation angle TolX            ....  1.000e-04
 DIIS Error             TolErr          ....  5.000e-04

------------------------------
INITIAL GUESS: MODEL POTENTIAL
------------------------------
Loading Hartree-Fock densities                     ... done
Calculating cut-offs                               ... done
Initializing the effective Hamiltonian             ... done
Setting up the integral package (SHARK)            ... done
Starting the Coulomb interaction                   ... done (   0.1 sec)
Making the grid                                    ... done (   0.2 sec)
Mapping shells                                     ... done
Starting the XC term evaluation                    ... done (   0.2 sec)
  promolecular density results
     # of electrons  =     69.997877368
     EX              =    -53.232130448
     EC              =     -2.319596373
     EX+EC           =    -55.551726820
Transforming the Hamiltonian                       ... done (   0.0 sec)
Diagonalizing the Hamiltonian                      ... done (   0.0 sec)
Back transforming the eigenvectors                 ... done (   0.0 sec)
Now organizing SCF variables                       ... done
                      ------------------
                      INITIAL GUESS DONE (   0.6 sec)
                      ------------------
             **** ENERGY FILE WAS UPDATED (sp.en.tmp) ****
Finished Guess after   0.8 sec
Maximum memory used throughout the entire GUESS-calculation: 18.8 MB

-------------------------------------------------------------------------------------------
                                      ORCA LEAN-SCF
                              memory conserving SCF solver
-------------------------------------------------------------------------------------------

----------------------------------------D-I-I-S--------------------------------------------
Iteration    Energy (Eh)           Delta-E    RMSDP     MaxDP     DIISErr   Damp  Time(sec)
-------------------------------------------------------------------------------------------
               ***  Starting incremental Fock matrix formation  ***
    1    -387.4187535823190842     0.00e+00  5.38e-03  1.53e-01  2.20e-01  0.700   0.9
    2    -387.5496925493875437    -1.31e-01  3.51e-03  8.37e-02  7.72e-02  0.700   0.9
                               ***Turning on AO-DIIS***
    3    -387.5908323541742106    -4.11e-02  1.37e-03  1.66e-02  2.82e-02  0.700   0.8
    4    -387.6168063072702239    -2.60e-02  2.10e-03  2.37e-02  1.66e-02  0.000   0.8
    5    -387.6773956703243016    -6.06e-02  6.79e-04  1.40e-02  9.86e-03  0.000   0.8
                              *** Initializing SOSCF ***
---------------------------------------S-O-S-C-F--------------------------------------
Iteration    Energy (Eh)           Delta-E    RMSDP     MaxDP     MaxGrad    Time(sec)
--------------------------------------------------------------------------------------
    6    -387.6782996662786331    -9.04e-04  2.36e-04  2.65e-03  2.61e-03     0.8
               *** Restarting incremental Fock matrix formation ***
    7    -387.6783923435424981    -9.27e-05  1.61e-04  3.54e-03  5.58e-04     0.9
    8    -387.6783898672296687     2.48e-06  8.20e-05  2.74e-03  1.14e-03     0.7
                 **** Energy Check signals convergence ****

               *****************************************************
               *                     SUCCESS                       *
               *           SCF CONVERGED AFTER   8 CYCLES          *
               *****************************************************

             **** ENERGY FILE WAS UPDATED (sp.en.tmp) ****

----------------
TOTAL SCF ENERGY
----------------

Total Energy       :       -387.67838986722967 Eh          -10549.26530 eV

Components:
Nuclear Repulsion  :        474.30229831071750 Eh           12906.42169 eV
Electronic Energy  :       -861.98068817794717 Eh          -23455.68699 eV
One Electron Energy:      -1464.59348739137477 Eh          -39853.61491 eV
Two Electron Energy:        602.61279921342759 Eh           16397.92792 eV

Virial components:
Potential Energy   :       -771.92239727502829 Eh          -21005.07631 eV
Kinetic Energy     :        384.24400740779868 Eh           10455.81100 eV
Virial Ratio       :          2.00893802477910

DFT components:
N(Alpha)           :       35.000034383861 electrons
N(Beta)            :       35.000034383861 electrons
N(Total)           :       70.000068767722 electrons
E(X)               :      -54.414684690678 Eh       
E(C)               :       -2.327314479778 Eh       
E(XC)              :      -56.741999170456 Eh       

---------------
SCF CONVERGENCE
---------------

  Last Energy change         ...   -2.4763e-06  Tolerance :   1.0000e-05
  Last MAX-Density change    ...    2.7420e-03  Tolerance :   1.0000e-03
  Last RMS-Density change    ...    8.2017e-05  Tolerance :   1.0000e-04
  Last DIIS Error            ...    2.6092e-03  Tolerance :   5.0000e-04
  Last Orbital Gradient      ...    1.1361e-03  Tolerance :   1.0000e-04
  Last Orbital Rotation      ...    1.3831e-03  Tolerance :   1.0000e-04


----------------
ORBITAL ENERGIES
----------------

  NO   OCC          E(Eh)            E(eV) 
   0   2.0000     -18.735061      -509.8069 
   1   2.0000      -9.970782      -271.3188 
   2   2.0000      -9.899312      -269.3740 
   3   2.0000      -9.896057      -269.2854 
   4   2.0000      -9.888364      -269.0761 
   5   2.0000      -9.886285      -269.0195 
   6   2.0000      -9.883542      -268.9448 
   7   2.0000      -9.881192      -268.8809 
   8   2.0000      -9.877006      -268.7670 
   9   2.0000      -0.933006       -25.3884 
  10   2.0000      -0.762118       -20.7383 
  11   2.0000      -0.692858       -18.8536 
  12   2.0000      -0.666439       -18.1347 
  13   2.0000      -0.653973       -17.7955 
  14   2.0000      -0.567059       -15.4305 
  15   2.0000      -0.547336       -14.8938 
  16   2.0000      -0.489516       -13.3204 
  17   2.0000      -0.462455       -12.5840 
  18   2.0000      -0.445540       -12.1238 
  19   2.0000      -0.427309       -11.6277 
  20   2.0000      -0.408563       -11.1176 
  21   2.0000      -0.387297       -10.5389 
  22   2.0000      -0.380315       -10.3489 
  23   2.0000      -0.378217       -10.2918 
  24   2.0000      -0.356571        -9.7028 
  25   2.0000      -0.338958        -9.2235 
  26   2.0000      -0.333388        -9.0719 
  27   2.0000      -0.329132        -8.9561 
  28   2.0000      -0.321729        -8.7547 
  29   2.0000      -0.311243        -8.4693 
  30   2.0000      -0.304683        -8.2909 
  31   2.0000      -0.270136        -7.3508 
  32   2.0000      -0.264802        -7.2056 
  33   2.0000      -0.263714        -7.1760 
  34   2.0000      -0.194276        -5.2865 
  35   0.0000      -0.048941        -1.3318 
  36   0.0000       0.021584         0.5873 
  37   0.0000       0.043427         1.1817 
  38   0.0000       0.057014         1.5514 
  39   0.0000       0.070099         1.9075 
  40   0.0000       0.084085         2.2881 
  41   0.0000       0.090298         2.4571 
  42   0.0000       0.101439         2.7603 
  43   0.0000       0.103050         2.8041 
  44   0.0000       0.113427         3.0865 
  45   0.0000       0.120532         3.2798 
*Only the first 10 virtual orbitals were printed.

                    ********************************
                    * MULLIKEN POPULATION ANALYSIS *
                    ********************************

-----------------------
MULLIKEN ATOMIC CHARGES
-----------------------
   0 C :   -0.244571
   1 C :    0.029126
   2 O :   -0.167484
   3 C :   -0.215335
   4 C :   -0.107491
   5 C :   -0.150627
   6 C :   -0.158832
   7 C :   -0.135077
   8 C :   -0.142225
   9 H :    0.108761
  10 H :    0.125653
  11 H :    0.136599
  12 H :    0.078057
  13 H :    0.098276
  14 H :    0.079396
  15 H :    0.076901
  16 H :    0.085332
  17 H :    0.086562
  18 H :    0.076529
  19 H :    0.085042
  20 H :    0.081035
  21 H :    0.085729
  22 H :    0.088644
Sum of atomic charges:    0.0000000

--------------------------------
MULLIKEN REDUCED ORBITAL CHARGES
--------------------------------
  0 C s       :     3.035594  s :     3.035594
      pz      :     1.032615  p :     3.183323
      px      :     1.066734
      py      :     1.083974
      dz2     :     0.007523  d :     0.025653
      dxz     :     0.005738
      dyz     :     0.002660
      dx2y2   :     0.006288
      dxy     :     0.003445

  1 C s       :     3.146317  s :     3.146317
      pz      :     0.925859  p :     2.732777
      px      :     0.994657
      py      :     0.812262
      dz2     :     0.025734  d :     0.091780
      dxz     :     0.029779
      dyz     :     0.017129
      dx2y2   :     0.010695
      dxy     :     0.008443

  2 O s       :     3.756279  s :     3.756279
      pz      :     1.366947  p :     4.393905
      px      :     1.686957
      py      :     1.340001
      dz2     :     0.005852  d :     0.017300
      dxz     :     0.004823
      dyz     :     0.004433
      dx2y2   :     0.000942
      dxy     :     0.001250

  3 C s       :     3.064175  s :     3.064175
      pz      :     1.060713  p :     3.110766
      px      :     1.021168
      py      :     1.028886
      dz2     :     0.009792  d :     0.040393
      dxz     :     0.004976
      dyz     :     0.009135
      dx2y2   :     0.009978
      dxy     :     0.006512

  4 C s       :     3.012837  s :     3.012837
      pz      :     1.041945  p :     3.059907
      px      :     0.985667
      py      :     1.032294
      dz2     :     0.007247  d :     0.034747
      dxz     :     0.008792
      dyz     :     0.004241
      dx2y2   :     0.009626
      dxy     :     0.004841

  5 C s       :     3.011623  s :     3.011623
      pz      :     1.051510  p :     3.102340
      px      :     1.030846
      py      :     1.019985
      dz2     :     0.005504  d :     0.036663
      dxz     :     0.007231
      dyz     :     0.010002
      dx2y2   :     0.006979
      dxy     :     0.006947

  6 C s       :     3.021473  s :     3.021473
      pz      :     1.028433  p :     3.100948
      px      :     1.041344
      py      :     1.031171
      dz2     :     0.007287  d :     0.036411
      dxz     :     0.003846
      dyz     :     0.011190
      dx2y2   :     0.010019
      dxy     :     0.004068

  7 C s       :     3.018528  s :     3.018528
      pz      :     1.044945  p :     3.080685
      px      :     1.001034
      py      :     1.034706
      dz2     :     0.011067  d :     0.035864
      dxz     :     0.004312
      dyz     :     0.003971
      dx2y2   :     0.006880
      dxy     :     0.009635

  8 C s       :     3.022271  s :     3.022271
      pz      :     1.034099  p :     3.083397
      px      :     1.024286
      py      :     1.025011
      dz2     :     0.006923  d :     0.036557
      dxz     :     0.005867
      dyz     :     0.008733
      dx2y2   :     0.006437
      dxy     :     0.008597

  9 H s       :     0.891239  s :     0.891239

 10 H s       :     0.874347  s :     0.874347

 11 H s       :     0.863401  s :     0.863401

 12 H s       :     0.921943  s :     0.921943

 13 H s       :     0.901724  s :     0.901724

 14 H s       :     0.920604  s :     0.920604

 15 H s       :     0.923099  s :     0.923099

 16 H s       :     0.914668  s :     0.914668

 17 H s       :     0.913438  s :     0.913438

 18 H s       :     0.923471  s :     0.923471

 19 H s       :     0.914958  s :     0.914958

 20 H s       :     0.918965  s :     0.918965

 21 H s       :     0.914271  s :     0.914271

 22 H s       :     0.911356  s :     0.911356


------------------------
MULLIKEN OVERLAP CHARGES
------------------------
B(  0-C ,  1-C ) :   0.7821 B(  0-C ,  2-O ) :  -0.1846 B(  0-C ,  3-C ) :  -0.5015 
B(  0-C ,  9-H ) :   0.6601 B(  0-C , 10-H ) :   0.6508 B(  0-C , 11-H ) :   0.6639 
B(  1-C ,  2-O ) :   1.4845 B(  1-C ,  3-C ) :   0.2308 B(  2-O ,  3-C ) :  -0.2752 
B(  2-O , 13-H ) :   0.0652 B(  3-C ,  4-C ) :   0.5896 B(  3-C ,  5-C ) :  -0.0936 
B(  3-C ,  6-C ) :  -0.0568 B(  3-C ,  8-C ) :   0.6951 B(  3-C , 12-H ) :   0.5483 
B(  3-C , 22-H ) :  -0.0516 B(  4-C ,  5-C ) :   0.7749 B(  4-C ,  7-C ) :  -0.1371 
B(  4-C , 13-H ) :   0.6586 B(  4-C , 14-H ) :   0.6668 B(  5-C ,  6-C ) :   0.8315 
B(  5-C ,  7-C ) :  -0.0564 B(  5-C , 15-H ) :   0.6671 B(  5-C , 16-H ) :   0.6733 
B(  5-C , 18-H ) :  -0.0501 B(  6-C ,  7-C ) :   0.7696 B(  6-C ,  8-C ) :  -0.1021 
B(  6-C , 17-H ) :   0.6686 B(  6-C , 18-H ) :   0.6787 B(  7-C ,  8-C ) :   0.7642 
B(  7-C , 19-H ) :   0.6665 B(  7-C , 20-H ) :   0.6690 B(  8-C , 21-H ) :   0.6482 
B(  8-C , 22-H ) :   0.6907 B( 13-H , 14-H ) :  -0.0517 B( 15-H , 16-H ) :  -0.0643 
B( 17-H , 18-H ) :  -0.0637 B( 19-H , 20-H ) :  -0.0601 B( 21-H , 22-H ) :  -0.0655 



                     *******************************
                     * LOEWDIN POPULATION ANALYSIS *
                     *******************************

----------------------
LOEWDIN ATOMIC CHARGES
----------------------
   0 C :   -0.362995
   1 C :    0.051704
   2 O :   -0.129193
   3 C :   -0.171553
   4 C :   -0.221589
   5 C :   -0.227923
   6 C :   -0.231207
   7 C :   -0.226790
   8 C :   -0.211598
   9 H :    0.126514
  10 H :    0.142727
  11 H :    0.149784
  12 H :    0.125975
  13 H :    0.125388
  14 H :    0.118442
  15 H :    0.114738
  16 H :    0.119093
  17 H :    0.118224
  18 H :    0.113773
  19 H :    0.119301
  20 H :    0.116532
  21 H :    0.122580
  22 H :    0.118072

-------------------------------
LOEWDIN REDUCED ORBITAL CHARGES
-------------------------------
  0 C s       :     2.954200  s :     2.954200
      pz      :     1.096050  p :     3.342005
      px      :     1.118464
      py      :     1.127492
      dz2     :     0.019323  d :     0.066789
      dxz     :     0.015815
      dyz     :     0.007106
      dx2y2   :     0.015283
      dxy     :     0.009261

  1 C s       :     2.885749  s :     2.885749
      pz      :     1.003990  p :     2.846874
      px      :     1.037103
      py      :     0.805781
      dz2     :     0.061933  d :     0.215673
      dxz     :     0.073794
      dyz     :     0.036287
      dx2y2   :     0.026826
      dxy     :     0.016834

  2 O s       :     3.552269  s :     3.552269
      pz      :     1.482190  p :     4.546286
      px      :     1.712439
      py      :     1.351657
      dz2     :     0.011078  d :     0.030637
      dxz     :     0.009730
      dyz     :     0.006570
      dx2y2   :     0.001548
      dxy     :     0.001712

  3 C s       :     2.886952  s :     2.886952
      pz      :     1.075569  p :     3.183732
      px      :     1.048701
      py      :     1.059463
      dz2     :     0.023572  d :     0.100869
      dxz     :     0.012382
      dyz     :     0.021882
      dx2y2   :     0.025867
      dxy     :     0.017166

  4 C s       :     2.905943  s :     2.905943
      pz      :     1.098387  p :     3.229710
      px      :     1.052135
      py      :     1.079188
      dz2     :     0.017562  d :     0.085935
      dxz     :     0.021514
      dyz     :     0.010997
      dx2y2   :     0.024464
      dxy     :     0.011398

  5 C s       :     2.904106  s :     2.904106
      pz      :     1.073946  p :     3.235107
      px      :     1.065544
      py      :     1.095617
      dz2     :     0.014735  d :     0.088710
      dxz     :     0.016857
      dyz     :     0.024298
      dx2y2   :     0.017113
      dxy     :     0.015707

  6 C s       :     2.906260  s :     2.906260
      pz      :     1.078894  p :     3.236930
      px      :     1.086293
      py      :     1.071742
      dz2     :     0.017900  d :     0.088017
      dxz     :     0.009710
      dyz     :     0.026344
      dx2y2   :     0.023920
      dxy     :     0.010143

  7 C s       :     2.907916  s :     2.907916
      pz      :     1.094439  p :     3.231620
      px      :     1.056507
      py      :     1.080674
      dz2     :     0.026669  d :     0.087254
      dxz     :     0.010046
      dyz     :     0.009141
      dx2y2   :     0.018102
      dxy     :     0.023297

  8 C s       :     2.906567  s :     2.906567
      pz      :     1.105387  p :     3.216962
      px      :     1.057514
      py      :     1.054061
      dz2     :     0.016397  d :     0.088068
      dxz     :     0.013406
      dyz     :     0.019880
      dx2y2   :     0.017481
      dxy     :     0.020904

  9 H s       :     0.873486  s :     0.873486

 10 H s       :     0.857273  s :     0.857273

 11 H s       :     0.850216  s :     0.850216

 12 H s       :     0.874025  s :     0.874025

 13 H s       :     0.874612  s :     0.874612

 14 H s       :     0.881558  s :     0.881558

 15 H s       :     0.885262  s :     0.885262

 16 H s       :     0.880907  s :     0.880907

 17 H s       :     0.881776  s :     0.881776

 18 H s       :     0.886227  s :     0.886227

 19 H s       :     0.880699  s :     0.880699

 20 H s       :     0.883468  s :     0.883468

 21 H s       :     0.877420  s :     0.877420

 22 H s       :     0.881928  s :     0.881928


---------------------------------
LOEWDIN BOND ORDERS (THRESH 0.050000)
---------------------------------
B(  0-C ,  1-C ) :   1.1047 B(  0-C ,  2-O ) :   0.1083 B(  0-C ,  3-C ) :   0.0712 
B(  0-C ,  9-H ) :   0.9273 B(  0-C , 10-H ) :   0.9201 B(  0-C , 11-H ) :   0.9090 
B(  1-C ,  2-O ) :   2.2589 B(  1-C ,  3-C ) :   1.0289 B(  1-C ,  4-C ) :   0.0565 
B(  1-C ,  8-C ) :   0.0694 B(  2-O ,  3-C ) :   0.1068 B(  3-C ,  4-C ) :   1.0449 
B(  3-C ,  7-C ) :   0.0514 B(  3-C ,  8-C ) :   1.0300 B(  3-C , 12-H ) :   0.8549 
B(  4-C ,  5-C ) :   1.0865 B(  4-C ,  6-C ) :   0.0527 B(  4-C , 13-H ) :   0.8905 
B(  4-C , 14-H ) :   0.9059 B(  5-C ,  6-C ) :   1.0955 B(  5-C ,  7-C ) :   0.0508 
B(  5-C , 15-H ) :   0.9046 B(  5-C , 16-H ) :   0.9053 B(  6-C ,  7-C ) :   1.0860 
B(  6-C , 17-H ) :   0.9071 B(  6-C , 18-H ) :   0.9055 B(  7-C ,  8-C ) :   1.0829 
B(  7-C , 19-H ) :   0.9063 B(  7-C , 20-H ) :   0.9095 B(  8-C , 21-H ) :   0.9008 
B(  8-C , 22-H ) :   0.9017 

------------------------------------------
LOEWDIN REDUCED ORBITAL POPULATIONS PER MO
-------------------------------------------
THRESHOLD FOR PRINTING IS 0.1%%
                      0         1         2         3         4         5   
                 -18.73506  -9.97078  -9.89931  -9.89606  -9.88836  -9.88628
                   2.00000   2.00000   2.00000   2.00000   2.00000   2.00000
                  --------  --------  --------  --------  --------  --------
 0 C  s               0.0       0.0       0.0       0.0       0.0      99.7
 1 C  s               0.0      99.4       0.0       0.0       0.0       0.0
 1 C  px              0.0       0.0       0.1       0.0       0.0       0.0
 2 O  s              99.9       0.0       0.0       0.0       0.0       0.0
 2 O  pz              0.0       0.2       0.0       0.0       0.0       0.0
 3 C  s               0.0       0.0      99.6       0.0       0.0       0.0
 3 C  px              0.0       0.1       0.0       0.0       0.0       0.0
 7 C  s               0.0       0.0       0.0       0.0      99.6       0.0
 8 C  s               0.0       0.0       0.0      99.6       0.0       0.0

                      6         7         8         9        10        11   
                  -9.88354  -9.88119  -9.87701  -0.93301  -0.76212  -0.69286
                   2.00000   2.00000   2.00000   2.00000   2.00000   2.00000
                  --------  --------  --------  --------  --------  --------
 0 C  s               0.0       0.0       0.0       1.2       0.4      13.4
 0 C  pz              0.0       0.0       0.0       1.4       0.0       0.1
 0 C  px              0.0       0.0       0.0       0.2       0.2       0.7
 0 C  py              0.0       0.0       0.0       0.3       0.0       0.1
 1 C  s               0.0       0.0       0.0      19.6       1.0       6.1
 1 C  pz              0.0       0.0       0.0      10.1       1.3       8.7
 1 C  px              0.0       0.0       0.0       2.1       2.8       1.2
 1 C  py              0.0       0.0       0.0       0.6       0.0       0.9
 1 C  dz2             0.0       0.0       0.0       0.8       0.1       0.1
 1 C  dxz             0.0       0.0       0.0       0.6       0.0       0.1
 1 C  dyz             0.0       0.0       0.0       0.2       0.0       0.0
 2 O  s               0.0       0.0       0.0      50.9       1.1       3.3
 2 O  pz              0.0       0.0       0.0       5.2       0.0       0.3
 2 O  px              0.0       0.0       0.0       1.1       0.0       0.0
 2 O  py              0.0       0.0       0.0       0.3       0.0       0.0
 2 O  dz2             0.0       0.0       0.0       0.1       0.0       0.0
 3 C  s               0.0       0.0       0.0       1.3      13.8       8.9
 3 C  pz              0.0       0.0       0.1       0.3       0.1       0.2
 3 C  px              0.0       0.0       0.0       1.5       1.1       2.0
 3 C  py              0.0       0.0       0.0       0.0       0.3       0.5
 4 C  s               0.0       0.0      99.6       0.2       9.0       0.0
 4 C  pz              0.0       0.0       0.0       0.0       0.8       0.6
 4 C  px              0.0       0.1       0.0       0.2       0.2       2.6
 4 C  py              0.0       0.0       0.0       0.1       1.1       0.1
 5 C  s               0.0      99.6       0.0       0.0       8.4       7.0
 5 C  pz              0.1       0.0       0.0       0.0       1.2       0.8
 5 C  px              0.0       0.0       0.1       0.0       0.5       0.4
 5 C  py              0.0       0.0       0.0       0.0       0.1       0.1
 6 C  s              99.6       0.0       0.0       0.0       8.7      10.8
 6 C  pz              0.0       0.1       0.0       0.0       0.2       0.3
 6 C  px              0.0       0.0       0.0       0.0       1.3       0.1
 6 C  py              0.0       0.0       0.0       0.0       0.3       0.0
 7 C  s               0.0       0.0       0.0       0.0       9.8       3.1
 7 C  pz              0.0       0.0       0.0       0.0       0.6       0.1
 7 C  px              0.0       0.0       0.0       0.0       0.7       1.2
 7 C  py              0.1       0.0       0.0       0.0       0.7       0.9
 8 C  s               0.0       0.0       0.0       0.1      13.0       1.5
 8 C  px              0.0       0.0       0.0       0.1       0.2       3.0
 8 C  py              0.0       0.0       0.0       0.1       1.8       0.4
 9 H  s               0.0       0.0       0.0       0.1       0.1       3.4
10 H  s               0.0       0.0       0.0       0.2       0.0       2.4
11 H  s               0.0       0.0       0.0       0.2       0.1       2.9
12 H  s               0.0       0.0       0.0       0.1       2.6       2.1
13 H  s               0.0       0.0       0.1       0.2       1.3       0.0
14 H  s               0.0       0.0       0.1       0.0       1.4       0.0
15 H  s               0.0       0.1       0.0       0.0       1.5       1.4
16 H  s               0.0       0.1       0.0       0.0       1.2       1.4
17 H  s               0.1       0.0       0.0       0.0       1.3       2.2
18 H  s               0.1       0.0       0.0       0.0       1.6       2.0
19 H  s               0.0       0.0       0.0       0.0       1.5       0.7
20 H  s               0.0       0.0       0.0       0.0       1.6       0.6
21 H  s               0.0       0.0       0.0       0.0       2.3       0.3
22 H  s               0.0       0.0       0.0       0.0       2.1       0.6

                     12        13        14        15        16        17   
                  -0.66644  -0.65397  -0.56706  -0.54734  -0.48952  -0.46245
                   2.00000   2.00000   2.00000   2.00000   2.00000   2.00000
                  --------  --------  --------  --------  --------  --------
 0 C  s               0.2      25.2       2.1       1.2       1.4       0.1
 0 C  pz              0.0       0.0       0.1       0.2       1.7       0.9
 0 C  px              0.0       0.0       1.0       0.6       3.7       0.6
 0 C  py              0.0       0.0       0.4       0.0       1.4       0.1
 1 C  s               0.0       1.5       2.1       0.4       6.0       1.8
 1 C  pz              0.0       5.1       0.4       0.0       1.7       0.1
 1 C  px              0.8       5.6       5.5       0.7       2.1       1.3
 1 C  py              0.3       1.4       0.7       0.3       0.1       1.0
 1 C  dxz             0.0       0.2       0.0       0.0       0.0       0.1
 2 O  s               0.1       0.6       0.6       0.0       2.1       2.2
 2 O  pz              0.0       0.3       0.2       0.0       1.7       0.7
 2 O  px              0.1       0.2       0.5       0.0       0.9       1.9
 2 O  py              0.0       0.1       0.0       0.1       0.0       0.3
 3 C  s               1.7       4.8       6.0       0.2       0.0       2.2
 3 C  pz              1.9       0.1       0.7       1.5       0.1      13.5
 3 C  px              0.0       0.9       3.6       0.7      10.9       4.7
 3 C  py              4.6       0.2       1.8       7.3       0.0       1.5
 3 C  dx2y2           0.0       0.0       0.1       0.0       0.2       0.0
 4 C  s              17.4       0.6       1.6      11.2       0.7       2.0
 4 C  pz              0.0       0.4       2.5       0.0       1.7       4.6
 4 C  px              0.3       2.0       3.0       2.2       0.4       2.9
 4 C  py              0.0       0.2       0.0       1.3       0.0       0.3
 5 C  s               8.7       4.4       4.1       5.1       4.6       1.5
 5 C  pz              0.2       0.4       3.2       0.0       7.0       0.1
 5 C  px              2.2       1.1       1.7       5.8       0.6       0.0
 5 C  py              0.7       0.0       0.1       0.4       0.0       0.0
 6 C  s               0.7       7.5       9.2       1.2       3.6       2.2
 6 C  pz              2.7       0.3       2.2       4.0       1.9       0.6
 6 C  px              0.0       0.0       0.8       0.4       0.0       5.3
 6 C  py              3.3       0.1       0.0       3.4       2.9       0.0
 7 C  s              16.7       0.1       0.0       9.6       4.4       0.2
 7 C  pz              0.0       0.0       0.2       1.5       0.6       0.9
 7 C  px              0.4       2.4       4.7       1.1       1.1       2.1
 7 C  py              0.1       1.0       3.6       0.6       4.8       0.3
 7 C  dx2y2           0.0       0.1       0.1       0.0       0.0       0.0
 8 C  s               8.7       5.6       7.8       3.7       1.8       0.7
 8 C  pz              0.7       0.0       0.1       0.7       0.5       4.8
 8 C  px              2.2       0.3       0.4       5.3       0.8       1.4
 8 C  py              0.7       0.2       3.0       0.0       0.3       7.1
 8 C  dx2y2           0.1       0.0       0.0       0.1       0.1       0.0
 9 H  s               0.0       5.6       0.4       0.3       0.7       0.4
10 H  s               0.1       6.0       1.1       0.8       1.9       0.4
11 H  s               0.1       6.1       1.2       0.4       1.8       0.0
12 H  s               0.3       0.7       3.3       0.0       0.0      10.0
13 H  s               3.6       0.2       0.7       4.1       0.0       4.6
14 H  s               3.9       0.1       0.3       5.1       0.5       0.9
15 H  s               1.5       0.9       2.0       2.2       4.7       0.6
16 H  s               2.1       1.1       1.4       2.3       3.3       0.6
17 H  s               0.2       1.9       3.7       0.6       1.0       4.0
18 H  s               0.1       1.6       3.8       0.3       4.6       0.7
19 H  s               3.8       0.0       0.0       4.0       4.9       0.2
20 H  s               3.9       0.0       0.0       4.7       2.6       0.6
21 H  s               1.6       1.3       3.8       1.8       0.8       4.9
22 H  s               2.3       1.0       3.1       1.9       0.4       1.0

                     18        19        20        21        22        23   
                  -0.44554  -0.42731  -0.40856  -0.38730  -0.38031  -0.37822
                   2.00000   2.00000   2.00000   2.00000   2.00000   2.00000
                  --------  --------  --------  --------  --------  --------
 0 C  s               0.3       0.6       0.0       0.0       0.1       0.0
 0 C  pz              0.5      20.0       0.4       9.2       0.0       5.4
 0 C  px              1.5       0.2       0.9       0.2      24.7       4.5
 0 C  py              0.2       2.5      13.3      16.0       0.3       4.8
 0 C  dz2             0.0       0.0       0.0       0.0       0.2       0.0
 0 C  dxz             0.0       0.3       0.0       0.1       0.0       0.0
 0 C  dyz             0.0       0.1       0.1       0.0       0.0       0.0
 0 C  dx2y2           0.0       0.0       0.1       0.1       0.0       0.0
 0 C  dxy             0.0       0.0       0.0       0.0       0.1       0.0
 1 C  s               0.1       3.8       0.0       0.2       0.2       0.4
 1 C  pz              0.6       1.4       1.7       0.5       7.0       1.2
 1 C  px              0.4       8.7       1.8       0.4       0.7       4.5
 1 C  py              0.0       1.7       9.5       6.2       2.3       0.1
 1 C  dxy             0.0       0.0       0.0       0.1       0.0       0.0
 2 O  s               0.0       4.7       0.0       0.1       5.9       0.2
 2 O  pz              0.1      11.7       1.6       0.4      11.1       0.1
 2 O  px              0.3       0.7       0.8       0.9       7.1       5.5
 2 O  py              0.0       2.3       3.8       3.9       0.0       0.1
 2 O  dz2             0.0       0.1       0.0       0.0       0.0       0.0
 2 O  dxz             0.0       0.0       0.0       0.0       0.1       0.1
 3 C  s               0.8       0.5       0.0       1.0       0.7       0.4
 3 C  pz              4.8       0.1       1.0       1.4       2.8       1.2
 3 C  px              0.8       1.7       0.0       1.0       0.0       1.6
 3 C  py              0.1       0.1       6.6       1.3       0.4       0.7
 3 C  dx2y2           0.0       0.0       0.0       0.1       0.0       0.1
 4 C  s               0.5       0.2       0.0       0.0       0.4       0.3
 4 C  pz              0.1       0.7       2.6       4.3       1.4       5.2
 4 C  px              0.8       2.3       0.6       0.1       0.8       1.4
 4 C  py             11.8       0.0       2.9       2.3       0.7       1.0
 4 C  dz2             0.0       0.0       0.0       0.0       0.0       0.1
 5 C  s               0.0       0.1       0.1       0.0       0.2       0.1
 5 C  pz              0.0       2.4       0.9       0.0       0.2       8.7
 5 C  px              0.2       3.3       1.4       1.9       2.9       0.0
 5 C  py             13.4       0.0       0.0       0.3       1.6       2.6
 6 C  s               0.1       0.0       0.0       0.1       0.1       0.1
 6 C  pz              2.0       0.3       3.3       3.1       0.0       0.9
 6 C  px              0.5       5.4       1.5       3.8       0.3      10.3
 6 C  py              6.9       0.1       0.0       0.9       2.5       2.4
 7 C  s               0.0       0.0       0.2       0.0       0.0       0.2
 7 C  pz              7.4       0.4       9.1       2.1       3.7       2.1
 7 C  px              1.4       1.3       0.0       2.2       0.6       0.7
 7 C  py              0.2       1.7       3.6       4.3       0.6       0.8
 8 C  s               0.7       0.0       0.6       0.1       0.0       0.1
 8 C  pz             10.4       0.6       1.5       0.0       0.1       1.1
 8 C  px              1.9       1.2       2.2       0.1       0.0       3.4
 8 C  py              4.4       0.9       4.8       0.0       0.0       1.1
 9 H  s               0.1       8.2       0.2       5.7       2.5       3.9
10 H  s               0.7       0.2       2.3       1.0       9.5       3.8
11 H  s               0.4       1.1       5.5       9.3       1.1       1.3
12 H  s               0.7       0.6       1.6       2.4       0.2       0.8
13 H  s               0.0       0.8       0.6       1.3       0.8       3.8
14 H  s               4.9       0.0       1.9       1.9       0.5       0.3
15 H  s               2.3       0.8       0.1       0.1       0.0       3.3
16 H  s               2.9       1.2       0.0       0.4       2.6       0.1
17 H  s               0.1       2.1       1.0       1.9       0.0       5.9
18 H  s               3.3       0.3       0.5       2.1       0.3       0.3
19 H  s               0.5       0.9       1.6       3.9       0.0       0.5
20 H  s               2.1       0.2       4.6       1.0       1.9       0.5
21 H  s               0.5       0.0       2.8       0.0       0.0       0.3
22 H  s               7.6       1.0       0.1       0.0       0.0       0.5

                     24        25        26        27        28        29   
                  -0.35657  -0.33896  -0.33339  -0.32913  -0.32173  -0.31124
                   2.00000   2.00000   2.00000   2.00000   2.00000   2.00000
                  --------  --------  --------  --------  --------  --------
 0 C  s               0.0       0.0       0.0       0.0       0.1       0.0
 0 C  pz              0.2       9.4       0.1       0.0       0.0       0.0
 0 C  px              0.7       2.4       1.0       1.5       6.7       1.0
 0 C  py              3.5       0.9       0.1       4.5       0.0       0.7
 0 C  dz2             0.0       0.4       0.0       0.0       0.1       0.0
 0 C  dxz             0.0       0.1       0.0       0.0       0.0       0.0
 0 C  dx2y2           0.1       0.0       0.0       0.1       0.0       0.0
 1 C  s               0.2       0.5       0.1       0.0       0.0       0.0
 1 C  pz              1.7       5.4       0.1       0.2       0.6       0.2
 1 C  px              0.3       2.4       1.0       0.8       2.0       0.1
 1 C  py              0.8       1.0       0.1       1.0       0.3       0.6
 1 C  dz2             0.0       0.3       0.0       0.0       0.0       0.0
 1 C  dxz             0.0       0.1       0.0       0.1       0.1       0.1
 1 C  dxy             0.0       0.1       0.0       0.0       0.0       0.0
 2 O  s               2.4       2.7       0.0       0.3       0.0       0.1
 2 O  pz              8.1      13.7       0.8       2.7       0.0       0.6
 2 O  px              3.1       1.3       0.9       0.0       0.8       0.8
 2 O  py              0.0       6.4       0.0       0.6       0.0       0.5
 3 C  s               0.8       0.0       0.0       0.0       0.1       0.0
 3 C  pz              0.8       0.5       0.3       3.1       3.7       5.4
 3 C  px              0.0       5.8       0.7       0.0       3.4       0.2
 3 C  py              2.4       2.8       4.6       3.6       0.5       0.5
 3 C  dz2             0.0       0.0       0.1       0.1       0.0       0.1
 3 C  dxz             0.0       0.0       0.2       0.0       0.0       0.0
 3 C  dyz             0.1       0.0       0.0       0.2       0.1       0.0
 3 C  dx2y2           0.0       0.1       0.0       0.0       0.0       0.1
 3 C  dxy             0.0       0.0       0.2       0.0       0.0       0.0
 4 C  s               0.2       0.2       0.2       0.4       0.1       0.0
 4 C  pz              0.5       0.1       4.2       0.8       0.0      12.4
 4 C  px              2.2       2.5       2.2       0.6       5.6       3.3
 4 C  py              0.3       0.3      10.2       0.4       6.9       3.8
 4 C  dz2             0.0       0.0       0.0       0.1       0.1       0.1
 4 C  dx2y2           0.0       0.0       0.1       0.0       0.0       0.3
 5 C  s               0.0       0.1       0.3       0.2       0.1       0.0
 5 C  pz              0.1       0.8       0.4      13.9       0.1       0.0
 5 C  px              0.0       0.6       5.8       0.1       4.0       6.6
 5 C  py             13.2       2.1       4.7       0.0       0.2       2.5
 5 C  dz2             0.0       0.1       0.0       0.0       0.0       0.0
 5 C  dyz             0.0       0.0       0.2       0.1       0.0       0.0
 5 C  dx2y2           0.0       0.0       0.1       0.1       0.1       0.1
 5 C  dxy             0.1       0.0       0.0       0.0       0.1       0.0
 6 C  s               0.5       0.1       0.0       0.1       0.1       0.1
 6 C  pz              2.7       0.1       0.3      12.2       2.0       1.5
 6 C  px              0.1       5.3       0.1       0.0       6.1       0.0
 6 C  py              2.1       2.7       2.9       0.3       8.3       2.2
 6 C  dz2             0.0       0.1       0.0       0.0       0.0       0.1
 6 C  dxz             0.0       0.0       0.1       0.1       0.0       0.0
 6 C  dyz             0.0       0.0       0.1       0.1       0.0       0.2
 6 C  dx2y2           0.1       0.0       0.0       0.0       0.1       0.0
 6 C  dxy             0.0       0.0       0.2       0.0       0.0       0.0
 7 C  s               0.2       0.0       0.7       0.0       0.0       0.0
 7 C  pz              0.8       0.0       6.1       0.0       0.5      10.6
 7 C  px              3.9       2.9       4.9       0.4      10.9       0.1
 7 C  py              2.3       0.0       6.1       1.8       6.0       5.2
 7 C  dz2             0.0       0.0       0.1       0.0       0.0       0.4
 7 C  dxz             0.0       0.0       0.0       0.1       0.1       0.0
 7 C  dx2y2           0.0       0.0       0.1       0.0       0.2       0.0
 7 C  dxy             0.1       0.0       0.0       0.0       0.0       0.1
 8 C  s               0.0       0.0       0.6       0.1       0.1       0.0
 8 C  pz             14.5       0.2       0.2      10.2       0.8       2.6
 8 C  px              0.2       1.7       4.6       3.6       9.6       0.5
 8 C  py              1.5       4.1       9.3       0.5       1.8       0.2
 8 C  dz2             0.0       0.0       0.1       0.1       0.0       0.1
 8 C  dxz             0.0       0.0       0.1       0.0       0.1       0.0
 8 C  dyz             0.1       0.0       0.0       0.4       0.0       0.0
 8 C  dx2y2           0.0       0.1       0.1       0.0       0.0       0.0
 8 C  dxy             0.3       0.0       0.0       0.0       0.0       0.1
 9 H  s               0.2       8.6       0.3       0.1       0.9       0.4
10 H  s               1.5       0.9       0.7       3.1       3.4       0.2
11 H  s               1.5       2.2       0.0       2.4       0.1       0.6
12 H  s               0.2       0.1       0.5       5.0       0.7       2.4
13 H  s               1.1       0.8       1.9       0.2       1.5       4.0
14 H  s               0.3       0.4       3.3       0.0       2.9       6.0
15 H  s               2.5       0.5       1.3       4.3       0.4       1.8
16 H  s               5.1       0.5       5.0       1.1       0.7       0.1
17 H  s               0.2       3.2       0.0       0.1       3.0       0.0
18 H  s               1.2       1.5       1.4       4.5       0.2       2.9
19 H  s               3.3       0.5       2.2       1.1       0.0       6.5
20 H  s               0.8       0.0       2.6       0.0       0.3       8.3
21 H  s               3.7       0.1       1.0       8.8       1.1       2.2
22 H  s               6.3       0.2       3.9       3.3       1.7       0.0

                     30        31        32        33        34        35   
                  -0.30468  -0.27014  -0.26480  -0.26371  -0.19428  -0.04894
                   2.00000   2.00000   2.00000   2.00000   2.00000   0.00000
                  --------  --------  --------  --------  --------  --------
 0 C  s               0.0       0.0       0.0       0.0       1.4       0.0
 0 C  pz              0.4       0.0       0.0       0.1       4.4       0.0
 0 C  px              0.9       0.6       0.0       0.1       1.9       0.0
 0 C  py              5.2       0.1       0.0       0.3       1.8       0.1
 0 C  dz2             0.0       0.1       0.0       0.0       0.0       0.2
 0 C  dyz             0.0       0.0       0.0       0.0       0.0       0.1
 0 C  dx2y2           0.2       0.0       0.0       0.0       0.0       0.8
 0 C  dxy             0.1       0.0       0.0       0.0       0.0       0.4
 1 C  s               0.0       0.6       0.0       0.1       0.0       0.0
 1 C  pz              1.6       0.1       0.0       0.2       0.2       5.3
 1 C  px              0.5       3.3       0.1       0.2       2.3       2.0
 1 C  py             11.1       0.1       0.0       0.1       0.3      40.6
 1 C  dz2             0.3       0.0       0.0       0.0       1.2       0.3
 1 C  dxz             0.0       0.0       0.0       0.1       2.0       0.0
 1 C  dyz             0.7       0.0       0.0       0.0       0.6       0.9
 1 C  dx2y2           0.0       0.0       0.0       0.0       0.8       0.0
 1 C  dxy             0.2       0.0       0.1       0.1       0.0       0.3
 2 O  s               0.0       0.1       0.0       0.1       0.0       0.0
 2 O  pz              4.2       1.7       0.0       1.8       6.8       3.3
 2 O  px              2.4       2.1       0.4       0.0      53.6       1.2
 2 O  py             39.1       0.1       1.6       1.6       6.7      26.0
 2 O  dz2             0.0       0.0       0.0       0.0       0.0       0.1
 2 O  dyz             0.1       0.0       0.0       0.0       0.0       0.3
 3 C  s               0.0       0.2       0.1       0.1       1.0       0.0
 3 C  pz              1.2       0.5       3.2       4.7       0.6       0.0
 3 C  px              0.3       2.4       0.2       0.0       8.8       0.2
 3 C  py              1.6       0.1       3.4       7.6       0.0       0.4
 3 C  dz2             0.1       0.1       0.3       0.0       0.0       0.2
 3 C  dyz             0.1       0.1       0.2       0.1       0.0       0.1
 3 C  dx2y2           0.0       0.3       0.0       0.1       0.0       0.0
 3 C  dxy             0.1       0.0       0.0       0.1       0.0       1.3
 4 C  s               0.0       0.0       0.0       0.2       0.1       0.1
 4 C  pz              0.2       0.3       5.6       5.2       0.8       0.1
 4 C  px              1.0      14.9       0.1       0.4       0.1       0.0
 4 C  py              0.2       0.8       3.2       6.1       0.0       0.0
 4 C  dz2             0.0       0.2       0.1       0.0       0.0       0.0
 4 C  dxz             0.0       0.1       0.1       0.4       0.0       0.0
 4 C  dx2y2           0.0       0.0       0.3       0.1       0.0       0.0
 5 C  s               0.0       0.0       0.1       0.0       0.0       0.0
 5 C  pz              0.3       0.0       6.9       5.7       0.0       0.0
 5 C  px              0.2      12.4       0.0       1.1       0.2       0.0
 5 C  py              2.8       0.6       3.7       5.6       0.0       0.0
 5 C  dz2             0.0       0.1       0.0       0.1       0.0       0.0
 5 C  dxz             0.0       0.0       0.1       0.3       0.0       0.0
 5 C  dyz             0.1       0.1       0.5       0.1       0.0       0.0
 5 C  dx2y2           0.0       0.1       0.1       0.0       0.0       0.0
 5 C  dxy             0.0       0.2       0.0       0.1       0.0       0.0
 6 C  s               0.0       0.1       0.2       0.0       0.1       0.0
 6 C  pz              0.2       0.0       6.5       6.7       0.0       0.0
 6 C  px              0.4      12.2       0.0       0.4       0.0       0.0
 6 C  py              2.4       0.0       2.7       6.8       0.0       0.1
 6 C  dz2             0.0       0.1       0.0       0.2       0.0       0.0
 6 C  dyz             0.1       0.0       0.5       0.0       0.0       0.0
 6 C  dx2y2           0.0       0.6       0.1       0.0       0.0       0.0
 7 C  s               0.0       0.0       0.0       0.2       0.1       0.1
 7 C  pz              0.2       1.1       2.8       3.9       0.0       0.1
 7 C  px              0.9       7.9       0.0       0.1       0.8       0.6
 7 C  py              0.9       0.3       3.0       5.1       0.0       0.0
 7 C  dz2             0.0       0.1       0.3       0.2       0.0       0.0
 7 C  dx2y2           0.0       0.2       0.0       0.0       0.0       0.0
 7 C  dxy             0.0       0.1       0.1       0.4       0.0       0.0
 8 C  s               0.1       0.1       0.1       0.0       0.0       1.3
 8 C  pz              0.0       0.1       3.0       3.1       0.0       0.0
 8 C  px              1.4       6.9       0.1       1.2       0.5       0.8
 8 C  py              1.5       0.2       3.8       4.9       0.1       1.9
 8 C  dz2             0.0       0.0       0.2       0.0       0.0       0.0
 8 C  dyz             0.0       0.1       0.2       0.1       0.0       0.0
 8 C  dxy             0.0       0.0       0.1       0.3       0.0       0.0
 9 H  s               0.3       0.4       0.0       0.0       0.6       0.5
10 H  s               2.2       0.3       0.0       0.0       0.2       2.3
11 H  s               4.0       0.1       0.0       0.1       0.2       4.6
12 H  s               2.6       0.0       6.0       0.6       0.3       2.0
13 H  s               0.6       4.0       4.4       2.8       0.5       0.0
14 H  s               0.1       0.7       5.3       3.0       0.0       0.0
15 H  s               2.2       0.1       9.1       0.4       0.0       0.0
16 H  s               0.8       4.5       0.4       5.1       0.1       0.0
17 H  s               0.5      10.3       0.3       0.6       0.0       0.0
18 H  s               2.5       0.6       7.7       0.3       0.0       0.1
19 H  s               0.1       2.5       3.5       1.5       0.3       0.1
20 H  s               0.1       0.8       3.2       3.7       0.0       0.0
21 H  s               0.2       0.2       5.2       0.8       0.1       0.1
22 H  s               0.0       2.6       0.1       4.1       0.1       0.2

                     36        37        38        39        40        41   
                   0.02158   0.04343   0.05701   0.07010   0.08409   0.09030
                   0.00000   0.00000   0.00000   0.00000   0.00000   0.00000
                  --------  --------  --------  --------  --------  --------
 0 C  s               4.7       0.3      11.3       0.5       0.6       2.6
 0 C  pz              1.0       1.1       0.7       0.4       3.1       0.1
 0 C  px              0.1       0.0       0.9       0.2       3.2       1.2
 0 C  py              0.4       0.1       1.7       0.4       0.5       0.4
 0 C  dz2             0.0       0.0       0.0       0.0       0.2       0.0
 0 C  dxz             0.0       0.1       0.0       0.0       0.2       0.0
 0 C  dxy             0.0       0.0       0.0       0.0       0.1       0.0
 1 C  s               0.0       0.4       0.2       0.6       0.2       0.6
 1 C  pz              0.6       0.1       0.5       0.1       0.9       0.1
 1 C  px              0.2       0.2       0.0       0.0       0.5       0.1
 1 C  py              0.4       0.1       0.0       0.0       0.2       0.0
 1 C  dz2             0.1       0.0       0.0       0.0       0.3       0.0
 1 C  dxz             0.1       0.1       0.0       0.0       0.4       0.0
 1 C  dyz             0.1       0.0       0.0       0.1       0.0       0.0
 1 C  dx2y2           0.0       0.0       0.1       0.1       0.1       0.2
 2 O  s               0.2       0.0       0.2       0.2       0.2       0.0
 2 O  pz              0.1       0.1       0.0       0.1       0.2       0.0
 2 O  px              0.0       0.2       0.2       0.1       0.1       0.0
 2 O  py              0.0       0.0       0.1       0.0       0.0       0.0
 3 C  s               2.6       0.6       0.0       0.3       1.8       1.9
 3 C  pz              2.7       1.9       0.2       0.0       3.9       0.1
 3 C  px              0.0       0.5       0.3       0.1       1.3       0.2
 3 C  py              0.6       0.4       0.1       0.0       0.5       0.1
 3 C  dz2             0.0       0.1       0.0       0.0       0.2       0.1
 3 C  dyz             0.1       0.2       0.0       0.1       0.0       0.0
 3 C  dx2y2           0.1       0.2       0.0       0.0       0.3       0.0
 4 C  s               1.2       0.0       0.7       5.2       0.0       0.7
 4 C  pz              0.0       1.0       0.2       0.4       0.1       0.5
 4 C  px              0.1       0.1       0.1       0.6       0.1       0.1
 4 C  py              1.1       0.6       1.3       3.2       0.1       0.1
 4 C  dz2             0.1       0.2       0.0       0.0       0.2       0.0
 4 C  dxz             0.1       0.2       0.0       0.0       0.0       0.0
 4 C  dyz             0.0       0.0       0.0       0.1       0.1       0.0
 4 C  dx2y2           0.1       0.0       0.0       0.1       0.1       0.1
 4 C  dxy             0.0       0.0       0.0       0.0       0.2       0.1
 5 C  s               2.1       3.7       1.2       3.2       0.7       1.3
 5 C  pz              0.4       1.6       0.5       0.7       0.0       0.3
 5 C  px              0.2       0.1       0.4       0.6       0.1       0.6
 5 C  py              0.0       1.5       1.0       0.5       4.3       0.3
 5 C  dxz             0.0       0.1       0.0       0.0       0.0       0.2
[...]
 6 C  py              0.3       0.5       0.4       0.6       0.0       0.6
 6 C  dz2             0.6       0.7      11.3       1.0       0.1       1.3
 6 C  dxz             0.0       6.5       1.6       1.6       0.6       2.1
 6 C  dyz             8.9       0.8       3.0       0.7       0.0       0.1
 6 C  dx2y2           3.4       2.3       0.0       1.6       0.0       0.8
 6 C  dxy             0.0       1.5       2.4       2.3       0.2       2.1
 7 C  s               0.5       0.8       0.0       0.0       0.1       0.1
 7 C  pz              0.1       0.2       0.0       0.0       0.0       0.0
 7 C  px              0.1       0.1       0.2       0.6       0.3       1.7
 7 C  py              0.2       0.4       0.3       0.4       0.0       0.4
 7 C  dz2             4.0       2.7       0.4       0.1       0.9       0.0
 7 C  dxz             0.0       0.4       1.5       1.5       0.8       2.9
 7 C  dyz             0.0       0.3       3.3       0.7       0.2       0.6
 7 C  dx2y2           0.2       0.3       2.2       3.8       2.0       8.4
 7 C  dxy            12.8       3.8       1.9       3.3       0.3       1.4
 8 C  s               0.3       0.2       0.6       0.4       0.2       0.0
 8 C  pz              0.1       0.2       0.0       0.0       0.0       0.3
 8 C  px              0.0       0.5       0.0       0.6       0.4       2.4
 8 C  py              0.1       0.6       0.2       0.2       0.0       0.6
 8 C  dz2             0.9       0.0       1.7       0.3       0.4       0.2
 8 C  dxz             3.6       0.6       0.8       0.5       1.8       1.3
 8 C  dyz             3.3       0.2       0.1       0.2       0.0       0.5
 8 C  dx2y2           0.8       7.3       1.4       0.2       3.0       9.4
 8 C  dxy             3.1       0.2       7.1       1.6       0.0       7.3
12 H  s               0.1       0.3       0.0       0.0       0.0       0.0
13 H  s               0.5       0.3       0.0       0.0       0.0       0.1
14 H  s               0.2       0.3       0.1       0.0       0.0       0.0
15 H  s               0.1       0.1       0.1       0.0       0.0       0.0
16 H  s               0.0       0.1       0.3       0.0       0.0       0.0
17 H  s               0.1       0.0       0.1       0.0       0.1       0.0
18 H  s               0.2       0.0       0.1       0.0       0.0       0.0
19 H  s               0.3       0.2       0.0       0.0       0.0       0.0
20 H  s               0.3       0.2       0.0       0.0       0.1       0.0
21 H  s               0.4       0.0       0.0       0.0       0.0       0.0
22 H  s               0.1       0.0       0.3       0.0       0.1       0.0

                    150       151       152       153   
                   2.75187   3.05596   3.27194   3.51037
                   0.00000   0.00000   0.00000   0.00000
                  --------  --------  --------  --------
 0 C  s               0.1       0.0       0.2       0.0
 0 C  pz              0.2       0.0       0.2       0.0
 0 C  px              0.0       0.0       0.3       0.0
 0 C  dz2             4.4       0.0       0.3       0.1
 0 C  dxz             0.0       0.1       1.9       0.0
 0 C  dyz             0.5       0.0       0.1       0.0
 0 C  dx2y2           0.4       0.2       0.2       0.1
 0 C  dxy             0.0       0.3       0.6       0.0
 1 C  s               0.9       0.0       0.0       6.8
 1 C  pz              0.0       0.1       0.0       5.6
 1 C  px              0.1       0.0       0.4       1.2
 1 C  py              0.0       0.9       0.0       0.3
 1 C  dz2             6.2       4.1       7.0       2.4
 1 C  dxz             5.8       0.1      12.2       2.6
 1 C  dyz             0.0      10.4       3.2       0.5
 1 C  dx2y2           2.8       0.3       5.2       0.0
 1 C  dxy             5.9       3.8       0.2       0.2
 2 O  s               1.3       0.0       0.0       6.5
 2 O  pz              1.0       0.1       0.2       3.3
 2 O  px              0.2       0.1       1.3       0.6
 2 O  py              0.1       1.2       0.1       0.2
 2 O  dz2             1.2      18.5      14.9      32.2
 2 O  dxz             0.1       0.2      28.0      26.0
 2 O  dyz             2.0      43.9       6.8       8.0
 2 O  dx2y2           5.5       1.0      10.9       0.5
 2 O  dxy             4.8      12.9       0.3       1.8
 3 C  s               0.1       0.0       0.3       0.0
 3 C  pz              0.1       0.0       0.0       0.1
 3 C  px              0.7       0.0       0.5       0.0
 3 C  py              0.6       0.0       0.0       0.0
 3 C  dz2             0.9       0.0       1.3       0.0
 3 C  dxz            13.7       0.0       0.2       0.3
 3 C  dyz             1.3       0.1       0.1       0.0
 3 C  dx2y2           1.0       0.2       1.5       0.0
 3 C  dxy             8.1       0.7       0.5       0.1
 4 C  s               0.1       0.0       0.0       0.0
 4 C  pz              0.8       0.0       0.0       0.0
 4 C  px              1.1       0.0       0.0       0.0
 4 C  py              0.2       0.0       0.0       0.0
 4 C  dz2             2.9       0.1       0.1       0.0
 4 C  dxz             1.2       0.0       0.1       0.0
 4 C  dyz             4.1       0.0       0.0       0.0
 4 C  dx2y2           4.0       0.0       0.0       0.0
 4 C  dxy             2.2       0.0       0.1       0.0
 5 C  px              0.9       0.0       0.0       0.0
 5 C  dz2             2.0       0.0       0.0       0.0
 5 C  dxz             1.0       0.0       0.0       0.0
 5 C  dyz             0.4       0.0       0.0       0.0
 5 C  dx2y2           1.5       0.0       0.0       0.0
 5 C  dxy             0.3       0.0       0.0       0.0
 6 C  pz              0.2       0.0       0.0       0.0
 6 C  dz2             0.4       0.0       0.0       0.0
 6 C  dxz             0.6       0.0       0.0       0.0
 6 C  dyz             0.3       0.0       0.0       0.0
 7 C  dxz             0.2       0.0       0.0       0.0
 7 C  dx2y2           0.3       0.0       0.0       0.0
 7 C  dxy             0.5       0.0       0.0       0.0
 8 C  py              0.5       0.0       0.0       0.0
 8 C  dz2             0.2       0.0       0.0       0.0
 8 C  dyz             0.2       0.0       0.0       0.0
 8 C  dx2y2           2.6       0.2       0.0       0.0
10 H  s               0.2       0.0       0.0       0.0


                      *****************************
                      * MAYER POPULATION ANALYSIS *
                      *****************************

  NA   - Mulliken gross atomic population
  ZA   - Total nuclear charge
  QA   - Mulliken gross atomic charge
  VA   - Mayer's total valence
  BVA  - Mayer's bonded valence
  FA   - Mayer's free valence

  ATOM       NA         ZA         QA         VA         BVA        FA
  0 C      6.2446     6.0000    -0.2446     3.8420     3.8420    -0.0000
  1 C      5.9709     6.0000     0.0291     4.2771     4.2771     0.0000
  2 O      8.1675     8.0000    -0.1675     2.3252     2.3252     0.0000
  3 C      6.2153     6.0000    -0.2153     4.0390     4.0390     0.0000
  4 C      6.1075     6.0000    -0.1075     4.1006     4.1006     0.0000
  5 C      6.1506     6.0000    -0.1506     4.2218     4.2218     0.0000
  6 C      6.1588     6.0000    -0.1588     4.1890     4.1890    -0.0000
  7 C      6.1351     6.0000    -0.1351     4.1501     4.1501     0.0000
  8 C      6.1422     6.0000    -0.1422     4.1633     4.1633     0.0000
  9 H      0.8912     1.0000     0.1088     0.9647     0.9647     0.0000
 10 H      0.8743     1.0000     0.1257     0.9753     0.9753    -0.0000
 11 H      0.8634     1.0000     0.1366     0.9611     0.9611    -0.0000
 12 H      0.9219     1.0000     0.0781     0.9495     0.9495    -0.0000
 13 H      0.9017     1.0000     0.0983     0.9852     0.9852     0.0000
 14 H      0.9206     1.0000     0.0794     0.9481     0.9481    -0.0000
 15 H      0.9231     1.0000     0.0769     0.9452     0.9452    -0.0000
 16 H      0.9147     1.0000     0.0853     0.9450     0.9450     0.0000
 17 H      0.9134     1.0000     0.0866     0.9439     0.9439    -0.0000
 18 H      0.9235     1.0000     0.0765     0.9474     0.9474    -0.0000
 19 H      0.9150     1.0000     0.0850     0.9452     0.9452    -0.0000
 20 H      0.9190     1.0000     0.0810     0.9464     0.9464     0.0000
 21 H      0.9143     1.0000     0.0857     0.9492     0.9492    -0.0000
 22 H      0.9114     1.0000     0.0886     0.9561     0.9561     0.0000

  Mayer bond orders larger than 0.100000
B(  0-C ,  1-C ) :   1.0737 B(  0-C ,  9-H ) :   0.9353 B(  0-C , 10-H ) :   0.9266 
B(  0-C , 11-H ) :   0.9181 B(  1-C ,  2-O ) :   2.1810 B(  1-C ,  3-C ) :   0.9326 
B(  3-C ,  4-C ) :   1.1033 B(  3-C ,  8-C ) :   1.1275 B(  3-C , 12-H ) :   0.8611 
B(  4-C ,  5-C ) :   1.1527 B(  4-C , 13-H ) :   0.8934 B(  4-C , 14-H ) :   0.9162 
B(  5-C ,  6-C ) :   1.1808 B(  5-C , 15-H ) :   0.9067 B(  5-C , 16-H ) :   0.9195 
B(  6-C ,  7-C ) :   1.1380 B(  6-C , 17-H ) :   0.9222 B(  6-C , 18-H ) :   0.9123 
B(  7-C ,  8-C ) :   1.1517 B(  7-C , 19-H ) :   0.9180 B(  7-C , 20-H ) :   0.9203 
B(  8-C , 21-H ) :   0.8956 B(  8-C , 22-H ) :   0.9168 

-------
TIMINGS
-------

Total SCF time: 0 days 0 hours 0 min 7 sec 

Total time                  ....       7.040 sec
Sum of individual times     ....       6.650 sec  ( 94.5%)

SCF preparation             ....       0.167 sec  (  2.4%)
Fock matrix formation       ....       5.750 sec  ( 81.7%)
  Startup                   ....       0.054 sec  (  0.9% of F)
  Split-RI-J                ....       2.218 sec  ( 38.6% of F)
  XC integration            ....       3.021 sec  ( 52.5% of F)
    Basis function eval.    ....       0.985 sec  ( 32.6% of XC)
    Density eval.           ....       0.479 sec  ( 15.8% of XC)
    XC-Functional eval.     ....       0.214 sec  (  7.1% of XC)
    XC-Potential eval.      ....       0.724 sec  ( 24.0% of XC)
Diagonalization             ....       0.000 sec  (  0.0%)
Density matrix formation    ....       0.174 sec  (  2.5%)
Total Energy calculation    ....       0.036 sec  (  0.5%)
Population analysis         ....       0.079 sec  (  1.1%)
Orbital Transformation      ....       0.048 sec  (  0.7%)
Orbital Orthonormalization  ....       0.000 sec  (  0.0%)
DIIS solution               ....       0.314 sec  (  4.5%)
  MO trafo                  ....       0.000 sec  (  0.0 % of DIIS)
  Orb grad                  ....       0.000 sec  (  0.0 % of DIIS)
  Energy W gradient         ....       0.000 sec  (  0.0 % of DIIS)
  DIIS error                ....       0.003 sec  (  0.9 % of DIIS)
  DIIS work                 ....       0.264 sec  ( 84.1 % of DIIS)
  Form Q                    ....       0.000 sec  (  0.0 % of DIIS)
  Form QpQm                 ....       0.000 sec  (  0.0 % of DIIS)
  Exp/Cayley                ....       0.000 sec  (  0.0 % of DIIS)
  Orb update                ....       0.000 sec  (  0.0 % of DIIS)
  Wake-sleep                ....       0.022 sec  (  7.1 % of DIIS)
SOSCF solution              ....       0.081 sec  (  1.2%)
  MO trafo                  ....       0.047 sec  ( 57.5 % of SOSCF)
  Orb grad                  ....       0.002 sec  (  2.1 % of SOSCF)
  Rot update                ....       0.015 sec  ( 17.9 % of SOSCF)
  Step                      ....       0.018 sec  ( 22.4 % of SOSCF)
Finished LeanSCF after   7.1 sec

Maximum memory used throughout the entire LEANSCF-calculation: 15.1 MB


-------------------------------------------------------------------------------
                          DFT DISPERSION CORRECTION                            
                                                                               
                                DFTD4 V3.4.0                                   
-------------------------------------------------------------------------------
The PBE functional is recognized
Active option DFTDOPT                   ...         5   

-------------------------   ----------------
Dispersion correction           -0.021883710
-------------------------   ----------------

------------------   -----------------
gCP correction             0.099798076
------------------   -----------------

-------------------------   --------------------
FINAL SINGLE POINT ENERGY      -387.600475501300
-------------------------   --------------------


------------------------------------------------------------------------------
                              ORCA PROPERTY CALCULATIONS
------------------------------------------------------------------------------

GBWName                                 ... sp.gbw
Number of atoms                         ...     23
Number of basis functions               ...    154
Max core memory                         ...   1024 MB

Electric properties:
Dipole moment                           ... YES
Quadrupole moment                       ...  NO
Static polarizability (Dipole/Dipole)   ...  NO
Static polarizability (Dipole/Quad.)    ...  NO
Static polarizability (Quad./Quad.)     ...  NO
Static polarizability (Velocity)        ...  NO

Atomic electric properties:
Dipole moment                           ...  NO
Quadrupole moment                       ...  NO
Static polarizability                   ...  NO

Choice of electric origin               ... Center of mass
Position of electric origin             ...     0.000023    -0.000004     0.000013

General magnetic properties:
Magnetizability                         ...  NO

EPR properties:
g-Tensor (aka g-matrix)                 ...  NO
Zero-Field splitting spin-orbit         ...  NO
Zero-field splitting spin-spin          ...  NO
Hyperfine couplings                     ...  NO (   0 nuclei)
Quadrupole couplings                    ...  NO (   0 nuclei)
Contact density                         ...  NO (   0 nuclei)

NMR properties:
Chemical shifts                         ...  NO (   0 nuclei)
Spin-rotation constants                 ...  NO (   0 nuclei)
Spin-spin couplings                     ...  NO (   0 nuclei,    0 pairs)

Choice of magnetic origin               ... GIAO
Position of magnetic origin             ...     0.000000     0.000000     0.000000

Properties with geometric perturbations:
SCF Hessian                             ...  NO
IR spectrum                             ...  NO
VCD spectrum                            ...  NO
X-ray spectroscopy properties:
SCF XES/XAS/RIXS spectra                ...  NO


-------------
DIPOLE MOMENT
-------------

Method             : SCF
Type of density    : Electron Density
Multiplicity       :   1
Irrep              :   0
Energy             :  -387.6783898672296687 Eh
Relativity type    : 
Basis              : AO
                                X                 Y                 Z
Electronic contribution:     -5.605388170       1.336634756      -3.077950321
Nuclear contribution   :      6.051063036      -1.642230274       3.913655608
                        -----------------------------------------
Total Dipole Moment    :      0.445674865      -0.305595518       0.835705287
                        -----------------------------------------
Magnitude (a.u.)       :      0.995197484
Magnitude (Debye)      :      2.529590975



--------------------
Rotational spectrum 
--------------------
 
Rotational constants in cm-1:             0.101608             0.037307             0.030114 
Rotational constants in MHz :          3046.139604          1118.430654           902.809809 

Dipole components along the rotational axes: 
x,y,z [a.u.] :     0.437537    -0.837803     0.311553 
x,y,z [Debye]:     1.112129    -2.129527     0.791906 

 

Dipole moment calculation done in   0.0 sec 

Maximum memory used throughout the entire PROP-calculation: 9.5 MB

--------------------------------
SUGGESTED CITATIONS FOR THIS RUN
--------------------------------

Below you find a list of papers that are relevant to this ORCA run
We neither can nor want to force you to cite these papers, but we appreciate if you do
You receive ORCA, which is the product of decades of hard work by many enthusiastic individuals, for free
The only thing we kindly ask in return is that you cite our papers,
We deeply appreciate it, if you show your appreciation for ORCA by not just citing the generic ORCA reference.

Please note that relegating all ORCA citations to the supporting information does *not* help us.
SI sections are not indexed - citations you put there will not count into any citation statistics
But we need these citations in order to attract the funding resources that allow us to do what we are doing

Therefore, if you are a happy ORCA user, please consider citing a few of the papers listed below in the main body of your paper

In addition to the list printed below, the program has created the file sp.bibtex that contains the list in bibtex format
You can import this file easily into all common literature databanks and citation aid programs


List of essential papers. We consider these as the minimum necessary citations

  1. Neese,F.
     Software update: the ORCA program system, version 5.0
     WIRES Comput. Molec. Sci., 2022 12(1)e1606
     doi.org/10.1002/wcms.1606

List of papers to cite with high priority. The work reported in these papers was absolutely
necessary for this run to complete.
Our perspective: the developers of density functionals and basis sets usually get cited in chemistry papers
Good! But without the algorithms to do something with them, the functionals or basis sets would not do anything.
Hence, in our opinion, the algorithm design and method developments papers are equally worthy of getting cited

  1. Neese,F.
     An improvement of the resolution of the identity approximation for the formation of the Coulomb matrix
     J. Comp. Chem., 2003 24(14)1740-1747
     doi.org/10.1002/jcc.10318
  2. Neese,F.
     The SHARK Integral Generation and Digestion System
     J. Comp. Chem., 2022  1-16
     doi.org/10.1002/jcc.26942
  3. Caldeweyher,E.; Bannwarth,C.; Grimme,S.
     Extension of the D3 dispersion coefficient model
     J. Chem. Phys., 2017 147 034112-XXXX
     doi.org/10.1063/1.4993215
  4. Caldeweyher,E.; Ehlert,S.; Hansen,A.; Neugebauer,H.; Spicher,S.; Bannwarth,C.; Grimme,S.
     A generally applicable atomic-charge dependent London dispersion correction
     J. Chem. Phys., 2019 150 154122-XXXX
     doi.org/10.1063/1.5090222
  5. Caldeweyher,E.; Mewes,J.; Ehlert,S.; Grimme,S.
     Extension and evaluation of the D4 London-dispersion model for periodic systems
     Phys. Chem. Chem. Phys., 2020 22(16)8499-8512
     doi.org/10.1039/D0CP00502A

List of suggested additional citations. These are papers that are important in the 'surrounding' of 
of this run, or papers that preceded the highly important papers. If you like your results we are grateful for a citation.

  1. Neese,F.
     The ORCA program system
     WIRES Comput. Molec. Sci., 2012 2(1)73-78
     doi.org/10.1002/wcms.81
  2. Neese,F.
     Software update: the ORCA program system, version 4.0
     WIRES Comput. Molec. Sci., 2018 8(1)1-6
     doi.org/10.1002/wcms.1327
  3. Neese,F.; Wennmohs,F.; Becker,U.; Riplinger,C.
     The ORCA quantum chemistry program package
     J. Chem. Phys., 2020 152 Art. No. L224108
     doi.org/10.1063/5.0004608

List of optional additional citations

  1. Neese,F.
     Approximate second-order SCF convergence for spin unrestricted wavefunctions
     Chem. Phys. Lett., 2000 325(1-3)93-98
     doi.org/10.1016/s0009-2614(00)00662-x

Timings for individual modules:

Sum of individual times          ...        8.790 sec (=   0.147 min)
Startup calculation              ...        0.754 sec (=   0.013 min)   8.6 %
SCF iterations                   ...        7.946 sec (=   0.132 min)  90.4 %
Property calculations            ...        0.091 sec (=   0.002 min)   1.0 %
                             ****ORCA TERMINATED NORMALLY****
TOTAL RUN TIME: 0 days 0 hours 0 minutes 9 seconds 468 msec
