27
 energy: -33.609923317166 gnorm: 0.039077106632 xtb: 6.7.1 (edcfbbe)
C           -3.43917605033443        0.57609908648462       -0.01749345081781
C           -1.94270000868094        0.49198263565302        0.04045463557003
C           -1.14277565818183        1.48571679184903       -0.36744230135314
C            0.35580354241622        1.43907438134594       -0.34356701350731
C            0.88888459947452        0.00718255696228       -0.20461501277245
H            0.66778821895659       -0.51940834715582       -1.14384368626992
C            0.11419743818487       -0.68938857531065        0.91987817828891
C           -1.37086078261409       -0.79401359413015        0.58610475537811
H           -1.92309210859250       -1.07245237895933        1.49208870609605
O           -1.63781420760055       -1.89063303828708       -0.33427053234783
C            2.39179910900350       -0.03158607524404       -0.00375331520384
C            2.97441388676832        0.45429464341567        1.09629324917500
C            3.17951584177629       -0.64667760880298       -1.12093551295804
H           -3.85689270596785       -0.24871959052165       -0.60718829304652
H           -3.76947552427048        1.51881038973647       -0.46219743989722
H           -3.87223566233517        0.49485558469528        0.98786183162856
H           -1.59648227583873        2.40446859103554       -0.73864553188477
H            0.75514251558332        1.90619168009050       -1.25238070647612
H            0.72680943875780        2.04621297009275        0.49561283686166
H            0.51078909020580       -1.69312157278609        1.10730875850469
H            0.22543599307684       -0.11069459092350        1.84565979965353
H           -1.31699477126790       -1.61348714442786       -1.20279102626297
H            4.05346602415537        0.42266197254245        1.22199703217645
H            2.39589805271186        0.89873875091657        1.90233865648022
H            2.98665083614260       -0.11603095093164       -2.06195170059788
H            4.25431578624489       -0.63116626685278       -0.92184070483430
H            2.86583884251793       -1.68588780029965       -1.28214990441730
27
 energy: -33.611465885063 gnorm: 0.015784469630 xtb: 6.7.1 (edcfbbe)
C           -3.42809726771775        0.57955773404733       -0.01476259852015
C           -1.93424788634129        0.49882306519705        0.04428745678828
C           -1.13863563415786        1.48154104518137       -0.36621064888201
C            0.35654255150984        1.43950676732455       -0.34294368090869
C            0.88196424640831        0.00546684529594       -0.21360930878203
H            0.66112734575105       -0.52280171973173       -1.14894272109343
C            0.11445934286265       -0.68669758694790        0.91651036552047
C           -1.37349179865957       -0.79455083288826        0.58379072345482
H           -1.92654123254079       -1.08276275784399        1.48592806867121
O           -1.63634027042515       -1.88151515365449       -0.32584739588213
C            2.38117339176550       -0.02956319753803       -0.00422475267491
C            2.96083105464608        0.45332053160224        1.08603500502195
C            3.16944796370571       -0.64398662294714       -1.11828147722605
H           -3.83095205080507       -0.25087453031811       -0.59775460421861
H           -3.75430317297746        1.51600245933235       -0.46302066065704
H           -3.85220350926410        0.50329420555131        0.98839208120247
H           -1.58272784543441        2.39817005885855       -0.73644786162787
H            0.75012356176987        1.90122844802331       -1.25347601375789
H            0.71950642219655        2.04309006013788        0.49753331051929
H            0.51089726325239       -1.68946879261947        1.09262908405926
H            0.22326735751559       -0.11332296265201        1.84036012464357
H           -1.30240210150330       -1.62108499305623       -1.19469205467715
H            4.03091640388002        0.42069170069980        1.21663836700245
H            2.39370500703761        0.89288623775568        1.89061802640844
H            2.98415563939824       -0.10945200198470       -2.05222915302759
H            4.23685175956951       -0.62324691434961       -0.91039505285537
H            2.86322291885008       -1.68122859228883       -1.26935232133552
27
 energy: -33.611761237683 gnorm: 0.005103330587 xtb: 6.7.1 (edcfbbe)
C           -3.42426566429404        0.58255452108791       -0.00982018965720
C           -1.93035363742267        0.50368290645461        0.04717233429972
C           -1.13705132523389        1.48177685033720       -0.36726034553927
C            0.35758090720375        1.44020344817725       -0.34656432758559
C            0.87781877305124        0.00530705687170       -0.21719158770817
H            0.65637218802969       -0.52159194954343       -1.15092149222005
C            0.11426468876826       -0.68859824333203        0.91379593874323
C           -1.37639398734806       -0.79764094234260        0.57885422831677
H           -1.92880023337088       -1.08725953734228        1.48117802749480
O           -1.64011172679885       -1.87313631571155       -0.32457659540749
C            2.37468275466053       -0.03034118861984       -0.00343443471629
C            2.95205326376020        0.45122259401045        1.08475135657302
C            3.16505977400342       -0.64348679428920       -1.11750073752614
H           -3.81782884313185       -0.25485938533216       -0.58461262811357
H           -3.74913892582293        1.51339567131656       -0.46515168261855
H           -3.84126175206151        0.51383807942007        0.99381533090573
H           -1.57496606731895        2.39932443002196       -0.73600936396846
H            0.74931925864398        1.90016017681024       -1.25687607180445
H            0.71849806551707        2.03826677631178        0.49540469547303
H            0.51071488206944       -1.69147193351831        1.08237095551696
H            0.22324361618036       -0.11770862401431        1.83578448411337
H           -1.28306493180499       -1.63339712646080       -1.19135948147258
H            4.01913654726078        0.42397599646828        1.21664522698215
H            2.39029933464332        0.89395368925418        1.88749680678648
H            2.98150112979893       -0.10700991065756       -2.04730201959201
H            4.22950896637429       -0.61905430071997       -0.90392504267340
H            2.86143240493562       -1.67908344447127       -1.26423107743623
27
 energy: -33.611829548602 gnorm: 0.003183669745 xtb: 6.7.1 (edcfbbe)
C           -3.42507098756561        0.58477528233513       -0.00557250621184
C           -1.93032907908276        0.50582208925273        0.04791209429098
C           -1.13741368467447        1.48328869994063       -0.36848142435031
C            0.35774504649642        1.44013985878996       -0.34822893094696
C            0.87697838044838        0.00487392064549       -0.21968780531575
H            0.65577118707860       -0.52113077556025       -1.15377694999253
C            0.11361509272307       -0.69010968058694        0.91097144624886
C           -1.37835832893548       -0.79970945303083        0.57503573851885
H           -1.92997166404047       -1.08728190116561        1.47890207533765
O           -1.64385994345803       -1.86930705438289       -0.32687111982192
C            2.37325513706532       -0.02886025245916       -0.00471450863992
C            2.94882811457796        0.45444227702607        1.08405630591901
C            3.16565612663021       -0.64376813736541       -1.11737865863395
H           -3.81737704671223       -0.25832619823325       -0.57231853108402
H           -3.75089746541513        1.51163942979968       -0.46802546138194
H           -3.83830291709967        0.52431518541295        0.99994824622594
H           -1.57316975468795        2.40259617644147       -0.73568534891235
H            0.74962662580165        1.89953548094143       -1.25835887104516
H            0.71904771854508        2.03688777617684        0.49402529548954
H            0.51047913560752       -1.69317918248073        1.07673409888209
H            0.22252619969810       -0.12070980368742        1.83326541572526
H           -1.26637785194169       -1.64418545037432       -1.18985126156319
H            4.01554619061634        0.42308227917605        1.22061686524979
H            2.38626362016776        0.89312377982667        1.88906955291258
H            2.98180445183349       -0.10797266277110       -2.04705377574753
H            4.22969670768391       -0.61752081506725       -0.90167136681091
H            2.86253844893191       -1.67943836841302       -1.26232830717646
27
 energy: -33.611881658397 gnorm: 0.004888133695 xtb: 6.7.1 (edcfbbe)
C           -3.42722066178035        0.58837249769705        0.00051824924297
C           -1.93142545968933        0.50829201100382        0.04771589188083
C           -1.13849809322922        1.48596122350284       -0.36957106095532
C            0.35753436417449        1.43996622637810       -0.35029095021874
C            0.87656660192262        0.00428271594560       -0.22285216216286
H            0.65652948859335       -0.51965566191450       -1.15866012556982
C            0.11232703189704       -0.69323128843873        0.90599609266516
C           -1.38071334078401       -0.80194202855906        0.56919722446269
H           -1.93135633750384       -1.08667357514960        1.47506156475304
O           -1.64960944028337       -1.86556036186745       -0.33217639644178
C            2.37219499639813       -0.03083282848144       -0.00461475130743
C            2.94467638291371        0.45223372358473        1.08686288659644
C            3.16811302273518       -0.64435287015619       -1.11651121686870
H           -3.82187680925630       -0.26358347071526       -0.55173613636591
H           -3.75526095057954        1.50882732014779       -0.47399930333537
H           -3.83523038578978        0.54327039598311        1.00957507313370
H           -1.57252252004173        2.40795536405481       -0.73364418915435
H            0.75005375436852        1.89968932093124       -1.26004461691200
H            0.72005142784415        2.03567653934054        0.49232031997475
H            0.50933056859785       -1.69684084390321        1.06943566616767
H            0.22100241160609       -0.12596140371377        1.82959162172487
H           -1.24114707974293       -1.66040114435512       -1.18728927704941
H            4.01238096870976        0.42680354358469        1.22404705689769
H            2.38016810824970        0.89655053062025        1.88878148042875
H            2.98398486961513       -0.10907750612164       -2.04674062667295
H            4.23204889388386       -0.61621722642378       -0.89885760386262
H            2.86614764746309       -1.68052870278792       -1.26158240388549
27
 energy: -33.611913763095 gnorm: 0.004276350689 xtb: 6.7.1 (edcfbbe)
C           -3.42864840324541        0.59083193198656        0.00454625740589
C           -1.93265487990994        0.50895110665082        0.04670860671093
C           -1.13949553117054        1.48733842015672       -0.36948342656644
C            0.35684090888873        1.43999101072918       -0.35184123069385
C            0.87662587767647        0.00438758657554       -0.22515205168411
H            0.65810016911898       -0.51821911924844       -1.16248742588698
C            0.11145346858261       -0.69533837152494        0.90191098936091
C           -1.38159212906763       -0.80288319854125        0.56559940110774
H           -1.93196069761127       -1.08702713631338        1.47197380918451
O           -1.65276642172298       -1.86486316524140       -0.33693181607082
C            2.37239007894128       -0.02920302419258       -0.00584320212029
C            2.94277259662843        0.45531721804771        1.08656007345651
C            3.17045440881365       -0.64461368721959       -1.11515250787086
H           -3.82789291039111       -0.26755181849645       -0.53515006933955
H           -3.75819914070967        1.50605387876285       -0.47989203414501
H           -3.83299817251945        0.55953040009412        1.01628812054722
H           -1.57341721790692        2.41082899484987       -0.73082195176091
H            0.74924826180774        1.90051257289481       -1.26160492959425
H            0.72049412191491        2.03582939677334        0.49068613258665
H            0.50847335402502       -1.69927525970889        1.06485826224431
H            0.22011929407992       -0.12942172260308        1.82672879573924
H           -1.22571956714525       -1.67045131548061       -1.18478520817508
H            4.01030261811882        0.42553845479751        1.22800144005848
H            2.37537276299472        0.89530875718980        1.88943555335035
H            2.98679677073513       -0.11147208532597       -2.04717869386122
H            4.23442000734566       -0.61534804570622       -0.89676266170287
H            2.86972983202037       -1.68172927971913       -1.25967792511467
27
 energy: -33.611946743420 gnorm: 0.002383307325 xtb: 6.7.1 (edcfbbe)
C           -3.42961979969657        0.59411986471454        0.00956767655208
C           -1.93403170422353        0.50919057472226        0.04504106197472
C           -1.14036686258984        1.48848280847681       -0.36831498545089
C            0.35587884209736        1.44011733709243       -0.35322341887046
C            0.87640874536180        0.00452663341235       -0.22850398680687
H            0.66021780004019       -0.51596413171691       -1.16795697808216
C            0.11009214386233       -0.69785386786688        0.89614406984595
C           -1.38241942136566       -0.80356445209765        0.56130113726055
H           -1.93295314363694       -1.08903917613354        1.46708771903777
O           -1.65594907080744       -1.86511076842771       -0.34369709784955
C            2.37219505614796       -0.02930494538331       -0.00622555554299
C            2.93977368777504        0.45527205456951        1.08769512397831
C            3.17303928576256       -0.64486308163493       -1.11282233693858
H           -3.83567227208932       -0.27289781902097       -0.51171388487247
H           -3.76033982634031        1.50152017695663       -0.48927859789746
H           -3.82877956277000        0.58325697849676        1.02444755519441
H           -1.57459976285502        2.41339835394124       -0.72588860217872
H            0.74723044652107        1.90155759578030       -1.26333084342023
H            0.72102456582187        2.03629771279674        0.48890717396585
H            0.50698709925610       -1.70221642478564        1.05802436915973
H            0.21926840048043       -0.13402351735957        1.82265172563595
H           -1.20780698225680       -1.68196249306362       -1.18126766280550
H            4.00706410653066        0.42664099537566        1.23114503680669
H            2.36943944970326        0.89657809819769        1.88774959102227
H            2.99078088250676       -0.11403321773023       -2.04689458960351
H            4.23675110798470       -0.61402283069243       -0.89304395287380
H            2.87463624907161       -1.68307995843261       -1.25706744007520
27
 energy: -33.611959867470 gnorm: 0.001181331235 xtb: 6.7.1 (edcfbbe)
C           -3.42947928594033        0.59622854448315        0.01261823371672
C           -1.93445823654407        0.50927761146520        0.04437968169198
C           -1.14053221632356        1.48884225424319       -0.36698713826364
C            0.35530760225810        1.44040776065411       -0.35408346794889
C            0.87576278914929        0.00476312040919       -0.23073060115782
H            0.66107494045373       -0.51430900686390       -1.17119193545849
C            0.10922623485507       -0.69945617501187        0.89258082074541
C           -1.38291003305190       -0.80362919042250        0.55896382425785
H           -1.93398358472695       -1.09136754084593        1.46348064549555
O           -1.65760928653909       -1.86529159258855       -0.34789734279748
C            2.37142277577733       -0.02911812079722       -0.00644741104448
C            2.93743348519979        0.45562188642860        1.08782811769065
C            3.17381749608205       -0.64498770263049       -1.11123135319515
H           -3.83887485875757       -0.27651739157176       -0.49572070445065
H           -3.76027824716827        1.49764114872342       -0.49647753164760
H           -3.82487040403283        0.59964589305206        1.02876353668670
H           -1.57506026786877        2.41430738453977       -0.72208986249154
H            0.74513111244600        1.90209183673829       -1.26468797778168
H            0.72144408649018        2.03643411304497        0.48761160007175
H            0.50597451779091       -1.70411122738690        1.05278249597431
H            0.21929731048941       -0.13722740887130        1.81992805697463
H           -1.19655401224037       -1.68849798519120       -1.17911274844955
H            4.00407691504885        0.42718721172319        1.23267610272114
H            2.36592233076492        0.89714718690235        1.88631669884064
H            2.99272818354631       -0.11560117147566       -2.04619781561911
H            4.23707320964698       -0.61273796974718       -0.89007045474867
H            2.87716690348705       -1.68372096881607       -1.25447116264669
27
 energy: -33.611963957588 gnorm: 0.001038586989 xtb: 6.7.1 (edcfbbe)
C           -3.42913504445255        0.59725446458344        0.01437516693238
C           -1.93434866714059        0.50930222882978        0.04465948688033
C           -1.14039835937805        1.48893796157939       -0.36590827316793
C            0.35509015013083        1.44069904142025       -0.35438400749957
C            0.87518849053770        0.00492686704890       -0.23205612589050
H            0.66118987508637       -0.51326262303129       -1.17286078987197
C            0.10885257582404       -0.70044278531327        0.89071856212946
C           -1.38313077984658       -0.80360359672942        0.55785604877964
H           -1.93459885432044       -1.09374775512280        1.46118422409373
O           -1.65781749522191       -1.86500964746366       -0.35082452620711
C            2.37056668997827       -0.02914164310867       -0.00638898913975
C            2.93575553753259        0.45574169421008        1.08797734123180
C            3.17378046101631       -0.64525010542823       -1.11035910517677
H           -3.83921503364792       -0.28007876533358       -0.48411650721721
H           -3.75954340343505        1.49348903879781       -0.50325489050244
H           -3.82199101955785        0.61176265543805        1.03072748369018
H           -1.57526424947032        2.41461090647702       -0.71949640441964
H            0.74356155316533        1.90207111766685       -1.26549308778260
H            0.72203913649051        2.03636989735846        0.48685523710198
H            0.50542853606737       -1.70536482520729        1.04871955775627
H            0.21990977217273       -0.13968308436505        1.81859783989466
H           -1.19162734462816       -1.69019612145021       -1.17886927951998
H            4.00198209708824        0.42796543543689        1.23338677099692
H            2.36408671364914        0.89821140152964        1.88541691213247
H            2.99317397100419       -0.11656680231019       -2.04545534147370
H            4.23664492599049       -0.61187787373003       -0.88808212389341
H            2.87806922565759       -1.68409458159592       -1.25239287269138
27
 energy: -33.611966097805 gnorm: 0.000474825929 xtb: 6.7.1 (edcfbbe)
C           -3.42925279517110        0.59724714739901        0.01485231757070
C           -1.93420394987101        0.50945805945088        0.04500237944707
C           -1.14039992241670        1.48913215144607       -0.36579393599708
C            0.35512725411975        1.44080249108530       -0.35429171486476
C            0.87519114625384        0.00495859305671       -0.23211079458223
H            0.66119691483650       -0.51306439167753       -1.17296312191653
C            0.10890010549862       -0.70095432413147        0.89047213174926
C           -1.38321891123824       -0.80376425129219        0.55744116994720
H           -1.93474231033375       -1.09432615965270        1.46059881318476
O           -1.65807695145147       -1.86428479050344       -0.35187150976674
C            2.37044299460156       -0.02901220799638       -0.00631422730547
C            2.93550033911207        0.45606386773331        1.08805238928515
C            3.17379444511905       -0.64539132819047       -1.11026167451862
H           -3.83905997674214       -0.28274676244180       -0.47914629510004
H           -3.75968590935318        1.49093354824053       -0.50714059420663
H           -3.82145861323112        0.61694822754138        1.03135336596595
H           -1.57531365336007        2.41490307410283       -0.71915293271548
H            0.74351294451729        1.90208870837010       -1.26543411738267
H            0.72224247907209        2.03629103482594        0.48692410317169
H            0.50534285919226       -1.70604059730456        1.04753677152401
H            0.22020692197304       -0.14082404897102        1.81861574451261
H           -1.19108026110341       -1.68942084965906       -1.18002622406395
H            4.00177021191306        0.42823071578192        1.23369118394243
H            2.36391139430074        0.89864434970624        1.88560128092422
H            2.99291912301697       -0.11684976569417       -2.04532388813918
H            4.23662833966209       -0.61177172657565       -0.88793327119046
H            2.87805524137552       -1.68422826446284       -1.25184504230934
27
 energy: -33.611969805952 gnorm: 0.001001252775 xtb: 6.7.1 (edcfbbe)
C           -3.42927737343558        0.59561051131886        0.01374643117219
C           -1.93356553919626        0.50909823878822        0.04596196716784
C           -1.14023709636112        1.48905304298560       -0.36555104917132
C            0.35545156584117        1.44094107041441       -0.35320666254329
C            0.87573914722996        0.00506255647318       -0.23085406895053
H            0.66099603785987       -0.51345496813225       -1.17124923105508
C            0.10972700237730       -0.70104541376208        0.89197912913895
C           -1.38257930112025       -0.80398037919920        0.55817702447761
H           -1.93398558399273       -1.09511404725761        1.46124496814679
O           -1.65636001913769       -1.86352220981987       -0.35207415592592
C            2.37088880995862       -0.02863177029897       -0.00596980229204
C            2.93668957890087        0.45688878798215        1.08794827233963
C            3.17345687250582       -0.64574205588326       -1.11059871872804
H           -3.83714407436581       -0.28746374806910       -0.47543212383800
H           -3.75969864138286        1.48562927134173       -0.51384989051835
H           -3.82246011468878        0.62123075755167        1.02928142297555
H           -1.57553039931076        2.41440556732030       -0.71986768651321
H            0.74426151965995        1.90215458106620       -1.26419201292748
H            0.72242116499551        2.03623468667830        0.48816100738472
H            0.50598764422301       -1.70627063182368        1.04817703090322
H            0.22106818661212       -0.14135472888004        1.82029105785868
H           -1.20158614337950       -1.68068582696175       -1.18512483836742
H            4.00328155713981        0.42854702289999        1.23318603104490
H            2.36588547803447        0.89937092339617        1.88647513353807
H            2.99156985027317       -0.11708108408537       -2.04539324363246
H            4.23649866622672       -0.61249131502431       -0.88913089415810
H            2.87675066482526       -1.68436633883234       -1.25160279036104
27
 energy: -33.611972439870 gnorm: 0.000523715554 xtb: 6.7.1 (edcfbbe)
C           -3.42925834318255        0.59539149274389        0.01401440687484
C           -1.93361326600896        0.50884486309773        0.04564008925646
C           -1.14028694969226        1.48904515459730       -0.36519409784549
C            0.35540500026551        1.44099728931286       -0.35263884752183
C            0.87595782790963        0.00515955087645       -0.23094465236579
H            0.66147409414386       -0.51300326407263       -1.17169065979977
C            0.10976320744160       -0.70145763580068        0.89137412794625
C           -1.38249568319405       -0.80432896917247        0.55758060099952
H           -1.93387463548035       -1.09570051629484        1.46059576234631
O           -1.65639694622605       -1.86365857302311       -0.35293021142889
C            2.37117665431333       -0.02857501898828       -0.00585875012607
C            2.93690486978181        0.45697963745817        1.08806395382173
C            3.17380409392508       -0.64580176455898       -1.11019394068736
H           -3.83802457738101       -0.29153866967536       -0.46823341357178
H           -3.76002795900421        1.48180105043989       -0.51997838282117
H           -3.82173401289664        0.62879752182271        1.03010400030255
H           -1.57554789995439        2.41452661147069       -0.71915575298267
H            0.74445248440581        1.90280159129034       -1.26331323938808
H            0.72212994001567        2.03611848683566        0.48908580358705
H            0.50604932571023       -1.70674643512486        1.04741163513440
H            0.22090893126963       -0.14216344714305        1.82005318322815
H           -1.20409874426465       -1.67858476587470       -1.18732003894715
H            4.00347657142463        0.42893798026292        1.23320565031308
H            2.36594601765054        0.89984913204872        1.88618870377101
H            2.99205167997467       -0.11754254891636       -2.04534945669528
H            4.23688432895490       -0.61255905445045       -0.88885328578449
H            2.87722345039047       -1.68456719897461       -1.25113088044965
27
 energy: -33.611974331267 gnorm: 0.000385655392 xtb: 6.7.1 (edcfbbe)
C           -3.42905706079147        0.59523970170132        0.01463592749101
C           -1.93371259859577        0.50841747361080        0.04511807685832
C           -1.14030716471023        1.48894366835422       -0.36464391165257
C            0.35533292677016        1.44119508855979       -0.35205531656623
C            0.87613091530974        0.00545408093624       -0.23131183433353
H            0.66215361934552       -0.51204603405027       -1.17254692356719
C            0.10991046621069       -0.70206952683012        0.89024882614183
C           -1.38225076778881       -0.80488807791332        0.55655542133844
H           -1.93352371279445       -1.09663418988713        1.45950700615369
O           -1.65635492307291       -1.86412010031999       -0.35422696921339
C            2.37143792674073       -0.02835426887114       -0.00584873950907
C            2.93695342320151        0.45743827239777        1.08804037458283
C            3.17425229215628       -0.64603250093814       -1.10946727879817
H           -3.83943087533592       -0.29614618156593       -0.45803846308888
H           -3.76057888185425        1.47649649925047       -0.52742949841581
H           -3.82030441525957        0.63902812953547        1.03094920762926
H           -1.57552506009361        2.41452636817412       -0.71820967468206
H            0.74447133581939        1.90395767178102       -1.26224672492079
H            0.72161547900342        2.03585833698525        0.49024429597709
H            0.50632295622405       -1.70741095290336        1.04600131021253
H            0.22084822739515       -0.14324618995346        1.81932557524714
H           -1.20738367000397       -1.67623288476174       -1.19001494503862
H            4.00336841200422        0.42927605538818        1.23342790268346
H            2.36563631365553        0.90050219381564        1.88563584563735
H            2.99302216545847       -0.11844683188727       -2.04514662728391
H            4.23729198404103       -0.61271356115775       -0.88788689950585
H            2.87793014725735       -1.68496973926371       -1.25008365621101
27
 energy: -33.611974833439 gnorm: 0.000259464858 xtb: 6.7.1 (edcfbbe)
C           -3.42908239968691        0.59529191150471        0.01533159999664
C           -1.93383493349616        0.50823834814985        0.04485324188174
C           -1.14042172850843        1.48889315103965       -0.36458016552492
C            0.35522275519465        1.44132406243656       -0.35184514905211
C            0.87623668972828        0.00563546972298       -0.23190115843203
H            0.66255012783051       -0.51138009412002       -1.17346076769938
C            0.10998500176163       -0.70242465729014        0.88924915840653
C           -1.38221247230112       -0.80525232579534        0.55585958733789
H           -1.93329445498827       -1.09726874490545        1.45886719982701
O           -1.65631599155174       -1.86417941281577       -0.35523898115189
C            2.37151500074707       -0.02826032801620       -0.00591478151848
C            2.93663959384907        0.45765011259427        1.08813936429677
C            3.17469477584004       -0.64632106911501       -1.10898702638806
H           -3.84026251167390       -0.29874987684495       -0.45154320146947
H           -3.76096182225176        1.47347915642483       -0.53153142786059
H           -3.81907786422853        0.64542302692721        1.03186422157247
H           -1.57566354383082        2.41470187944053       -0.71757280615840
H            0.74439876039740        1.90465508321382       -1.26170027507695
H            0.72122919547448        2.03560517372009        0.49084364495985
H            0.50650740630150       -1.70780542634847        1.04447965717280