11
 energy: -231.177341439773 gnorm: 0.028153004966 xtb: 6.7.1 (edcfbbe)
C           -2.38727970875787       -0.18587804338237        0.09158784354059
C           -0.91615927910597       -0.27994967042405        0.16359019487249
C           -0.05560443552464        0.60289609876716       -0.36367017656115
C            1.37668156291004        0.43107658399102       -0.24926691401046
O            1.94282514786092       -0.49132349701772        0.31149550813803
H           -2.80080017064111       -0.16457860197293        1.09884979668693
H           -2.78580946853447       -1.07535187607652       -0.39418309557467
H           -2.70486611939860        0.69937827770991       -0.45134039240000
H           -0.50297661412288       -1.13419535630259        0.68683493940435
H           -0.40052179887748        1.47676782255439       -0.89514200369666
H            1.97786199127644        1.22685410084365       -0.72640183062189
11
 energy: -231.177906303937 gnorm: 0.006315785133 xtb: 6.7.1 (edcfbbe)
C           -2.38999241197584       -0.18401923508629        0.09092747808513
C           -0.91676544805607       -0.28201518959136        0.16451865347393
C           -0.05275899908548        0.60188712832654       -0.36340764612377
C            1.38803223635033        0.43551365359573       -0.25189726712616
O            1.95911568009960       -0.49429770071371        0.31437455733901
H           -2.81184079328506       -0.16734887231233        1.10171353932897
H           -2.79738343055904       -1.07839431299442       -0.39285300304148
H           -2.71579221503576        0.70370910189610       -0.45332731433157
H           -0.50565702592483       -1.14227693467843        0.69021988433366
H           -0.40331709995864        1.47908202964835       -0.89861111285369
H            1.98971048787209        1.23385627109712       -0.72930392770060
11
 energy: -231.177946369829 gnorm: 0.000855958753 xtb: 6.7.1 (edcfbbe)
C           -2.39027476150517       -0.18287521229689        0.09033989089405
C           -0.91682420699873       -0.28397010159837        0.16481069818670
C           -0.05102665456099        0.59988995297624       -0.36288646365662
C            1.39277163265947        0.43882022906157       -0.25257545474091
O            1.96584026159911       -0.49268801300961        0.31418628502143
H           -2.81604765412313       -0.16815005326052        1.10183076401503
H           -2.80257210179717       -1.07833926626477       -0.39213691976215
H           -2.71900572165394        0.70546280177140       -0.45379701165927
H           -0.50921981855418       -1.14667075320957        0.69217594505166
H           -0.40437333313194        1.47791006402862       -0.89860824647644
H            1.99408327002916        1.23630637039899       -0.73098565388787
11
 energy: -231.177945283487 gnorm: 0.001678145819 xtb: 6.7.1 (edcfbbe)
C           -2.38982505363585       -0.18203253392763        0.09006762909448
C           -0.91674025215291       -0.28513481467219        0.16579924284954
C           -0.05032415336525        0.59780380610286       -0.36276036889753
C            1.39425489873358        0.43823997061319       -0.25620074280381
O            1.96887825519919       -0.49057525862399        0.31379913034811
H           -2.81687875663749       -0.16743557597618        1.10138250601931
H           -2.80412076590805       -1.07727574986289       -0.39188654169820
H           -2.71830877835275        0.70644734931794       -0.45401601855336
H           -0.51220577793032       -1.14923495371356        0.69345654229050
H           -0.40550881703066        1.47537051961514       -0.89845188307563
H            1.99413008830622        1.23952339554552       -0.72883569536608
11
 energy: -231.177949980681 gnorm: 0.000848565295 xtb: 6.7.1 (edcfbbe)
C           -2.38939898993586       -0.18165517206490        0.08967994650368
C           -0.91661912630210       -0.28638917522161        0.16579021602158
C           -0.05004379333948        0.59678737824208       -0.36188059851952
C            1.39462735090950        0.44050944845579       -0.25358222831259
O            1.97045054381416       -0.48937819115263        0.31303283439779
H           -2.81684698227364       -0.16707881647320        1.10078033566427
H           -2.80464554566230       -1.07629687556701       -0.39241215153881
H           -2.71700268001539        0.70715734851676       -0.45408518788364
H           -0.51405902566827       -1.15090096147618        0.69403771057415
H           -0.40642130112223        1.47386474907679       -0.89740065145451
H            1.99331041871007        1.23907642909566       -0.73160639861291
11
 energy: -231.177949980681 gnorm: 0.000848565295 xtb: 6.7.1 (edcfbbe)
C           -2.38939898993586       -0.18165517206490        0.08967994650368
C           -0.91661912630210       -0.28638917522161        0.16579021602158
C           -0.05004379333948        0.59678737824208       -0.36188059851952
C            1.39462735090950        0.44050944845579       -0.25358222831259
O            1.97045054381416       -0.48937819115263        0.31303283439779
H           -2.81684698227364       -0.16707881647320        1.10078033566427
H           -2.80464554566230       -1.07629687556701       -0.39241215153881
H           -2.71700268001539        0.70715734851676       -0.45408518788364
H           -0.51405902566827       -1.15090096147618        0.69403771057415
H           -0.40642130112223        1.47386474907679       -0.89740065145451
H            1.99331041871007        1.23907642909566       -0.73160639861291
