14
 energy: -158.385278553097 gnorm: 0.018837355842 xtb: 6.7.1 (edcfbbe)
C            1.57103285199617       -0.03420781851516        0.56374194684981
C            0.67232171179792        0.36451081096152       -0.60162332936660
C           -0.67227624589790       -0.36448202596151       -0.60161945526659
C           -1.57106949979618        0.03418116081515        0.56373406624981
H            2.53877948402500        0.45421406430127        0.47712413751143
H            1.12973265170061        0.25555078521324        1.51347854647066
H            1.72889069636612       -1.11056334909212        0.57005205955261
H            0.49589869941975        1.44216061823906       -0.57143555235322
H            1.18942827752707        0.14060391876231       -1.53778557078143
H           -1.18935262502703       -0.14052633806227       -1.53778506088143
H           -0.49588984291974       -1.44213684073905       -0.57149694245325
H           -2.53875118282499       -0.45440394730136        0.47716619611144
H           -1.72911026786621        1.11053437349211        0.57002860775259
H           -1.12973096870061       -0.25545863261320        1.51349899117067
14
 energy: -158.385774941730 gnorm: 0.005293357119 xtb: 6.7.1 (edcfbbe)
C            1.57446100544933       -0.03077844660206        0.56456954848035
C            0.67553501489822        0.36033732595892       -0.60751752388800
C           -0.67553295489399       -0.36030695549645       -0.60755038419458
C           -1.57447695640819        0.03075506815571        0.56454933253187
H            2.55047350752578        0.45577890425102        0.48879338751241
H            1.13441030581520        0.25669125326748        1.52271246105237
H            1.73701713503899       -1.11274743403424        0.57873196329162
H            0.50009808469370        1.44277461453856       -0.58724568167692
H            1.19657595202671        0.14167915094284       -1.54640703853259
H           -1.19656576173151       -0.14161417490031       -1.54643705135879
H           -0.50010082000593       -1.44274465462245       -0.58731306667338
H           -2.55042476655576       -0.45594357948202        0.48881204317218
H           -1.73718795914167        1.11270640354639        0.57867520449401
H           -1.13437817935736       -0.25661082139472        1.52270526865894
14
 energy: -158.385830447304 gnorm: 0.000737872522 xtb: 6.7.1 (edcfbbe)
C            1.57369540069262       -0.02900322050659        0.56506584035286
C            0.67630719458817        0.35959002348673       -0.60924318261657
C           -0.67630623486479       -0.35955946382279       -0.60926266429018
C           -1.57372057800590        0.02897770105168        0.56504462945767
H            2.55233476354182        0.45715463976032        0.49257102355169
H            1.13402626008582        0.25959781838149        1.52534804527827
H            1.73960488015491       -1.11277993156271        0.58561760946385
H            0.50499829836801        1.44477735514300       -0.59775662904844
H            1.19892781074558        0.13798567067486       -1.54797474518157
H           -1.19891783881788       -0.13792080018072       -1.54799079180363
H           -0.50499305799541       -1.44474617591948       -0.59781357807770
H           -2.55230632076146       -0.45729476102512        0.49258862351953
H           -1.73975172439878        1.11273528050775        0.58555710919530
H           -1.13399548185411       -0.25953757684238        1.52532680129878
14
 energy: -158.385841742645 gnorm: 0.000934920236 xtb: 6.7.1 (edcfbbe)
C            1.57250829356272       -0.02694423877114        0.56609967791258
C            0.67725607176622        0.35761183084173       -0.61032597277687
C           -0.67726521642473       -0.35758881037047       -0.61035198077140
C           -1.57252788963214        0.02692358495152        0.56607798875619
H            2.55137515246012        0.45905234952068        0.49380950559852
H            1.13185868422320        0.26426934159321        1.52536778620889
H            1.73886826883897       -1.11073709279392        0.59053544959211
H            0.50897464880763        1.44348135688967       -0.60420713224431
H            1.20068570285759        0.13071791712982       -1.54764073034477
H           -1.20068353222088       -0.13066484146329       -1.54766597133705
H           -0.50897422866792       -1.44345670460099       -0.60426827387290
H           -2.55135012215590       -0.45916576686194        0.49381609146664
H           -1.73898767509521        1.11070055077991        0.59048459047817
H           -1.13183506871486       -0.26422302826688        1.52534660107014
14
 energy: -158.385858111397 gnorm: 0.000935700904 xtb: 6.7.1 (edcfbbe)
C            1.56756431383289       -0.02206782473849        0.56961688024611
C            0.67913675044932        0.35368845465374       -0.61374743056766
C           -0.67913840153586       -0.35367237463674       -0.61375527749324
C           -1.56759022549102        0.02204868970378        0.56959859196577
H            2.54655714068417        0.46281273746863        0.49623742848737
H            1.12358048848028        0.27893934080140        1.52407090923637
H            1.73332701805102       -1.10540040361015        0.60525939350409
H            0.51783789042879        1.44044000479681       -0.62144444728669
H            1.20431582632101        0.11157976923766       -1.54639205651234
H           -1.20430343485191       -0.11154247863435       -1.54640178188138
H           -0.51783922371315       -1.44042366785077       -0.62148072562185
H           -2.54656962740076       -0.46286065571589        0.49622407043754
H           -1.73338354184723        1.10537702800316        0.60523898706393
H           -1.12359275783358       -0.27894243817578        1.52405162795169
14
 energy: -158.385862467110 gnorm: 0.000457850578 xtb: 6.7.1 (edcfbbe)
C            1.56581119602077       -0.01971056266414        0.57100956806601
C            0.67986801643267        0.35250382860871       -0.61581204940864
C           -0.67988411873204       -0.35249937315588       -0.61583817869499
C           -1.56582354343015        0.01970127613170        0.57099011355322
H            2.54607277477668        0.46262274786030        0.49750684671279
H            1.12032623486657        0.28676255137943        1.52289643073310
H            1.72860993139533       -1.10320033040174        0.61171272039093
H            0.52022113810551        1.43920939530043       -0.62730033557085
H            1.20646129722091        0.10641343228802       -1.54638817276165
H           -1.20646796683008       -0.10639201103272       -1.54641599898561
H           -0.52023275189164       -1.43920379771437       -0.62734404620204
H           -2.54607870896913       -0.46264237719698        0.49747284384803
H           -1.72863676671670        1.10318955935630        0.61170672687997
H           -1.12034491764863       -0.28677825521099        1.52287907124531
14
 energy: -158.385862467110 gnorm: 0.000457850578 xtb: 6.7.1 (edcfbbe)
C            1.56581119602077       -0.01971056266414        0.57100956806601
C            0.67986801643267        0.35250382860871       -0.61581204940864
C           -0.67988411873204       -0.35249937315588       -0.61583817869499
C           -1.56582354343015        0.01970127613170        0.57099011355322
H            2.54607277477668        0.46262274786030        0.49750684671279
H            1.12032623486657        0.28676255137943        1.52289643073310
H            1.72860993139533       -1.10320033040174        0.61171272039093
H            0.52022113810551        1.43920939530043       -0.62730033557085
H            1.20646129722091        0.10641343228802       -1.54638817276165
H           -1.20646796683008       -0.10639201103272       -1.54641599898561
H           -0.52023275189164       -1.43920379771437       -0.62734404620204
H           -2.54607870896913       -0.46264237719698        0.49747284384803
H           -1.72863676671670        1.10318955935630        0.61170672687997
H           -1.12034491764863       -0.28677825521099        1.52287907124531
