
                                 *****************
                                 * O   R   C   A *
                                 *****************

                                            #,                                       
                                            ###                                      
                                            ####                                     
                                            #####                                    
                                            ######                                   
                                           ########,                                 
                                     ,,################,,,,,                         
                               ,,#################################,,                 
                          ,,##########################################,,             
                       ,#########################################, ''#####,          
                    ,#############################################,,   '####,        
                  ,##################################################,,,,####,       
                ,###########''''           ''''###############################       
              ,#####''   ,,,,##########,,,,          '''####'''          '####       
            ,##' ,,,,###########################,,,                        '##       
           ' ,,###''''                  '''############,,,                           
         ,,##''                                '''############,,,,        ,,,,,,###''
      ,#''                                            '''#######################'''  
     '                                                          ''''####''''         
             ,#######,   #######,   ,#######,      ##                                
            ,#'     '#,  ##    ##  ,#'     '#,    #''#        ,####,   ,####,        
            ##       ##  ##   ,#'  ##            #'  '#       #'       #'  '#        
            ##       ##  #######   ##           ,######,      #####,   #    #        
            '#,     ,#'  ##    ##  '#,     ,#' ,#      #,     #,   #   #,  ,#        
             '#######'   ##     ##  '#######'  #'      '#     '####' # '####'        



                #########################################################
                #                        -***-                          #
                #          Department of theory and spectroscopy        #
                #                                                       #
                #                      Frank Neese                      #
                #                                                       #
                #     Directorship, Architecture, Infrastructure        #
                #                    SHARK, DRIVERS                     #
                #        Core code/Algorithms in most modules           #
                #                                                       #
                #        Max Planck Institute fuer Kohlenforschung      #
                #                Kaiser Wilhelm Platz 1                 #
                #                 D-45470 Muelheim/Ruhr                 #
                #                      Germany                          #
                #                                                       #
                #                  All rights reserved                  #
                #                        -***-                          #
                #########################################################


                         Program Version 6.0.0  -   RELEASE  -


 With contributions from (in alphabetic order):
   Daniel Aravena         : Magnetic Suceptibility
   Michael Atanasov       : Ab Initio Ligand Field Theory (pilot matlab implementation)
   Alexander A. Auer      : GIAO ZORA, VPT2 properties, NMR spectrum
   Ute Becker             : All parallelization in ORCA, NUMFREQ, NUMCALC
   Giovanni Bistoni       : ED, misc. LED, open-shell LED, HFLD
   Martin Brehm           : Molecular dynamics
   Dmytro Bykov           : pre 5.0 version of the SCF Hessian
   Marcos Casanova-Páez   : Triplet and SCS-CIS(D). UHF-(DLPNO)-IP/EA/STEOM-CCSD. UHF-CVS-IP/STEOM-CCSD
   Vijay G. Chilkuri      : MRCI spin determinant printing, contributions to CSF-ICE
   Pauline Colinet        : FMM embedding
   Dipayan Datta          : RHF DLPNO-CCSD density
   Achintya Kumar Dutta   : EOM-CC, STEOM-CC
   Nicolas Foglia         : Exact transition moments, OPA infrastructure, MCD improvements
   Dmitry Ganyushin       : Spin-Orbit,Spin-Spin,Magnetic field MRCI
   Miquel Garcia          : C-PCM and meta-GGA Hessian, CCSD/C-PCM, Gaussian charge scheme
   Tiago L. C. Gouveia    : GS-ROHF, GS-ROCIS
   Yang Guo               : DLPNO-NEVPT2, F12-NEVPT2, CIM, IAO-localization
   Andreas Hansen         : Spin unrestricted coupled pair/coupled cluster methods
   Ingolf Harden          : AUTO-CI MPn and infrastructure 
   Benjamin Helmich-Paris : MC-RPA, TRAH-(SCF,CASSCF), AVAS, COSX integrals, SCF dyn. polar.
   Lee Huntington         : MR-EOM, pCC
   Robert Izsak           : Overlap fitted RIJCOSX, COSX-SCS-MP3, EOM
   Riya Kayal             : Wick's Theorem for AUTO-CI, AUTO-CI UHF-CCSDT
   Emily Kempfer          : AUTO-CI, RHF CISDT and CCSDT
   Christian Kollmar      : KDIIS, OOCD, Brueckner-CCSD(T), CCSD density, CASPT2, CASPT2-K, improved NEVPT2
   Axel Koslowski         : Symmetry handling
   Simone Kossmann        : Meta GGA functionals, TD-DFT gradient, OOMP2, (MP2 Hessian; deprecated post 5.0)
   Lucas Lang             : DCDCAS
   Marvin Lechner         : AUTO-CI (C++ implementation), FIC-MRCC
   Spencer Leger          : CASSCF response
   Dagmar Lenk            : GEPOL surface, SMD, ORCA-2-JSON
   Dimitrios Liakos       : Extrapolation schemes; Compound Job, initial MDCI parallelization
   Dimitrios Manganas     : Further ROCIS development; embedding schemes. LFT, Crystal Embedding
   Dimitrios Pantazis     : SARC Basis sets
   Anastasios Papadopoulos: AUTO-CI, single reference methods and gradients
   Taras Petrenko         : pre 6.0 DFT Hessian and TD-DFT gradient, (ASA, deprecated), ECA, 1-Electron XAS/XES, NRVS
   Peter Pinski           : DLPNO-MP2, DLPNO-MP2 Gradient
   Christoph Reimann      : Effective Core Potentials
   Marius Retegan         : Local ZFS, SOC
   Christoph Riplinger    : Optimizer, TS searches, QM/MM, DLPNO-CCSD(T), (RO)-DLPNO pert. Triples
   Michael Roemelt        : Original ROCIS implementation
   Masaaki Saitow         : Open-shell DLPNO-CCSD energy and density
   Barbara Sandhoefer     : DKH picture change effects
   Kantharuban Sivalingam : CASSCF convergence/infrastructure, NEVPT2 and variants, FIC-MRCI
   Bernardo de Souza      : ESD, SOC TD-DFT
   Georgi Stoychev        : AutoAux, RI-MP2 NMR, DLPNO-MP2 response, X2C
   Van Anh Tran           : RI-MP2 g-tensors
   Willem Van den Heuvel  : Paramagnetic NMR
   Zikuan Wang            : NOTCH, Electric field optimization 
   Frank Wennmohs         : Technical directorship and infrastructure
   Hang Xu                : AUTO-CI-Response properties 


 We gratefully acknowledge several colleagues who have allowed us to
 interface, adapt or use parts of their codes:
   Stefan Grimme, W. Hujo, H. Kruse, P. Pracht,  : VdW corrections, initial TS optimization,
                  C. Bannwarth, S. Ehlert,         DFT functionals, gCP, sTDA/sTD-DF
                  L. Wittmann, M. Mueller
   Ed Valeev, F. Pavosevic, A. Kumar             : LibInt (2-el integral package), F12 methods
   Garnet Chan, S. Sharma, J. Yang, R. Olivares  : DMRG
   Ulf Ekstrom                                   : XCFun DFT Library
   Mihaly Kallay                                 : mrcc  (arbitrary order and MRCC methods)
   Frank Weinhold                                : gennbo (NPA and NBO analysis)
   Simon Mueller                                 : openCOSMO-RS
   Christopher J. Cramer and Donald G. Truhlar   : smd solvation model
   Lars Goerigk                                  : TD-DFT with DH, B97 family of functionals
   V. Asgeirsson, H. Jonsson                     : NEB implementation
   FAccTs GmbH                                   : IRC, NEB, NEB-TS, DLPNO-Multilevel, CI-OPT
                                                   MM, QMMM, 2- and 3-layer-ONIOM, Crystal-QMMM,
                                                   LR-CPCM, SF, NACMEs, symmetry and pop. for TD-DFT,
                                                   nearIR, NL-DFT gradient (VV10), updates on ESD,
                                                   ML-optimized integration grids, MBIS, APM,
                                                   GOAT, DOCKER, SOLVATOR, interface openCOSMO-RS
   S Lehtola, MJT Oliveira, MAL Marques          : LibXC Library
   Liviu Ungur et al                             : ANISO software


 Your calculation uses the libint2 library for the computation of 2-el integrals
 For citations please refer to: http://libint.valeyev.net

 Your ORCA version has been built with support for libXC version: 6.2.2
 For citations please refer to: https://libxc.gitlab.io

 This ORCA versions uses:
   CBLAS   interface :  Fast vector & matrix operations
   LAPACKE interface :  Fast linear algebra routines
   SCALAPACK package :  Parallel linear algebra routines
   Shared memory     :  Shared parallel matrices
   BLAS/LAPACK       :  OpenBLAS 0.3.27  USE64BITINT DYNAMIC_ARCH NO_AFFINITY SkylakeX SINGLE_THREADED
        Core in use  :  SkylakeX
   Copyright (c) 2011-2014, The OpenBLAS Project


Your calculation utilizes the geometrical counterpoise correction gCP
Please cite in your paper:
H.Kruse, S. Grimme J.Chem.Phys., 136, (2012), 154101 
   

Your calculation utilizes the atom-pairwise dispersion correction
based on EEQ partial charges (D4)


================================================================================

----- Orbital basis set information -----
Your calculation utilizes the basis: def2-SV(P)
   F. Weigend and R. Ahlrichs, Phys. Chem. Chem. Phys. 7, 3297 (2005).

----- AuxJ basis set information -----
Your calculation utilizes the auxiliary basis: def2/J
   F. Weigend, Phys. Chem. Chem. Phys. 8, 1057 (2006).

================================================================================
                                        WARNINGS
                       Please study these warnings very carefully!
================================================================================


================================================================================
                                       INPUT FILE
================================================================================
NAME = sp.inp
|  1> ! pbe def2-sv(p) def2/J RI DEFGRID1 loosescf d4 GCP(DFT/SV(P)) printgap
|  2> %output
|  3>     printlevel normal
|  4> end
|  5> * xyz 0 1
|  6> C -2.5577301536 -0.6826641914 -0.3513016183
|  7> C -1.1735031452 -0.3176814964 0.1791272842
|  8> H -1.2269845904 -0.2598864347 1.2770768027
|  9> C -0.6912515578 1.0314283083 -0.370128139
| 10> H -0.6591229464 0.9625574449 -1.4711422374
| 11> C 0.7282549334 1.3234501297 0.1518113476
| 12> H 0.6909883998 1.4471278468 1.2406253443
| 13> C 1.6561632434 0.1512208112 -0.1757920892
| 14> H 1.7661605996 0.0626270784 -1.269163144
| 15> C 1.0194945384 -1.1603528565 0.3246582141
| 16> H 0.9638856114 -1.1235970267 1.4338347316
| 17> O -0.2716016512 -1.3380573517 -0.2019224304
| 18> O 1.815160233 -2.2052473655 -0.103375124
| 19> O 2.9005263001 0.3691255659 0.432050156
| 20> O 1.1859915961 2.5557149021 -0.3426908568
| 21> O -1.5845672474 2.0395473377 0.0210388474
| 22> O -3.1003674231 -1.6951049401 0.4632816463
| 23> H -2.4473548903 -1.0272712949 -1.3859462899
| 24> H -3.1743920834 0.2227305684 -0.3189832009
| 25> H 1.3377716645 -3.042572621 0.0049274433
| 26> H 3.4623414474 -0.4065729421 0.2824134653
| 27> H 1.5159134653 2.4521151806 -1.2471531671
| 28> H -1.1248873089 2.893107319 -0.0466834825
| 29> H -3.9693177242 -1.9466342465 0.1193058425
| 30> *
| 31> 
| 32>                          ****END OF INPUT****
================================================================================

                       ****************************
                       * Single Point Calculation *
                       ****************************

---------------------------------
CARTESIAN COORDINATES (ANGSTROEM)
---------------------------------
  C     -2.557730   -0.682664   -0.351302
  C     -1.173503   -0.317681    0.179127
  H     -1.226985   -0.259886    1.277077
  C     -0.691252    1.031428   -0.370128
  H     -0.659123    0.962557   -1.471142
  C      0.728255    1.323450    0.151811
  H      0.690988    1.447128    1.240625
  C      1.656163    0.151221   -0.175792
  H      1.766161    0.062627   -1.269163
  C      1.019495   -1.160353    0.324658
  H      0.963886   -1.123597    1.433835
  O     -0.271602   -1.338057   -0.201922
  O      1.815160   -2.205247   -0.103375
  O      2.900526    0.369126    0.432050
  O      1.185992    2.555715   -0.342691
  O     -1.584567    2.039547    0.021039
  O     -3.100367   -1.695105    0.463282
  H     -2.447355   -1.027271   -1.385946
  H     -3.174392    0.222731   -0.318983
  H      1.337772   -3.042573    0.004927
  H      3.462341   -0.406573    0.282413
  H      1.515913    2.452115   -1.247153
  H     -1.124887    2.893107   -0.046683
  H     -3.969318   -1.946634    0.119306

----------------------------
CARTESIAN COORDINATES (A.U.)
----------------------------
  NO LB      ZA    FRAG     MASS         X           Y           Z
   0 C     6.0000    0    12.011   -4.833410   -1.290048   -0.663864
   1 C     6.0000    0    12.011   -2.217600   -0.600331    0.338502
   2 H     1.0000    0     1.008   -2.318665   -0.491114    2.413325
   3 C     6.0000    0    12.011   -1.306276    1.949117   -0.699441
   4 H     1.0000    0     1.008   -1.245562    1.818970   -2.780056
   5 C     6.0000    0    12.011    1.376202    2.500958    0.286882
   6 H     1.0000    0     1.008    1.305779    2.734675    2.344442
   7 C     6.0000    0    12.011    3.129695    0.285766   -0.332199
   8 H     1.0000    0     1.008    3.337560    0.118348   -2.398371
   9 C     6.0000    0    12.011    1.926565   -2.192749    0.613515
  10 H     1.0000    0     1.008    1.821480   -2.123291    2.709555
  11 O     8.0000    0    15.999   -0.513253   -2.528562   -0.381578
  12 O     8.0000    0    15.999    3.430156   -4.167314   -0.195351
  13 O     8.0000    0    15.999    5.481200    0.697546    0.816456
  14 O     8.0000    0    15.999    2.241199    4.829601   -0.647592
  15 O     8.0000    0    15.999   -2.994398    3.854186    0.039758
  16 O     8.0000    0    15.999   -5.858845   -3.203284    0.875475
  17 H     1.0000    0     1.008   -4.624830   -1.941261   -2.619059
  18 H     1.0000    0     1.008   -5.998732    0.420900   -0.602791
  19 H     1.0000    0     1.008    2.528022   -5.749629    0.009312
  20 H     1.0000    0     1.008    6.542877   -0.768312    0.533684
  21 H     1.0000    0     1.008    2.864661    4.633826   -2.356778
  22 H     1.0000    0     1.008   -2.125729    5.467181   -0.088219
  23 H     1.0000    0     1.008   -7.500923   -3.678606    0.225455

--------------------------------
INTERNAL COORDINATES (ANGSTROEM)
--------------------------------
 C      0   0   0     0.000000000000     0.00000000     0.00000000
 C      1   0   0     1.526647175690     0.00000000     0.00000000
 H      2   1   0     1.100769585023   108.36421074     0.00000000
 C      2   1   3     1.534387623321   111.76546742   239.82934195
 H      4   2   1     1.103633765509   108.14334715   300.70315586
 C      4   2   1     1.540355884335   109.57452320   182.19291935
 H      6   4   2     1.096449219820   109.05929392   295.00101046
 C      6   4   2     1.530509529118   109.93648358    54.01068343
 H      8   6   4     1.102455682255   109.53145523    65.07803691
 C      8   6   4     1.541435380353   109.37727300   307.92475895
 H     10   8   6     1.111177704402   108.45774871   294.73286966
 O     10   8   6     1.405629906332   111.42759818    55.20828430
 O     10   8   6     1.381340280679   107.76525594   174.13801710
 O      8   6   4     1.401925138533   109.04323738   186.39220321
 O      6   4   2     1.404468494426   110.32694268   179.95757656
 O      4   2   1     1.402614882986   109.38723023    60.46616487
 O      1   2   3     1.408203597086   108.68071542   317.12318209
 H      1   2   3     1.096095958847   108.16938205   196.48710240
 H      1   2   3     1.095927044488   107.60398178    77.52493411
 H     13  10   8     0.969919004307   109.56748649   193.66524627
 H     14   8   6     0.969399594725   108.85125785   175.53061307
 H     15   6   4     0.968314728187   110.24576525   279.35462612
 H     16   4   2     0.971831570543   108.09448532   160.03404595
 H     17   1   2     0.967812467041   109.10127495   181.38310263

---------------------------
INTERNAL COORDINATES (A.U.)
---------------------------
 C      0   0   0     0.000000000000     0.00000000     0.00000000
 C      1   0   0     2.884945065178     0.00000000     0.00000000
 H      2   1   0     2.080153052244   108.36421074     0.00000000
 C      2   1   3     2.899572391356   111.76546742   239.82934195
 H      4   2   1     2.085565568960   108.14334715   300.70315586
 C      4   2   1     2.910850770167   109.57452320   182.19291935
 H      6   4   2     2.071988745211   109.05929392   295.00101046
 C      6   4   2     2.892243855390   109.93648358    54.01068343
 H      8   6   4     2.083339314248   109.53145523    65.07803691
 C      8   6   4     2.912890722004   109.37727300   307.92475895
 H     10   8   6     2.099821547439   108.45774871   294.73286966
 O     10   8   6     2.656255568618   111.42759818    55.20828430
 O     10   8   6     2.610354828237   107.76525594   174.13801710
 O      8   6   4     2.649254572087   109.04323738   186.39220321
 O      6   4   2     2.654060818185   110.32694268   179.95757656
 O      4   2   1     2.650558000205   109.38723023    60.46616487
 O      1   2   3     2.661119139295   108.68071542   317.12318209
 H      1   2   3     2.071321178719   108.16938205   196.48710240
 H      1   2   3     2.071001976841   107.60398178    77.52493411
 H     13  10   8     1.832881290226   109.56748649   193.66524627
 H     14   8   6     1.831899748364   108.85125785   175.53061307
 H     15   6   4     1.829849647716   110.24576525   279.35462612
 H     16   4   2     1.836495516624   108.09448532   160.03404595
 H     17   1   2     1.828900511702   109.10127495   181.38310263

---------------------
BASIS SET INFORMATION
---------------------
There are 3 groups of distinct atoms

 Group   1 Type C   : 7s4p1d contracted to 3s2p1d pattern {511/31/1}
 Group   2 Type H   : 4s contracted to 2s pattern {31}
 Group   3 Type O   : 7s4p1d contracted to 3s2p1d pattern {511/31/1}

Atom   0C    basis set group =>   1
Atom   1C    basis set group =>   1
Atom   2H    basis set group =>   2
Atom   3C    basis set group =>   1
Atom   4H    basis set group =>   2
Atom   5C    basis set group =>   1
Atom   6H    basis set group =>   2
Atom   7C    basis set group =>   1
Atom   8H    basis set group =>   2
Atom   9C    basis set group =>   1
Atom  10H    basis set group =>   2
Atom  11O    basis set group =>   3
Atom  12O    basis set group =>   3
Atom  13O    basis set group =>   3
Atom  14O    basis set group =>   3
Atom  15O    basis set group =>   3
Atom  16O    basis set group =>   3
Atom  17H    basis set group =>   2
Atom  18H    basis set group =>   2
Atom  19H    basis set group =>   2
Atom  20H    basis set group =>   2
Atom  21H    basis set group =>   2
Atom  22H    basis set group =>   2
Atom  23H    basis set group =>   2
---------------------------------
AUXILIARY/J BASIS SET INFORMATION
---------------------------------
There are 3 groups of distinct atoms

 Group   1 Type C   : 12s5p4d2f1g contracted to 6s4p3d1f1g pattern {711111/2111/211/2/1}
 Group   2 Type H   : 5s2p1d contracted to 3s1p1d pattern {311/2/1}
 Group   3 Type O   : 12s5p4d2f1g contracted to 6s4p3d1f1g pattern {711111/2111/211/2/1}

Atom   0C    basis set group =>   1
Atom   1C    basis set group =>   1
Atom   2H    basis set group =>   2
Atom   3C    basis set group =>   1
Atom   4H    basis set group =>   2
Atom   5C    basis set group =>   1
Atom   6H    basis set group =>   2
Atom   7C    basis set group =>   1
Atom   8H    basis set group =>   2
Atom   9C    basis set group =>   1
Atom  10H    basis set group =>   2
Atom  11O    basis set group =>   3
Atom  12O    basis set group =>   3
Atom  13O    basis set group =>   3
Atom  14O    basis set group =>   3
Atom  15O    basis set group =>   3
Atom  16O    basis set group =>   3
Atom  17H    basis set group =>   2
Atom  18H    basis set group =>   2
Atom  19H    basis set group =>   2
Atom  20H    basis set group =>   2
Atom  21H    basis set group =>   2
Atom  22H    basis set group =>   2
Atom  23H    basis set group =>   2
------------------------------------------------------------------------------
                             ORCA STARTUP CALCULATIONS
                           -- RI-GTO INTEGRALS CHOSEN --
------------------------------------------------------------------------------
------------------------------------------------------------------------------
                   ___                                                        
                  /   \      - P O W E R E D   B Y -                         
                 /     \                                                     
                 |  |  |   _    _      __       _____    __    __             
                 |  |  |  | |  | |    /  \     |  _  \  |  |  /  |          
                  \  \/   | |  | |   /    \    | | | |  |  | /  /          
                 / \  \   | |__| |  /  /\  \   | |_| |  |  |/  /          
                |  |  |   |  __  | /  /__\  \  |    /   |      \           
                |  |  |   | |  | | |   __   |  |    \   |  |\   \          
                \     /   | |  | | |  |  |  |  | |\  \  |  | \   \       
                 \___/    |_|  |_| |__|  |__|  |_| \__\ |__|  \__/        
                                                                              
                      - O R C A' S   B I G   F R I E N D -                    
                                      &                                       
                       - I N T E G R A L  F E E D E R -                       
                                                                              
 v1 FN, 2020, v2 2021, v3 2022-2024                                           
------------------------------------------------------------------------------


----------------------
SHARK INTEGRAL PACKAGE
----------------------

Number of atoms                             ...     24
Number of basis functions                   ...    192
Number of shells                            ...     96
Maximum angular momentum                    ...      2
Integral batch strategy                     ... SHARK/LIBINT Hybrid
RI-J (if used) integral strategy            ... SPLIT-RIJ (Revised 2003 algorithm where possible)
Printlevel                                  ...      1
Contraction scheme used                     ... SEGMENTED contraction
Prescreening option                         ... SCHWARTZ
   Thresh                                   ... 1.000e-09
   Tcut                                     ... 1.000e-10
   Tpresel                                  ... 1.000e-10 
Coulomb Range Separation                    ... NOT USED
Exchange Range Separation                   ... NOT USED
Multipole approximations                    ... NOT USED
Finite Nucleus Model                        ... NOT USED
CABS basis                                  ... NOT available
Auxiliary Coulomb fitting basis             ... AVAILABLE
   # of basis functions in Aux-J            ...    720
   # of shells in Aux-J                     ...    240
   Maximum angular momentum in Aux-J        ...      4
Auxiliary J/K fitting basis                 ... NOT available
Auxiliary Correlation fitting basis         ... NOT available
Auxiliary 'external' fitting basis          ... NOT available

Checking pre-screening integrals            ... done (  0.0 sec) Dimension = 96
Check shell pair data                       ... done (  0.0 sec)
Shell pair information
Shell pair cut-off parameter TPreSel        ...   1.0e-10
Total number of shell pairs                 ...      4656
Shell pairs after pre-screening             ...      4115
Total number of primitive shell pairs       ...     18720
Primitive shell pairs kept                  ...     11013
          la=0 lb=0:   1604 shell pairs
          la=1 lb=0:   1307 shell pairs
          la=1 lb=1:    283 shell pairs
          la=2 lb=0:    598 shell pairs
          la=2 lb=1:    258 shell pairs
          la=2 lb=2:     65 shell pairs

Calculating one electron integrals          ... done (  0.0 sec)
Calculating RI/J V-Matrix + Cholesky decomp.... done (  0.1 sec)
Calculating Nuclear repulsion               ... done (  0.0 sec) ENN=    824.082590252730 Eh

Diagonalization of the overlap matrix:
Smallest eigenvalue                        ... 9.934e-04
Time for diagonalization                   ...    0.003 sec
Threshold for overlap eigenvalues          ... 1.000e-07
Number of eigenvalues below threshold      ... 0
Time for construction of square roots      ...    0.011 sec
Total time needed                          ...    0.022 sec

-------------------
DFT GRID GENERATION
-------------------

General Integration Accuracy     IntAcc      ... 4.159
Radial Grid Type                 RadialGrid  ... OptM3 with GC (2021)
Angular Grid (max. ang.)         AngularGrid ... 3 (Lebedev-194)
Angular grid pruning method      GridPruning ... 4 (adaptive)
Weight generation scheme         WeightScheme... mBecke (2022)
Basis function cutoff            BFCut       ... 1.0000e-10
Integration weight cutoff        WCut        ... 1.0000e-14
Partially contracted basis set               ... off
Rotationally invariant grid construction     ... off
Angular grids for H and He will be reduced by one unit

Total number of grid points                  ...    55789
Total number of batches                      ...      885
Average number of points per batch           ...       63
Average number of grid points per atom       ...     2325
Initializing property integral containers    ... done (  0.0 sec)

SHARK setup successfully completed in   0.8 seconds

Maximum memory used throughout the entire STARTUP-calculation: 27.9 MB
-------------------------------------------------------------------------------
                                 ORCA GUESS
                   Start orbitals & Density for SCF / CASSCF
-------------------------------------------------------------------------------

------------
SCF SETTINGS
------------
Hamiltonian:
 Density Functional     Method          .... DFT(GTOs)
 Exchange Functional    Exchange        .... PBE
   PBE kappa parameter   XKappa         ....  0.804000
   PBE mue parameter    XMuePBE         ....  0.219520
 Correlation Functional Correlation     .... PBE
   PBE beta parameter  CBetaPBE         ....  0.066725
 LDA part of GGA corr.  LDAOpt          .... PW91-LDA
 Gradients option       PostSCFGGA      .... off
   NL short-range parameter             ....  6.400000
 RI-approximation to the Coulomb term is turned on
   Number of AuxJ basis functions       .... 720


General Settings:
 Integral files         IntName         .... sp
 Hartree-Fock type      HFTyp           .... RHF
 Total Charge           Charge          ....    0
 Multiplicity           Mult            ....    1
 Number of Electrons    NEL             ....   96
 Basis Dimension        Dim             ....  192
 Nuclear Repulsion      ENuc            ....    824.0825902527 Eh

Convergence Acceleration:
 AO-DIIS                CNVDIIS         .... on
   Start iteration      DIISMaxIt       ....    12
   Startup error        DIISStart       ....  0.200000
   # of expansion vecs  DIISMaxEq       ....     5
   Bias factor          DIISBfac        ....   1.050
   Max. coefficient     DIISMaxC        ....  10.000
 MO-DIIS                CNVKDIIS        .... off
 Trust-Rad. Augm. Hess. CNVTRAH         .... auto
   Auto Start mean grad. ratio tolernc. ....  1.125000
   Auto Start start iteration           ....    50
   Auto Start num. interpolation iter.  ....    10
   Max. Number of Micro iterations      ....    24
   Max. Number of Macro iterations      .... Maxiter - #DIIS iter
   Number of Davidson start vectors     ....     2
   Converg. threshold    (grad. norm)   ....   1.000e-04
   Grad. Scal. Fac. for Micro threshold ....   0.100
   Minimum threshold for Micro iter.    ....   1.000e-02
   NR start threshold (gradient norm)   ....   1.000e-04
   Initial trust radius                 ....   0.400
   Minimum AH scaling param. (alpha)    ....   1.000
   Maximum AH scaling param. (alpha)    .... 1000.000
   Quad. conv. algorithm                .... NR
   White noise on init. David. guess    .... on
   Maximum white noise                  ....   0.010
   Pseudo random numbers                .... off
   Inactive MOs                         .... canonical
   Orbital update algorithm             .... Taylor
   Preconditioner                       .... Diag
   Full preconditioner red. dimension   ....   250
 SOSCF                  CNVSOSCF        .... on
   Start iteration      SOSCFMaxIt      ....   150
   Startup grad/error   SOSCFStart      ....  0.003300
   Hessian update       SOSCFHessUp     .... L-BFGS
 Level Shifting         CNVShift        .... on
   Level shift para.    LevelShift      ....    0.2500
   Turn off err/grad.   ShiftErr        ....    0.0010
 Zerner damping         CNVZerner       .... off
 Static damping         CNVDamp         .... on
   Fraction old density DampFac         ....    0.7000
   Max. Damping (<1)    DampMax         ....    0.9800
   Min. Damping (>=0)   DampMin         ....    0.0000
   Turn off err/grad.   DampErr         ....    0.1000

SCF Procedure:
 Maximum # iterations   MaxIter         ....   125
 SCF integral mode      SCFMode         .... Direct
   Integral package                     .... SHARK and LIBINT hybrid scheme
 Reset frequency        DirectResetFreq ....    20
 Integral Threshold     Thresh          ....  1.000e-09 Eh
 Primitive CutOff       TCut            ....  1.000e-10 Eh

Convergence Tolerance:
 Convergence Check Mode ConvCheckMode   .... Total+1el-Energy
 Convergence forced     ConvForced      .... 0
 Energy Change          TolE            ....  1.000e-05 Eh
 1-El. energy change                    ....  1.000e-02 Eh
 Orbital Gradient       TolG            ....  1.000e-04
 Orbital Rotation angle TolX            ....  1.000e-04
 DIIS Error             TolErr          ....  5.000e-04

------------------------------
INITIAL GUESS: MODEL POTENTIAL
------------------------------
Loading Hartree-Fock densities                     ... done
Calculating cut-offs                               ... done
Initializing the effective Hamiltonian             ... done
Setting up the integral package (SHARK)            ... done
Starting the Coulomb interaction                   ... done (   0.2 sec)
Making the grid                                    ... done (   0.3 sec)
Mapping shells                                     ... done
Starting the XC term evaluation                    ... done (   0.2 sec)
  promolecular density results
     # of electrons  =     95.996302805
     EX              =    -83.241503678
     EC              =     -3.268063907
     EX+EC           =    -86.509567585
Transforming the Hamiltonian                       ... done (   0.0 sec)
Diagonalizing the Hamiltonian                      ... done (   0.0 sec)
Back transforming the eigenvectors                 ... done (   0.0 sec)
Now organizing SCF variables                       ... done
                      ------------------
                      INITIAL GUESS DONE (   0.8 sec)
                      ------------------
             **** ENERGY FILE WAS UPDATED (sp.en.tmp) ****
Finished Guess after   1.0 sec
Maximum memory used throughout the entire GUESS-calculation: 21.6 MB

-------------------------------------------------------------------------------------------
                                      ORCA LEAN-SCF
                              memory conserving SCF solver
-------------------------------------------------------------------------------------------

----------------------------------------D-I-I-S--------------------------------------------
Iteration    Energy (Eh)           Delta-E    RMSDP     MaxDP     DIISErr   Damp  Time(sec)
-------------------------------------------------------------------------------------------
               ***  Starting incremental Fock matrix formation  ***
    1    -685.5184812335998004     0.00e+00  5.39e-03  1.64e-01  2.24e-01  0.700   1.2
    2    -685.6719424604976894    -1.53e-01  3.44e-03  1.07e-01  8.87e-02  0.700   1.2
                               ***Turning on AO-DIIS***
    3    -685.7198493664080843    -4.79e-02  1.13e-03  2.72e-02  2.06e-02  0.700   1.1
    4    -685.7519096302543176    -3.21e-02  1.38e-03  2.30e-02  9.83e-03  0.000   1.0
    5    -685.8263264833984749    -7.44e-02  4.80e-04  1.54e-02  6.06e-03  0.000   1.1
                              *** Initializing SOSCF ***
---------------------------------------S-O-S-C-F--------------------------------------
Iteration    Energy (Eh)           Delta-E    RMSDP     MaxDP     MaxGrad    Time(sec)
--------------------------------------------------------------------------------------
    6    -685.8266877145719036    -3.61e-04  1.45e-04  3.67e-03  1.49e-03     1.0
               *** Restarting incremental Fock matrix formation ***
    7    -685.8267158489651365    -2.81e-05  1.01e-04  2.52e-03  2.02e-04     1.2
    8    -685.8267148955725361     9.53e-07  4.15e-05  1.06e-03  2.55e-04     1.0
                 **** Energy Check signals convergence ****

               *****************************************************
               *                     SUCCESS                       *
               *           SCF CONVERGED AFTER   8 CYCLES          *
               *****************************************************

             **** ENERGY FILE WAS UPDATED (sp.en.tmp) ****

----------------
TOTAL SCF ENERGY
----------------

Total Energy       :       -685.82671489557254 Eh          -18662.29368 eV

Components:
Nuclear Repulsion  :        824.08259025272957 Eh           22424.42732 eV
Electronic Energy  :      -1509.90930514830211 Eh          -41086.72100 eV
One Electron Energy:      -2577.42891828476013 Eh          -70135.40648 eV
Two Electron Energy:       1067.51961313645802 Eh           29048.68548 eV

Virial components:
Potential Energy   :      -1366.92677882379121 Eh          -37195.96866 eV
Kinetic Energy     :        681.10006392821867 Eh           18533.67497 eV
Virial Ratio       :          2.00693973061769

DFT components:
N(Alpha)           :       48.000116937850 electrons
N(Beta)            :       48.000116937850 electrons
N(Total)           :       96.000233875700 electrons
E(X)               :      -84.603706462379 Eh       
E(C)               :       -3.280349617833 Eh       
E(XC)              :      -87.884056080212 Eh       

---------------
SCF CONVERGENCE
---------------

  Last Energy change         ...   -9.5339e-07  Tolerance :   1.0000e-05
  Last MAX-Density change    ...    1.0564e-03  Tolerance :   1.0000e-03
  Last RMS-Density change    ...    4.1496e-05  Tolerance :   1.0000e-04
  Last DIIS Error            ...    1.4881e-03  Tolerance :   5.0000e-04
  Last Orbital Gradient      ...    2.5482e-04  Tolerance :   1.0000e-04
  Last Orbital Rotation      ...    1.4242e-04  Tolerance :   1.0000e-04


----------------
ORBITAL ENERGIES
----------------

  NO   OCC          E(Eh)            E(eV) 
   0   2.0000     -18.770983      -510.7844 
   1   2.0000     -18.768555      -510.7183 
   2   2.0000     -18.760520      -510.4997 
   3   2.0000     -18.751753      -510.2611 
   4   2.0000     -18.750883      -510.2375 
   5   2.0000     -18.744697      -510.0691 
   6   2.0000      -9.987885      -271.7842 
   7   2.0000      -9.945388      -270.6278 
   8   2.0000      -9.944352      -270.5996 
   9   2.0000      -9.943574      -270.5784 
  10   2.0000      -9.941790      -270.5299 
  11   2.0000      -9.928471      -270.1674 
  12   2.0000      -0.987765       -26.8785 
  13   2.0000      -0.949060       -25.8252 
  14   2.0000      -0.934555       -25.4305 
  15   2.0000      -0.922174       -25.0936 
  16   2.0000      -0.917721       -24.9724 
  17   2.0000      -0.913482       -24.8571 
  18   2.0000      -0.705022       -19.1846 
  19   2.0000      -0.694003       -18.8848 
  20   2.0000      -0.615918       -16.7600 
  21   2.0000      -0.584470       -15.9042 
  22   2.0000      -0.557092       -15.1592 
  23   2.0000      -0.533610       -14.5203 
  24   2.0000      -0.508852       -13.8466 
  25   2.0000      -0.489830       -13.3290 
  26   2.0000      -0.472101       -12.8465 
  27   2.0000      -0.463415       -12.6102 
  28   2.0000      -0.439423       -11.9573 
  29   2.0000      -0.437487       -11.9046 
  30   2.0000      -0.416161       -11.3243 
  31   2.0000      -0.407998       -11.1022 
  32   2.0000      -0.386030       -10.5044 
  33   2.0000      -0.377065       -10.2605 
  34   2.0000      -0.360427        -9.8077 
  35   2.0000      -0.349946        -9.5225 
  36   2.0000      -0.322416        -8.7734 
  37   2.0000      -0.319819        -8.7027 
  38   2.0000      -0.302465        -8.2305 
  39   2.0000      -0.297406        -8.0928 
  40   2.0000      -0.281562        -7.6617 
  41   2.0000      -0.269924        -7.3450 
  42   2.0000      -0.255083        -6.9412 
  43   2.0000      -0.239597        -6.5198 
  44   2.0000      -0.236589        -6.4379 
  45   2.0000      -0.218596        -5.9483 
  46   2.0000      -0.211066        -5.7434 
  47   2.0000      -0.206816        -5.6277 
  48   0.0000       0.014912         0.4058 
  49   0.0000       0.025810         0.7023 
  50   0.0000       0.031235         0.8500 
  51   0.0000       0.048658         1.3240 
  52   0.0000       0.058796         1.5999 
  53   0.0000       0.064135         1.7452 
  54   0.0000       0.069451         1.8899 
  55   0.0000       0.097097         2.6422 
  56   0.0000       0.105436         2.8691 
  57   0.0000       0.115674         3.1476 
  58   0.0000       0.117966         3.2100 
*Only the first 10 virtual orbitals were printed.

                    ********************************
                    * MULLIKEN POPULATION ANALYSIS *
                    ********************************

-----------------------
MULLIKEN ATOMIC CHARGES
-----------------------
   0 C :    0.074824
   1 C :    0.019277
   2 H :    0.062623
   3 C :    0.052981
   4 H :    0.036438
   5 C :    0.069065
   6 H :    0.070070
   7 C :    0.033621
   8 H :    0.042237
   9 C :    0.170955
  10 H :    0.042886
  11 O :   -0.304317
  12 O :   -0.391397
  13 O :   -0.406508
  14 O :   -0.410854
  15 O :   -0.414494
  16 O :   -0.433794
  17 H :    0.065280
  18 H :    0.090589
  19 H :    0.314299
  20 H :    0.308190
  21 H :    0.303138
  22 H :    0.305333
  23 H :    0.299559
Sum of atomic charges:    0.0000000

--------------------------------
MULLIKEN REDUCED ORBITAL CHARGES
--------------------------------
  0 C s       :     2.992290  s :     2.992290
      pz      :     0.966265  p :     2.870522
      px      :     1.009426
      py      :     0.894831
      dz2     :     0.016519  d :     0.062364
      dxz     :     0.008406
      dyz     :     0.011750
      dx2y2   :     0.011817
      dxy     :     0.013873

  1 C s       :     3.068873  s :     3.068873
      pz      :     1.042055  p :     2.845047
      px      :     0.963245
      py      :     0.839747
      dz2     :     0.016164  d :     0.066804
      dxz     :     0.008800
      dyz     :     0.009629
      dx2y2   :     0.014939
      dxy     :     0.017272

  2 H s       :     0.937377  s :     0.937377

  3 C s       :     3.049435  s :     3.049435
      pz      :     1.022084  p :     2.829184
      px      :     0.911224
      py      :     0.895877
      dz2     :     0.017593  d :     0.068399
      dxz     :     0.009356
      dyz     :     0.010780
      dx2y2   :     0.014448
      dxy     :     0.016222

  4 H s       :     0.963562  s :     0.963562

  5 C s       :     3.040935  s :     3.040935
      pz      :     1.045939  p :     2.821848
      px      :     0.932808
      py      :     0.843101
      dz2     :     0.016455  d :     0.068152
      dxz     :     0.006374
      dyz     :     0.011289
      dx2y2   :     0.015929
      dxy     :     0.018106

  6 H s       :     0.929930  s :     0.929930

  7 C s       :     3.047991  s :     3.047991
      pz      :     0.996876  p :     2.850552
      px      :     0.838699
      py      :     1.014978
      dz2     :     0.018463  d :     0.067836
      dxz     :     0.014331
      dyz     :     0.005696
      dx2y2   :     0.013150
      dxy     :     0.016196

  8 H s       :     0.957763  s :     0.957763

  9 C s       :     3.046562  s :     3.046562
      pz      :     0.993323  p :     2.681307
      px      :     0.773797
      py      :     0.914187
      dz2     :     0.023403  d :     0.101176
      dxz     :     0.018160
      dyz     :     0.012326
      dx2y2   :     0.022355
      dxy     :     0.024933

 10 H s       :     0.957114  s :     0.957114

 11 O s       :     3.761903  s :     3.761903
      pz      :     1.713823  p :     4.526961
      px      :     1.235223
      py      :     1.577915
      dz2     :     0.002120  d :     0.015453
      dxz     :     0.003554
      dyz     :     0.002435
      dx2y2   :     0.003563
      dxy     :     0.003780

 12 O s       :     3.759873  s :     3.759873
      pz      :     1.826111  p :     4.616322
      px      :     1.598687
      py      :     1.191524
      dz2     :     0.002666  d :     0.015202
      dxz     :     0.002236
      dyz     :     0.001496
      dx2y2   :     0.002079
      dxy     :     0.006725

 13 O s       :     3.779618  s :     3.779618
      pz      :     1.771198  p :     4.611305
      px      :     1.296740
      py      :     1.543368
      dz2     :     0.002652  d :     0.015585
      dxz     :     0.002697
      dyz     :     0.001903
      dx2y2   :     0.002680
      dxy     :     0.005653

 14 O s       :     3.784562  s :     3.784562
      pz      :     1.349910  p :     4.610917
      px      :     1.770733
      py      :     1.490274
      dz2     :     0.005796  d :     0.015375
      dxz     :     0.001870
      dyz     :     0.002285
      dx2y2   :     0.003039
      dxy     :     0.002385

 15 O s       :     3.779908  s :     3.779908
      pz      :     1.845607  p :     4.619295
      px      :     1.570768
      py      :     1.202919
      dz2     :     0.002677  d :     0.015292
      dxz     :     0.002167
      dyz     :     0.001100
      dx2y2   :     0.002516
      dxy     :     0.006832

 16 O s       :     3.787833  s :     3.787833
      pz      :     1.653611  p :     4.630509
      px      :     1.371914
      py      :     1.604983
      dz2     :     0.002299  d :     0.015452
      dxz     :     0.003995
      dyz     :     0.003524
      dx2y2   :     0.004223
      dxy     :     0.001411

 17 H s       :     0.934720  s :     0.934720

 18 H s       :     0.909411  s :     0.909411

 19 H s       :     0.685701  s :     0.685701

 20 H s       :     0.691810  s :     0.691810

 21 H s       :     0.696862  s :     0.696862

 22 H s       :     0.694667  s :     0.694667

 23 H s       :     0.700441  s :     0.700441


------------------------
MULLIKEN OVERLAP CHARGES
------------------------
B(  0-C ,  1-C ) :   0.4722 B(  0-C ,  2-H ) :  -0.0958 B(  0-C ,  3-C ) :   0.0766 
B(  0-C ,  4-H ) :  -0.0569 B(  0-C , 11-O ) :  -0.0817 B(  0-C , 16-O ) :   0.7274 
B(  0-C , 17-H ) :   0.6430 B(  0-C , 18-H ) :   0.7185 B(  0-C , 23-H ) :  -0.0630 
B(  1-C ,  2-H ) :   0.6150 B(  1-C ,  3-C ) :  -0.0699 B(  1-C ,  9-C ) :  -0.1006 
B(  1-C , 11-O ) :   0.5487 B(  1-C , 15-O ) :  -0.0979 B(  1-C , 16-O ) :  -0.1392 
B(  1-C , 18-H ) :  -0.0939 B(  2-H ,  3-C ) :  -0.0513 B(  2-H , 11-O ) :  -0.0705 
B(  3-C ,  4-H ) :   0.5460 B(  3-C ,  5-C ) :   0.2919 B(  3-C ,  6-H ) :  -0.0585 
B(  3-C , 11-O ) :  -0.0521 B(  3-C , 14-O ) :  -0.1216 B(  3-C , 15-O ) :   0.6119 
B(  3-C , 22-H ) :  -0.1010 B(  4-H ,  5-C ) :  -0.0742 B(  4-H , 15-O ) :  -0.0779 
B(  5-C ,  6-H ) :   0.5750 B(  5-C ,  8-H ) :  -0.0569 B(  5-C , 13-O ) :  -0.1154 
B(  5-C , 14-O ) :   0.6469 B(  5-C , 15-O ) :  -0.0592 B(  5-C , 21-H ) :  -0.1088 
B(  6-H , 14-O ) :  -0.0789 B(  7-C ,  8-H ) :   0.5116 B(  7-C ,  9-C ) :   0.2492 
B(  7-C , 10-H ) :  -0.1679 B(  7-C , 11-O ) :  -0.0704 B(  7-C , 12-O ) :  -0.1345 
B(  7-C , 13-O ) :   0.6117 B(  7-C , 20-H ) :  -0.1042 B(  8-H , 13-O ) :  -0.0722 
B(  9-C , 10-H ) :   0.7307 B(  9-C , 11-O ) :   0.5674 B(  9-C , 12-O ) :   0.7343 
B(  9-C , 19-H ) :  -0.0589 B( 10-H , 11-O ) :  -0.0978 B( 10-H , 12-O ) :  -0.0899 
B( 11-O , 12-O ) :  -0.1170 B( 12-O , 19-H ) :   0.5232 B( 13-O , 20-H ) :   0.5347 
B( 14-O , 21-H ) :   0.5369 B( 14-O , 22-H ) :   0.0602 B( 15-O , 22-H ) :   0.5163 
B( 16-O , 17-H ) :  -0.0647 B( 16-O , 18-H ) :  -0.0642 B( 16-O , 23-H ) :   0.5156 
B( 17-H , 18-H ) :  -0.0841 


                     *******************************
                     * LOEWDIN POPULATION ANALYSIS *
                     *******************************

----------------------
LOEWDIN ATOMIC CHARGES
----------------------
   0 C :   -0.125877
   1 C :   -0.055857
   2 H :    0.111971
   3 C :   -0.076249
   4 H :    0.094086
   5 C :   -0.076322
   6 H :    0.121734
   7 C :   -0.089700
   8 H :    0.098830
   9 C :   -0.004266
  10 H :    0.083444
  11 O :   -0.146843
  12 O :   -0.303309
  13 O :   -0.314812
  14 O :   -0.305917
  15 O :   -0.319659
  16 O :   -0.344267
  17 H :    0.100635
  18 H :    0.108834
  19 H :    0.295331
  20 H :    0.289125
  21 H :    0.288259
  22 H :    0.284625
  23 H :    0.286203

-------------------------------
LOEWDIN REDUCED ORBITAL CHARGES
-------------------------------
  0 C s       :     2.919311  s :     2.919311
      pz      :     1.031958  p :     3.064305
      px      :     1.050347
      py      :     0.982000
      dz2     :     0.037881  d :     0.142261
      dxz     :     0.018791
      dyz     :     0.026100
      dx2y2   :     0.027861
      dxy     :     0.031628

  1 C s       :     2.896803  s :     2.896803
      pz      :     1.089566  p :     3.004485
      px      :     0.977010
      py      :     0.937910
      dz2     :     0.037853  d :     0.154569
      dxz     :     0.019606
      dyz     :     0.021653
      dx2y2   :     0.036099
      dxy     :     0.039357

  2 H s       :     0.888029  s :     0.888029

  3 C s       :     2.895367  s :     2.895367
      pz      :     1.074857  p :     3.020887
      px      :     0.989588
      py      :     0.956441
      dz2     :     0.041133  d :     0.159996
      dxz     :     0.020854
      dyz     :     0.025066
      dx2y2   :     0.034950
      dxy     :     0.037993

  4 H s       :     0.905914  s :     0.905914

  5 C s       :     2.890541  s :     2.890541
      pz      :     1.077814  p :     3.026253
      px      :     1.031054
      py      :     0.917385
      dz2     :     0.038642  d :     0.159527
      dxz     :     0.013556
      dyz     :     0.023854
      dx2y2   :     0.039056
      dxy     :     0.044419

  6 H s       :     0.878266  s :     0.878266

  7 C s       :     2.901723  s :     2.901723
      pz      :     1.054354  p :     3.028285
      px      :     0.908579
      py      :     1.065352
      dz2     :     0.043677  d :     0.159692
      dxz     :     0.032831
      dyz     :     0.011719
      dx2y2   :     0.029853
      dxy     :     0.041611

  8 H s       :     0.901170  s :     0.901170

  9 C s       :     2.890080  s :     2.890080
      pz      :     1.059825  p :     2.886294
      px      :     0.860402
      py      :     0.966067
      dz2     :     0.055425  d :     0.227892
      dxz     :     0.040141
      dyz     :     0.026217
      dx2y2   :     0.048820
      dxy     :     0.057289

 10 H s       :     0.916556  s :     0.916556

 11 O s       :     3.473919  s :     3.473919
      pz      :     1.750586  p :     4.642910
      px      :     1.294111
      py      :     1.598213
      dz2     :     0.003491  d :     0.030014
      dxz     :     0.007044
      dyz     :     0.003475
      dx2y2   :     0.007824
      dxy     :     0.008180

 12 O s       :     3.521308  s :     3.521308
      pz      :     1.845429  p :     4.754977
      px      :     1.644761
      py      :     1.264786
      dz2     :     0.004205  d :     0.027025
      dxz     :     0.002990
      dyz     :     0.003064
      dx2y2   :     0.004059
      dxy     :     0.012707

 13 O s       :     3.533819  s :     3.533819
      pz      :     1.806530  p :     4.753610
      px      :     1.355792
      py      :     1.591288
      dz2     :     0.004049  d :     0.027383
      dxz     :     0.005249
      dyz     :     0.002405
      dx2y2   :     0.005406
      dxy     :     0.010274

 14 O s       :     3.532916  s :     3.532916
      pz      :     1.423069  p :     4.746038
      px      :     1.774394
      py      :     1.548575
      dz2     :     0.010203  d :     0.026963
      dxz     :     0.003455
      dyz     :     0.004151
      dx2y2   :     0.005057
      dxy     :     0.004096

 15 O s       :     3.530870  s :     3.530870
      pz      :     1.865654  p :     4.761873
      px      :     1.622388
      py      :     1.273831
      dz2     :     0.004144  d :     0.026916
      dxz     :     0.002883
      dyz     :     0.002257
      dx2y2   :     0.004879
      dxy     :     0.012753

 16 O s       :     3.543622  s :     3.543622
      pz      :     1.702978  p :     4.773780
      px      :     1.431318
      py      :     1.639484
      dz2     :     0.003395  d :     0.026865
      dxz     :     0.006554
      dyz     :     0.006135
      dx2y2   :     0.007534
      dxy     :     0.003247

 17 H s       :     0.899365  s :     0.899365

 18 H s       :     0.891166  s :     0.891166

 19 H s       :     0.704669  s :     0.704669

 20 H s       :     0.710875  s :     0.710875

 21 H s       :     0.711741  s :     0.711741

 22 H s       :     0.715375  s :     0.715375

 23 H s       :     0.713797  s :     0.713797


---------------------------------
LOEWDIN BOND ORDERS (THRESH 0.050000)
---------------------------------
B(  0-C ,  1-C ) :   1.0694 B(  0-C ,  3-C ) :   0.0583 B(  0-C , 11-O ) :   0.0550 
B(  0-C , 16-O ) :   1.2377 B(  0-C , 17-H ) :   0.9041 B(  0-C , 18-H ) :   0.8993 
B(  1-C ,  2-H ) :   0.8605 B(  1-C ,  3-C ) :   1.0133 B(  1-C ,  5-C ) :   0.0585 
B(  1-C ,  9-C ) :   0.0724 B(  1-C , 11-O ) :   1.1285 B(  1-C , 15-O ) :   0.0629 
B(  1-C , 16-O ) :   0.0648 B(  3-C ,  4-H ) :   0.8645 B(  3-C ,  5-C ) :   1.0180 
B(  3-C ,  7-C ) :   0.0603 B(  3-C , 11-O ) :   0.0692 B(  3-C , 14-O ) :   0.0837 
B(  3-C , 15-O ) :   1.2257 B(  5-C ,  6-H ) :   0.8637 B(  5-C ,  7-C ) :   1.0274 
B(  5-C ,  9-C ) :   0.0584 B(  5-C , 13-O ) :   0.0610 B(  5-C , 14-O ) :   1.2225 
B(  5-C , 15-O ) :   0.0742 B(  7-C ,  8-H ) :   0.8618 B(  7-C ,  9-C ) :   1.0063 
B(  7-C , 11-O ) :   0.0701 B(  7-C , 12-O ) :   0.0659 B(  7-C , 13-O ) :   1.2355 
B(  7-C , 14-O ) :   0.0699 B(  9-C , 10-H ) :   0.8673 B(  9-C , 11-O ) :   1.1696 
B(  9-C , 12-O ) :   1.2850 B(  9-C , 13-O ) :   0.0869 B( 11-O , 12-O ) :   0.0746 
B( 12-O , 19-H ) :   0.8671 B( 13-O , 20-H ) :   0.8750 B( 14-O , 21-H ) :   0.8806 
B( 15-O , 22-H ) :   0.8642 B( 16-O , 23-H ) :   0.8881 

------------------------------------------
LOEWDIN REDUCED ORBITAL POPULATIONS PER MO
-------------------------------------------
THRESHOLD FOR PRINTING IS 0.1%%
                      0         1         2         3         4         5   
                 -18.77098 -18.76855 -18.76052 -18.75175 -18.75088 -18.74470
                   2.00000   2.00000   2.00000   2.00000   2.00000   2.00000
                  --------  --------  --------  --------  --------  --------
11 O  s              99.9       0.0       0.0       0.0       0.0       0.0
12 O  s               0.0      99.9       0.0       0.0       0.0       0.0
13 O  s               0.0       0.0       0.0      99.9       0.0       0.0
14 O  s               0.0       0.0      99.9       0.0       0.0       0.0
15 O  s               0.0       0.0       0.0       0.0      99.9       0.0
16 O  s               0.0       0.0       0.0       0.0       0.0      99.9

                      6         7         8         9        10        11   
                  -9.98788  -9.94539  -9.94435  -9.94357  -9.94179  -9.92847
                   2.00000   2.00000   2.00000   2.00000   2.00000   2.00000
                  --------  --------  --------  --------  --------  --------
 0 C  s               0.0       0.0       0.0       0.0       0.0      99.6
 1 C  s               0.0       0.0       0.0      99.5       0.0       0.0
 3 C  s               0.0       0.0       0.0       0.0      99.5       0.0
 5 C  s               0.0      99.5       0.0       0.0       0.0       0.0
 7 C  s               0.0       0.0      99.5       0.0       0.0       0.0
 9 C  s              99.6       0.0       0.0       0.0       0.0       0.0

                     12        13        14        15        16        17   
                  -0.98776  -0.94906  -0.93456  -0.92217  -0.91772  -0.91348
                   2.00000   2.00000   2.00000   2.00000   2.00000   2.00000
                  --------  --------  --------  --------  --------  --------
 0 C  s               0.4       0.0       1.9       4.9       0.0       3.7
 0 C  pz              0.1       0.0       0.4       1.2       0.0       1.1
 0 C  px              0.4       0.0       0.1       0.3       0.0       2.0
 0 C  py              0.0       0.0       0.3       2.1       0.0       2.3
 0 C  dyz             0.0       0.0       0.0       0.2       0.0       0.2
 0 C  dxy             0.0       0.0       0.0       0.1       0.0       0.1
 1 C  s               4.1       0.1       3.9       1.2       0.0       1.0
 1 C  pz              0.3       0.0       0.3       0.0       0.0       0.1
 1 C  px              1.9       0.0       0.3       0.1       0.1       2.8
 1 C  py              1.4       0.7       0.3       1.3       0.9       0.5
 1 C  dxy             0.2       0.0       0.1       0.0       0.0       0.2
 2 H  s               0.5       0.0       0.5       0.2       0.0       0.1
 3 C  s               0.8       4.6       2.9       0.6       3.1       0.0
 3 C  pz              0.1       0.3       0.2       0.0       0.2       0.0
 3 C  px              0.0       0.1       1.0       0.3       3.1       0.0
 3 C  py              0.3       2.1       0.2       1.6       2.0       0.5
 3 C  dxy             0.0       0.1       0.1       0.1       0.3       0.0
 4 H  s               0.1       0.6       0.4       0.0       0.3       0.0
 5 C  s               0.7       9.5       0.1       0.0       1.3       0.0
 5 C  pz              0.1       1.3       0.0       0.0       0.4       0.0
 5 C  px              0.0       0.2       1.7       0.5       1.0       0.0
 5 C  py              0.1       3.3       0.0       0.4       3.1       0.4
 5 C  dyz             0.0       0.2       0.0       0.0       0.1       0.0
 5 C  dx2y2           0.0       0.1       0.0       0.0       0.2       0.0
 5 C  dxy             0.0       0.1       0.0       0.0       0.1       0.0
 6 H  s               0.1       1.3       0.0       0.0       0.1       0.0
 7 C  s               2.5       2.1       4.2       1.9       1.0       0.4
 7 C  pz              0.2       0.1       0.7       0.4       0.3       0.1
 7 C  px              0.1       0.2       4.0       1.7       2.3       0.1
 7 C  py              1.0       1.5       0.0       0.1       0.1       0.0
 7 C  dxz             0.0       0.0       0.2       0.1       0.1       0.0
 7 C  dx2y2           0.0       0.0       0.1       0.1       0.1       0.0
 8 H  s               0.4       0.3       0.5       0.2       0.1       0.0
 9 C  s              15.9       0.3       0.2       0.2       0.0       0.0
 9 C  pz              1.7       0.0       0.0       0.0       0.0       0.0
 9 C  px              0.5       0.0       5.5       1.3       0.6       4.7
 9 C  py              1.8       1.0       0.2       2.4       0.1       2.2
 9 C  dz2             0.2       0.0       0.0       0.0       0.0       0.0
 9 C  dxz             0.0       0.0       0.1       0.0       0.0       0.2
 9 C  dx2y2           0.1       0.0       0.2       0.1       0.0       0.2
 9 C  dxy             0.1       0.0       0.1       0.2       0.0       0.2
10 H  s               1.8       0.0       0.0       0.0       0.0       0.0
11 O  s              26.8       0.5       9.4       2.9       1.3      12.4
11 O  pz              0.6       0.0       0.1       0.0       0.0       0.2
11 O  px              0.8       0.1       0.2       0.2       0.0       0.0
11 O  py              0.6       0.0       0.6       0.3       0.0       0.6
12 O  s              22.3       2.3       7.4      11.7       0.0      15.8
12 O  pz              0.3       0.0       0.1       0.1       0.0       0.1
12 O  px              1.8       0.1       0.2       0.4       0.0       0.4
12 O  py              0.2       0.0       0.0       0.0       0.0       0.1
13 O  s               1.6       4.6      23.3      13.7      12.1       2.8
13 O  pz              0.0       0.1       0.4       0.2       0.2       0.0
13 O  px              0.1       0.1       0.2       0.1       0.0       0.0
13 O  py              0.1       0.1       0.9       0.5       0.5       0.1
14 O  s               0.4      34.6       0.4       0.2      22.3       0.8
14 O  pz              0.0       0.3       0.0       0.0       0.4       0.0
14 O  py              0.0       1.9       0.0       0.0       0.8       0.0
15 O  s               0.3      12.4      10.4       7.1      27.4       0.3
15 O  pz              0.0       0.1       0.1       0.0       0.1       0.0
15 O  px              0.0       0.9       0.6       0.4       1.3       0.0
16 O  s               0.2       0.0       4.8      24.1       0.1      30.0
16 O  pz              0.0       0.0       0.2       1.0       0.0       1.1
16 O  px              0.0       0.0       0.0       0.2       0.0       0.3
16 O  py              0.0       0.0       0.1       0.3       0.0       0.3
17 H  s               0.1       0.0       0.3       0.6       0.0       0.3
18 H  s               0.1       0.0       0.3       0.4       0.1       0.4
19 H  s               4.6       0.5       1.3       2.3       0.0       3.0
20 H  s               0.5       0.8       4.8       2.5       2.5       0.5
21 H  s               0.1       6.9       0.1       0.0       4.5       0.1
22 H  s               0.1       3.1       2.0       1.5       4.8       0.1
23 H  s               0.0       0.0       1.0       4.9       0.0       6.3

                     18        19        20        21        22        23   
                  -0.70502  -0.69400  -0.61592  -0.58447  -0.55709  -0.53361
                   2.00000   2.00000   2.00000   2.00000   2.00000   2.00000
                  --------  --------  --------  --------  --------  --------
 0 C  s               2.4       6.7      11.5       1.9       5.3       3.6
 0 C  pz              0.0       0.0       0.1       0.0       0.2       2.9
 0 C  px              1.1       3.1       0.3       0.0       0.6       1.7
 0 C  py              0.7       0.8       0.7       0.2       0.1       0.2
 1 C  s               7.2      12.3       0.6       0.2       1.5       6.4
 1 C  pz              0.2       0.4       0.0       0.0       0.0       6.8
 1 C  px              0.1       2.0       6.4       0.7       2.2       0.7
 1 C  py              3.8       0.1       0.3       7.3       0.1       0.4
 1 C  dyz             0.0       0.0       0.0       0.1       0.0       0.0
 1 C  dx2y2           0.0       0.0       0.1       0.0       0.1       0.0
 1 C  dxy             0.2       0.0       0.0       0.1       0.0       0.0
 2 H  s               1.5       1.9       0.2       0.1       0.2       6.4
 3 C  s              11.8       0.5       3.8       8.7       0.0       2.2
 3 C  pz              0.2       0.0       0.0       0.4       0.3       5.3
 3 C  px              1.9       2.2       2.8       1.0       0.8       0.0
 3 C  py              3.3       1.9       0.1       0.8       1.6       0.6
 3 C  dxy             0.1       0.0       0.0       0.0       0.0       0.0
 4 H  s               2.4       0.1       0.8       2.9       0.1       3.6
 5 C  s              11.7       3.3       4.0       4.1       4.0       0.1
 5 C  pz              0.0       0.0       0.1       1.0       2.3       4.0
 5 C  px              1.0       0.4       2.6       4.6       1.4       0.0
 5 C  py              4.4       2.0       0.3       0.0       4.6       0.6
 6 H  s               2.4       0.7       1.3       1.9       3.1       1.4
 7 C  s               5.5       9.1       3.8       2.4       5.8       0.7
 7 C  pz              0.0       0.0       0.0       0.0       1.9       3.7
 7 C  px              3.0       3.4       0.0       0.0       0.2       0.0
 7 C  py              0.7       0.3       3.9       5.8       0.0       0.8
 8 H  s               1.1       1.8       1.2       0.4       3.6       1.9
 9 C  s               0.1       8.2       6.6       4.1       2.3       1.1
 9 C  pz              0.0       0.1       0.0       0.2       0.7       5.9
 9 C  px              1.7       0.1       2.1       0.1       1.1       2.8
 9 C  py              2.1       2.8       1.4       0.1       2.1       0.3
 9 C  dxz             0.1       0.0       0.1       0.0       0.0       0.1
 9 C  dx2y2           0.2       0.0       0.0       0.0       0.0       0.0
 9 C  dxy             0.0       0.1       0.0       0.0       0.0       0.1
10 H  s               0.0       1.4       1.7       1.2       1.1       3.2
11 O  s               4.9       0.0       1.3       1.0       0.0       1.7
11 O  pz              0.1       0.1       0.0       0.1       0.2       2.4
11 O  px              1.0       8.4       0.3       3.7       5.7       5.5
11 O  py              0.9       0.5       0.0       0.1       2.5       2.4
12 O  s               0.2       2.2       0.8       0.7       0.7       0.1
12 O  pz              0.0       0.0       0.2       0.2       0.3       1.0
12 O  px              0.1       0.2       0.0       0.1       0.8       0.5
12 O  py              0.0       3.1       8.2       6.7       2.3       2.8
13 O  s               1.5       2.5       1.4       0.1       0.6       0.0
13 O  pz              0.0       0.1       0.1       0.2       0.9       0.4
13 O  px              1.3       2.1       1.8       3.7       5.0       0.0
13 O  py              0.2       0.2       0.0       1.7       0.6       0.2
14 O  s               2.8       1.0       0.7       0.7       0.0       0.3
14 O  pz              1.1       0.4       1.8       3.9       9.0       1.5
14 O  px              0.4       0.1       1.0       0.3       3.3       0.1
14 O  py              1.0       0.4       0.9       1.9       1.7       0.0
15 O  s               3.8       0.2       0.8       1.1       0.4       0.1
15 O  pz              0.0       0.0       0.0       0.3       0.0       0.9
15 O  px              0.2       0.0       0.5       0.2       0.2       0.1
15 O  py              2.9       0.5       0.6       8.8       0.0       2.2
15 O  dxy             0.1       0.0       0.0       0.1       0.0       0.0
16 O  s               0.4       1.7       1.7       0.4       0.6       0.4
16 O  pz              0.0       0.1       0.3       0.1       0.4       0.7
16 O  px              0.4       1.5       3.3       1.5       2.0       0.2
16 O  py              0.2       0.7       2.6       0.8       2.3       0.8
17 H  s               0.4       1.5       2.8       0.7       1.6       2.8
18 H  s               0.5       1.3       3.3       0.2       2.1       2.3
19 H  s               0.0       1.5       2.7       2.3       0.8       0.8
20 H  s               0.8       1.4       0.8       1.6       1.9       0.0
21 H  s               1.3       0.4       1.3       1.9       4.1       0.3
22 H  s               2.0       0.3       0.3       2.9       0.0       0.8
23 H  s               0.3       1.1       2.3       0.9       1.4       0.3

                     24        25        26        27        28        29   
                  -0.50885  -0.48983  -0.47210  -0.46342  -0.43942  -0.43749
                   2.00000   2.00000   2.00000   2.00000   2.00000   2.00000
                  --------  --------  --------  --------  --------  --------
 0 C  s               0.0       0.4       0.8       0.5       0.0       0.1
 0 C  pz              0.7       0.2      13.1       3.7       0.4       0.3
 0 C  px              0.5       0.4       0.1       0.4       0.2       0.4
 0 C  py              1.0       0.5       0.4       8.3       2.2       0.7
 0 C  dyz             0.0       0.0       0.1       0.3       0.0       0.0
 1 C  s               0.1       0.0       0.5       0.9       1.8       0.4
 1 C  pz              4.5       0.7       8.4       0.0       0.8       0.2
 1 C  px              0.4       0.5       1.1       0.1       0.6       0.4
 1 C  py              3.1       0.0       0.3       3.9       1.9       0.1
 1 C  dxy             0.0       0.1       0.0       0.0       0.1       0.0
 2 H  s               1.8       0.1       3.9       0.4       2.0       0.5
 3 C  s               0.1       0.0       0.1       1.9       0.3       0.0
 3 C  pz              2.3       0.0       3.0       4.3       1.4       8.0
 3 C  px              3.1       8.8       0.1       1.0       3.0       0.6
 3 C  py              0.0       0.5       0.3       3.4       3.5       0.0
 3 C  dxy             0.0       0.0       0.0       0.0       0.3       0.0
 4 H  s               0.9       0.0       1.4       3.4       1.5       2.8
 5 C  s               0.1       0.1       0.0       0.0       0.0       1.3
 5 C  pz              1.4       1.2       0.3       1.3       2.1       8.2
 5 C  px              1.2       3.1       0.0       0.7       0.0       1.3
 5 C  py              1.1       5.2       0.3       0.1       0.2       5.8
 5 C  dz2             0.0       0.0       0.0       0.0       0.0       0.1
 5 C  dx2y2           0.0       0.0       0.0       0.1       0.1       0.3
 6 H  s               0.2       0.1       0.1       0.5       0.5       5.4
 7 C  s               0.0       0.1       0.4       0.1       0.7       0.6
 7 C  pz              3.3       0.3       9.4       1.9       0.1       4.0
 7 C  px              0.1       6.5       0.1       1.3       1.8       0.3
 7 C  py              2.7       0.4       0.1       0.6       6.2       1.1
 7 C  dxz             0.0       0.1       0.0       0.1       0.1       0.0
 8 H  s               1.0       0.0       4.3       0.9       0.2       3.0
 9 C  s               0.4       0.1       0.7       0.1       0.1       1.0
 9 C  pz              4.5       0.7      10.2       5.3       0.2       4.9
 9 C  px              9.0       1.2       0.3       0.4       0.7       0.8
 9 C  py              0.1       2.8       0.4       0.9      11.1       0.9
 9 C  dxz             0.1       0.0       0.0       0.0       0.0       0.0
 9 C  dyz             0.0       0.1       0.0       0.0       0.1       0.1
 9 C  dxy             0.2       0.0       0.0       0.0       0.1       0.1
10 H  s               2.4       0.6       4.9       2.0       0.3       4.1
11 O  s               0.4       1.3       0.0       0.1       0.1       0.9
11 O  pz              3.4       0.7       0.0       0.5       0.2       2.8
11 O  px              7.8       0.6       2.6       2.8       2.7       0.1
11 O  py              0.9       1.1       0.9       0.7       1.6       0.3
12 O  s               0.5       0.0       0.0       0.0       0.3       0.5
12 O  pz              0.1       0.0       1.9       1.6       0.4       0.5
12 O  px              1.5       0.1       0.1       0.0       3.8       0.0
12 O  py             15.0       6.2       0.6       0.3       5.4       6.1
13 O  s               0.3       0.0       0.1       0.1       1.0       0.3
13 O  pz              0.1       0.5       1.0       0.0       0.2       1.0
13 O  px              3.1      11.0       1.7       4.6       1.8       0.2
13 O  py              2.4       2.8       0.3       1.2       5.4       0.8
14 O  s               0.0       0.2       0.0       0.3       0.5       0.1
14 O  pz              1.0       7.2       0.3       1.6       0.8       9.2
14 O  px              1.8       0.2       0.1       0.0       0.0       4.3
14 O  py              0.5       1.0       0.3       0.0       0.4       4.0
14 O  dz2             0.0       0.0       0.0       0.0       0.0       0.1
15 O  s               0.1       0.0       0.0       0.4       0.4       0.0
15 O  pz              0.1       0.2       0.3       1.5       0.1       1.4
15 O  px              0.3       0.1       0.0       1.8       0.0       0.1
15 O  py              4.7      13.8       1.8       0.6      18.2       0.4
15 O  dxy             0.0       0.1       0.0       0.0       0.1       0.0
16 O  s               0.0       0.0       0.6       0.6       0.0       0.0
16 O  pz              0.0       0.1       1.0       0.0       0.5       0.4
16 O  px              0.0       2.2       7.5      16.1       1.4       0.4
16 O  py              0.2       1.6       2.8       3.5       0.3       0.3
17 H  s               0.3       0.0       5.4       0.9       0.3       0.3
18 H  s               0.6       0.0       0.8       3.6       0.2       0.0
19 H  s               4.3       1.8       0.1       0.1       1.3       1.8
20 H  s               1.6       4.0       0.5       1.6       1.6       0.1
21 H  s               0.8       2.2       0.1       0.3       0.1       4.7
22 H  s               1.4       3.8       0.5       0.2       5.0       0.1
23 H  s               0.0       1.1       3.0       5.6       0.5       0.2

                     30        31        32        33        34        35   
                  -0.41616  -0.40800  -0.38603  -0.37707  -0.36043  -0.34995
                   2.00000   2.00000   2.00000   2.00000   2.00000   2.00000
                  --------  --------  --------  --------  --------  --------
 0 C  s               0.0       0.7       0.0       0.0       0.1       0.0
 0 C  pz              1.0       3.2       5.3       4.5       2.7       0.9
 0 C  px              0.3       2.9      19.2       4.4       1.7       0.6
 0 C  py              0.1       0.0      10.1      10.1       1.6       0.5
 0 C  dxz             0.0       0.0       0.0       0.1       0.1       0.0
 0 C  dx2y2           0.0       0.0       0.0       0.1       0.0       0.0
 0 C  dxy             0.0       0.1       0.2       0.1       0.0       0.0
 1 C  s               0.0       0.0       0.5       0.0       0.3       0.0
 1 C  pz              0.7       5.4       1.0       0.0       6.7       5.6
 1 C  px              0.6       0.7       2.8      13.6       0.7       0.2
 1 C  py              2.7       0.5       0.5       2.8       1.0       1.1
 1 C  dz2             0.0       0.0       0.0       0.0       0.2       0.1
 1 C  dxz             0.0       0.0       0.1       0.0       0.1       0.0
 1 C  dxy             0.1       0.0       0.4       0.0       0.0       0.0
 2 H  s               0.1       1.7       0.0       0.1       4.5       3.4
 3 C  s               0.6       0.1       0.0       0.0       0.1       0.1
 3 C  pz              0.5       6.0       1.0       1.3       0.5      11.0
 3 C  px              0.1       4.2       0.1       0.4       0.0       1.0
 3 C  py              2.4       5.2       0.4       5.0       3.3       0.7
 3 C  dz2             0.0       0.0       0.0       0.0       0.0       0.4
 3 C  dx2y2           0.2       0.0       0.0       0.1       0.0       0.0
 3 C  dxy             0.1       0.0       0.1       0.0       0.0       0.1
 4 H  s               0.9       2.0       0.2       0.5       0.0       8.0
 5 C  s               1.7       0.2       0.0       0.4       0.1       0.2
 5 C  pz              2.3       0.4       1.3       1.0       5.6      12.4
 5 C  px              2.1      12.6       0.4       1.2       0.7       1.2
 5 C  py              2.7       1.1       0.1       0.3       0.1       0.3
 5 C  dz2             0.0       0.0       0.0       0.1       0.1       0.3
 5 C  dyz             0.0       0.0       0.0       0.0       0.1       0.1
 5 C  dx2y2           0.1       0.1       0.0       0.0       0.0       0.0
 5 C  dxy             0.1       0.0       0.0       0.2       0.0       0.0
 6 H  s               0.0       0.2       0.5       1.4       3.6       8.1
 7 C  s               0.1       0.2       0.2       0.3       0.1       0.0
 7 C  pz              4.5       2.4       1.0       1.7       6.4       1.6
 7 C  px              2.1       6.8       0.1       0.4       2.3       0.1
 7 C  py              7.8       1.6       0.3       1.7       0.0       0.2
 7 C  dz2             0.0       0.0       0.0       0.0       0.2       0.1
 7 C  dxz             0.1       0.0       0.0       0.0       0.1       0.1
 7 C  dx2y2           0.1       0.2       0.0       0.0       0.1       0.0
 7 C  dxy             0.4       0.0       0.0       0.0       0.0       0.0
 8 H  s               1.8       1.9       1.0       0.2       5.2       1.6
 9 C  s               0.0       0.1       0.3       0.0       0.0       0.2
 9 C  pz              4.7       0.3       0.0       0.2       4.7       0.1
 9 C  px              0.2       0.0       0.4       0.4       0.2       0.5
 9 C  py              4.7       0.1       0.3       0.9       2.9       0.2
 9 C  dx2y2           0.0       0.1       0.1       0.1       0.0       0.1
 9 C  dxy             0.1       0.0       0.1       0.4       0.0       0.0
10 H  s               1.8       0.1       0.2       0.0       2.3       0.2
11 O  s               0.2       0.0       0.4       1.4       0.4       0.3
11 O  pz              1.5       2.5       0.6       1.5       1.2       6.4
11 O  px              4.1       0.6       1.1       0.8       1.7       0.0
11 O  py              2.9       0.2       2.9       9.5       0.2       0.0
12 O  s               0.1       0.0       1.9       0.2       1.2       0.5
12 O  pz              3.3       0.0       0.1       0.3       7.3       1.1
12 O  px              0.3       0.1       6.5       0.1       2.0       1.1
12 O  py              1.6       0.1       1.0       0.9       0.2       0.5
13 O  s               0.0       0.2       0.0       0.3       0.8       0.1
13 O  pz              0.0       4.0       0.5       0.4       5.9       0.7
13 O  px              9.3       4.3       0.0       0.2       0.1       1.0
13 O  py              0.0       0.1       0.1       2.8       0.7       0.1
13 O  dxy             0.1       0.1       0.0       0.0       0.0       0.0
14 O  s               2.7       0.0       0.2       0.1       0.5       0.4
14 O  pz              3.7       1.1       0.1       1.9       0.7       1.3
14 O  px              1.7       3.4       0.0       0.5       0.6       3.8
14 O  py              5.6       1.1       1.6       1.4       5.7       7.7
15 O  s               0.7       1.5       0.1       1.0       0.0       0.4
15 O  pz              0.0       0.6       0.5       1.3       1.3       9.1
15 O  px              0.3       7.9       0.7       2.2       0.7       0.1
15 O  py              4.3       0.2       0.2       0.1       0.3       0.3
16 O  s               0.2       1.3       0.4       0.2       0.2       0.3
16 O  pz              0.0       1.8       0.2       8.7       0.7       1.2
16 O  px              1.3       2.4       2.2       2.2       0.1       0.1
16 O  py              1.3       0.0       9.9       1.5       2.8       0.0
17 H  s               0.5       2.2       5.6       2.9       3.0       0.6
18 H  s               0.0       1.0      13.2       1.3       1.4       0.0
19 H  s               0.4       0.0       0.8       0.5       0.2       0.3
20 H  s               2.1       0.8       0.0       0.1       0.1       0.2
21 H  s               0.9       0.1       0.0       0.5       0.1       0.3
22 H  s               1.8       0.0       0.2       0.1       0.2       0.1
23 H  s               0.7       0.6       0.0       0.9       0.4       0.1

                     36        37        38        39        40        41   
                  -0.32242  -0.31982  -0.30246  -0.29741  -0.28156  -0.26992
                   2.00000   2.00000   2.00000   2.00000   2.00000   2.00000
                  --------  --------  --------  --------  --------  --------
 0 C  s               0.1       0.2       0.1       0.1       0.1       0.5
 0 C  pz              0.3       0.0       0.0       1.4       1.6       4.6
 0 C  px              0.0       3.2       0.1       0.1       0.4       5.3
 0 C  py              0.4       1.6       0.2       0.7       0.6       0.2
 0 C  dz2             0.0       0.0       0.0       0.1       0.1       0.3
 0 C  dx2y2           0.0       0.0       0.0       0.0       0.1       0.2
 0 C  dxy             0.0       0.0       0.0       0.3       0.1       0.3
 1 C  s               0.1       0.1       0.3       0.6       0.1       0.5
 1 C  pz              0.2       3.7       1.4       0.1       0.1       3.8
 1 C  px              0.1       0.8       0.4       0.6       1.2       4.1
 1 C  py              1.9       0.0       0.5       3.4       0.2       1.6
 1 C  dz2             0.0       0.1       0.0       0.0       0.0       0.3
 1 C  dx2y2           0.0       0.2       0.1       0.1       0.0       0.2
 2 H  s               0.3       3.0       0.8       0.1       0.0       4.2
 3 C  s               0.1       0.0       0.2       0.3       0.2       0.0
 3 C  pz              0.2       0.8       0.0       0.7       0.6       0.0
 3 C  px              0.2       0.0       1.0       2.6       0.1       0.2
 3 C  py              2.3       0.2       0.6       0.2       0.1       0.1
 3 C  dz2             0.1       0.0       0.0       0.0       0.1       0.1
 3 C  dx2y2           0.1       0.0       0.2       0.5       0.0       0.1
 3 C  dxy             0.1       0.0       0.0       0.0       0.1       0.0
 4 H  s               0.8       0.8       0.1       0.3       0.9       0.7
 5 C  s               0.5       0.0       0.1       0.3       0.0       0.6
 5 C  pz              0.1       0.1       2.4       0.0       2.6       0.5
 5 C  px              0.1       0.3       0.5       3.5       2.0       0.1
 5 C  py              0.3       0.2       1.8       0.0       4.4       1.9
 5 C  dz2             0.1       0.0       0.2       0.1       0.6       0.0
 5 C  dxy             0.1       0.0       0.0       0.0       0.0       0.2
 6 H  s               0.7       0.1       2.6       0.3       4.9       0.5
 7 C  s               0.2       0.5       0.2       0.0       0.7       0.1
 7 C  pz              0.7       2.2       0.1       0.0       1.8       0.5
[...]
 3 C  dxy             0.5       1.7       2.7       3.2       1.7       0.2
 5 C  s               0.0       0.9       0.0       0.1       1.2       0.0
 5 C  pz              0.0       0.2       0.0       0.0       0.3       0.0
 5 C  px              0.0       0.2       0.2       0.0       0.2       0.0
 5 C  py              0.0       2.1       0.2       0.1       1.2       0.0
 5 C  dz2             0.0       0.3       0.0       0.1       0.6       0.0
 5 C  dxz             0.0       0.3       0.2       0.0       0.3       0.0
 5 C  dyz             0.0       1.4       0.1       0.0       2.0       0.0
 5 C  dx2y2           0.1       3.7       0.0       0.8       0.7       0.1
 5 C  dxy             0.0       3.3       0.3       0.3       0.4       0.0
 7 C  s               0.0       0.1       0.9       0.2       1.0       0.1
 7 C  pz              0.0       0.0       0.4       0.0       0.3       0.1
 7 C  px              0.0       0.2       1.9       0.2       0.8       0.2
 7 C  py              0.0       0.4       0.1       0.2       0.0       0.0
 7 C  dz2             0.0       0.0       0.1       0.1       0.1       0.0
 7 C  dxz             0.0       0.1       2.3       0.2       2.3       0.5
 7 C  dyz             0.0       0.2       0.2       0.1       0.0       0.0
 7 C  dx2y2           0.0       0.9       3.6       1.7       1.1       0.0
 7 C  dxy             0.0       0.3       1.2       0.0       0.1       0.0
 9 C  s               0.1       0.4       0.1       1.0       0.3       0.4
 9 C  px              0.0       0.1       0.2       0.2       0.1       3.1
 9 C  py              0.1       0.3       0.1       0.7       0.1       0.4
 9 C  dz2             0.0       0.2       0.1       0.7       0.3       0.0
 9 C  dxz             0.0       0.5       0.0       0.3       0.4       2.8
 9 C  dyz             0.1       0.0       0.0       0.0       0.0       0.6
 9 C  dx2y2           0.0       0.4       0.3       0.1       0.0       4.7
 9 C  dxy             0.3       1.6       1.2       6.4       0.6       1.3
11 O  s               0.2       0.1       0.1       0.7       0.4       0.0
11 O  px              0.0       0.1       0.2       0.6       0.1       5.4
11 O  py              0.0       0.0       0.1       0.0       0.1       0.7
11 O  dz2             0.2       1.1       0.1       1.5       2.2       0.1
11 O  dxz             0.1       0.5       1.5       1.7       0.4      13.7
11 O  dyz             0.3       0.1       0.2       0.0       0.0       1.3
11 O  dx2y2           0.4       0.1       1.0       1.2       0.1      15.6
11 O  dxy             0.0       3.0       0.1      15.1       2.7      18.6
12 O  s               0.1       0.9       0.0       1.5       0.5       1.7
12 O  pz              0.0       0.0       0.0       0.1       0.0       0.0
12 O  px              0.0       0.1       0.0       0.2       0.1       0.4
12 O  py              0.1       0.7       0.1       1.5       0.2       0.6
12 O  dz2             0.2       1.1       0.0       0.8       0.7       3.2
12 O  dxz             0.1       0.8       0.3       2.5       0.5       1.0
12 O  dyz             0.4       2.0       0.5       6.0       0.7       0.8
12 O  dx2y2           0.0       2.5       0.0       2.9       0.9       0.0
12 O  dxy             1.6       4.1       1.1      10.6       1.5       8.1
13 O  s               0.0       0.1       2.8       0.2       2.2       0.3
13 O  pz              0.0       0.0       0.3       0.1       0.1       0.0
13 O  px              0.0       0.3       2.5       0.3       1.3       0.1
13 O  dz2             0.0       0.0       1.0       0.0       1.9       0.5
13 O  dxz             0.1       1.8      15.5       2.6       6.6       0.2
13 O  dyz             0.0       0.1       0.2       0.1       0.2       0.0
13 O  dx2y2           0.2       1.3      16.8       2.0       8.0       0.5
13 O  dxy             0.0       1.7       1.9       0.3       1.6       0.5
14 O  s               0.0       2.8       0.0       0.1       2.7       0.0
14 O  pz              0.0       0.8       0.0       0.0       0.5       0.0
14 O  px              0.0       0.4       0.0       0.0       0.2       0.0
14 O  py              0.0       1.8       0.0       0.1       1.1       0.0
14 O  dz2             0.0       4.8       0.1       0.0       4.4       0.0
14 O  dxz             0.0       1.0       0.0       0.2       0.4       0.0
14 O  dyz             0.1      11.8       0.1       1.0       4.6       0.0
14 O  dx2y2           0.1      13.6       0.0       0.6       7.0       0.0
14 O  dxy             0.1       8.9       0.7       0.5       4.9       0.1
15 O  s               0.5       0.2       1.8       1.2       1.4       0.2
15 O  px              0.1       0.0       0.4       0.3       0.2       0.0
15 O  py              0.3       0.3       1.2       0.8       1.0       0.1
15 O  dz2             0.8       0.1       2.9       1.4       2.9       0.3
15 O  dxz             0.5       0.7       1.6       1.9       0.6       0.0
15 O  dyz             0.8       0.8       1.8       2.2       1.3       0.0
15 O  dx2y2           0.0       0.5       0.0       0.0       0.2       0.2
15 O  dxy             5.3       3.1      14.6      11.1      10.0       0.9
16 O  s               3.5       0.2       0.3       0.0       0.1       0.0
16 O  pz              0.6       0.0       0.1       0.0       0.0       0.0
16 O  px              1.7       0.1       0.1       0.0       0.0       0.0
16 O  py              1.9       0.1       0.2       0.0       0.0       0.0
16 O  dxz            11.2       0.4       1.0       0.2       0.2       0.0
16 O  dyz            29.3       1.4       2.4       0.3       0.4       0.0
16 O  dx2y2           7.3       0.3       0.7       0.3       0.0       0.2
16 O  dxy            11.4       0.4       0.8       0.0       0.3       0.0
19 H  s               0.0       0.0       0.1       0.2       0.0       0.0
20 H  s               0.0       0.1       0.4       0.1       0.1       0.0
21 H  s               0.0       0.3       0.0       0.0       0.3       0.0
22 H  s               0.1       0.1       0.2       0.2       0.1       0.0
23 H  s               0.7       0.0       0.1       0.0       0.0       0.0



                      *****************************
                      * MAYER POPULATION ANALYSIS *
                      *****************************

  NA   - Mulliken gross atomic population
  ZA   - Total nuclear charge
  QA   - Mulliken gross atomic charge
  VA   - Mayer's total valence
  BVA  - Mayer's bonded valence
  FA   - Mayer's free valence

  ATOM       NA         ZA         QA         VA         BVA        FA
  0 C      5.9252     6.0000     0.0748     3.9924     3.9924     0.0000
  1 C      5.9807     6.0000     0.0193     4.0403     4.0403     0.0000
  2 H      0.9374     1.0000     0.0626     0.9896     0.9896     0.0000
  3 C      5.9470     6.0000     0.0530     4.0060     4.0060     0.0000
  4 H      0.9636     1.0000     0.0364     0.9746     0.9746    -0.0000
  5 C      5.9309     6.0000     0.0691     3.9807     3.9807     0.0000
  6 H      0.9299     1.0000     0.0701     0.9877     0.9877     0.0000
  7 C      5.9664     6.0000     0.0336     4.0200     4.0200     0.0000
  8 H      0.9578     1.0000     0.0422     0.9883     0.9883     0.0000
  9 C      5.8290     6.0000     0.1710     4.2123     4.2123     0.0000
 10 H      0.9571     1.0000     0.0429     0.9750     0.9750     0.0000
 11 O      8.3043     8.0000    -0.3043     2.1360     2.1360     0.0000
 12 O      8.3914     8.0000    -0.3914     2.0464     2.0464     0.0000
 13 O      8.4065     8.0000    -0.4065     2.0195     2.0195    -0.0000
 14 O      8.4109     8.0000    -0.4109     2.0363     2.0363     0.0000
 15 O      8.4145     8.0000    -0.4145     2.0193     2.0193    -0.0000
 16 O      8.4338     8.0000    -0.4338     1.9974     1.9974    -0.0000
 17 H      0.9347     1.0000     0.0653     0.9666     0.9666     0.0000
 18 H      0.9094     1.0000     0.0906     0.9759     0.9759    -0.0000
 19 H      0.6857     1.0000     0.3143     0.8873     0.8873    -0.0000
 20 H      0.6918     1.0000     0.3082     0.8911     0.8911     0.0000
 21 H      0.6969     1.0000     0.3031     0.8853     0.8853    -0.0000
 22 H      0.6947     1.0000     0.3053     0.9049     0.9049    -0.0000
 23 H      0.7004     1.0000     0.2996     0.8794     0.8794    -0.0000

  Mayer bond orders larger than 0.100000
B(  0-C ,  1-C ) :   1.0702 B(  0-C , 16-O ) :   1.1080 B(  0-C , 17-H ) :   0.8987 
B(  0-C , 18-H ) :   0.9121 B(  1-C ,  2-H ) :   0.8703 B(  1-C ,  3-C ) :   0.9946 
B(  1-C , 11-O ) :   0.9919 B(  3-C ,  4-H ) :   0.8640 B(  3-C ,  5-C ) :   1.0023 
B(  3-C , 15-O ) :   1.0749 B(  5-C ,  6-H ) :   0.8669 B(  5-C ,  7-C ) :   1.0115 
B(  5-C , 14-O ) :   1.0496 B(  7-C ,  8-H ) :   0.8585 B(  7-C ,  9-C ) :   0.9918 
B(  7-C , 13-O ) :   1.0947 B(  9-C , 10-H ) :   0.8848 B(  9-C , 11-O ) :   1.0223 
B(  9-C , 12-O ) :   1.1603 B( 12-O , 19-H ) :   0.8359 B( 13-O , 20-H ) :   0.8390 
B( 14-O , 21-H ) :   0.8461 B( 15-O , 22-H ) :   0.8262 B( 16-O , 23-H ) :   0.8520 


-------
TIMINGS
-------

Total SCF time: 0 days 0 hours 0 min 9 sec 

Total time                  ....       9.200 sec
Sum of individual times     ....       8.770 sec  ( 95.3%)

SCF preparation             ....       0.165 sec  (  1.8%)
Fock matrix formation       ....       7.890 sec  ( 85.8%)
  Startup                   ....       0.056 sec  (  0.7% of F)
  Split-RI-J                ....       3.531 sec  ( 44.8% of F)
  XC integration            ....       3.908 sec  ( 49.5% of F)
    XC Preparation          ....       0.000 sec  (  0.0% of XC)
    Basis function eval.    ....       1.329 sec  ( 34.0% of XC)
    Density eval.           ....       0.723 sec  ( 18.5% of XC)
    XC-Functional eval.     ....       0.285 sec  (  7.3% of XC)
    XC-Potential eval.      ....       0.962 sec  ( 24.6% of XC)
Diagonalization             ....       0.000 sec  (  0.0%)
Density matrix formation    ....       0.158 sec  (  1.7%)
Total Energy calculation    ....       0.025 sec  (  0.3%)
Population analysis         ....       0.104 sec  (  1.1%)
Orbital Transformation      ....       0.051 sec  (  0.6%)
Orbital Orthonormalization  ....       0.000 sec  (  0.0%)
DIIS solution               ....       0.288 sec  (  3.1%)
  MO trafo                  ....       0.000 sec  (  0.0 % of DIIS)
  Orb grad                  ....       0.000 sec  (  0.0 % of DIIS)
  Energy W gradient         ....       0.000 sec  (  0.0 % of DIIS)
  DIIS error                ....       0.006 sec  (  2.1 % of DIIS)
  DIIS work                 ....       0.240 sec  ( 83.4 % of DIIS)
  Form Q                    ....       0.000 sec  (  0.0 % of DIIS)
  Form QpQm                 ....       0.000 sec  (  0.0 % of DIIS)
  Exp/Cayley                ....       0.000 sec  (  0.0 % of DIIS)
  Orb update                ....       0.000 sec  (  0.0 % of DIIS)
  Wake-sleep                ....       0.012 sec  (  4.3 % of DIIS)
SOSCF solution              ....       0.089 sec  (  1.0%)
  MO trafo                  ....       0.049 sec  ( 55.5 % of SOSCF)
  Orb grad                  ....       0.001 sec  (  1.4 % of SOSCF)
  Rot update                ....       0.017 sec  ( 19.6 % of SOSCF)
  Step                      ....       0.021 sec  ( 23.4 % of SOSCF)
Finished LeanSCF after   9.3 sec

Maximum memory used throughout the entire LEANSCF-calculation: 18.0 MB


-------------------------------------------------------------------------------
                          DFT DISPERSION CORRECTION                            
                                                                               
                                DFTD4 V3.4.0                                   
-------------------------------------------------------------------------------
The PBE functional is recognized
Active option DFTDOPT                   ...         5   

-------------------------   ----------------
Dispersion correction           -0.023516796
-------------------------   ----------------

------------------   -----------------
gCP correction             0.152854532
------------------   -----------------

-------------------------   --------------------
FINAL SINGLE POINT ENERGY      -685.697377159433
-------------------------   --------------------


------------------------------------------------------------------------------
                              ORCA PROPERTY CALCULATIONS
------------------------------------------------------------------------------

GBWName                                 ... sp.gbw
Number of atoms                         ...     24
Number of basis functions               ...    192
Max core memory                         ...   1024 MB

Electric properties:
Dipole moment                           ... YES
Quadrupole moment                       ...  NO
Static polarizability (Dipole/Dipole)   ...  NO
Static polarizability (Dipole/Quad.)    ...  NO
Static polarizability (Quad./Quad.)     ...  NO
Static polarizability (Velocity)        ...  NO

Atomic electric properties:
Dipole moment                           ...  NO
Quadrupole moment                       ...  NO
Static polarizability                   ...  NO

Choice of electric origin               ... Center of mass
Position of electric origin             ...    -0.000007     0.000001    -0.000003

General magnetic properties:
Magnetizability                         ...  NO

EPR properties:
g-Tensor (aka g-matrix)                 ...  NO
Zero-Field splitting spin-orbit         ...  NO
Zero-field splitting spin-spin          ...  NO
Hyperfine couplings                     ...  NO (   0 nuclei)
Quadrupole couplings                    ...  NO (   0 nuclei)
Contact density                         ...  NO (   0 nuclei)

NMR properties:
Chemical shifts                         ...  NO (   0 nuclei)
Spin-rotation constants                 ...  NO (   0 nuclei)
Spin-spin couplings                     ...  NO (   0 nuclei,    0 pairs)

Choice of magnetic origin               ... GIAO
Position of magnetic origin             ...     0.000000     0.000000     0.000000

Properties with geometric perturbations:
SCF Hessian                             ...  NO
IR spectrum                             ...  NO
VCD spectrum                            ...  NO
X-ray spectroscopy properties:
SCF XES/XAS/RIXS spectra                ...  NO


-------------
DIPOLE MOMENT
-------------

Method             : SCF
Type of density    : Electron Density
Multiplicity       :   1
Irrep              :   0
Energy             :  -685.8267148955725361 Eh
Relativity type    : 
Basis              : AO
                                X                 Y                 Z
Electronic contribution:      2.468998900      -0.667369659       0.506492316
Nuclear contribution   :     -2.673854050       0.215219826      -1.291531810
                        -----------------------------------------
Total Dipole Moment    :     -0.204855150      -0.452149834      -0.785039494
                        -----------------------------------------
Magnitude (a.u.)       :      0.928812205
Magnitude (Debye)      :      2.360853005



--------------------
Rotational spectrum 
--------------------
 
Rotational constants in cm-1:             0.039582             0.025661             0.016346 
Rotational constants in MHz :          1186.638053           769.310943           490.039511 

Dipole components along the rotational axes: 
x,y,z [a.u.] :    -0.316981    -0.326950    -0.809518 
x,y,z [Debye]:    -0.805702    -0.831040    -2.057631 

 

Dipole moment calculation done in   0.0 sec 

Maximum memory used throughout the entire PROP-calculation: 11.7 MB

--------------------------------
SUGGESTED CITATIONS FOR THIS RUN
--------------------------------

Below you find a list of papers that are relevant to this ORCA run
We neither can nor want to force you to cite these papers, but we appreciate if you do
You receive ORCA, which is the product of decades of hard work by many enthusiastic individuals, for free
The only thing we kindly ask in return is that you cite our papers,
We deeply appreciate it, if you show your appreciation for ORCA by not just citing the generic ORCA reference.

Please note that relegating all ORCA citations to the supporting information does *not* help us.
SI sections are not indexed - citations you put there will not count into any citation statistics
But we need these citations in order to attract the funding resources that allow us to do what we are doing

Therefore, if you are a happy ORCA user, please consider citing a few of the papers listed below in the main body of your paper

In addition to the list printed below, the program has created the file sp.bibtex that contains the list in bibtex format
You can import this file easily into all common literature databanks and citation aid programs


List of essential papers. We consider these as the minimum necessary citations

  1. Neese,F.
     Software update: the ORCA program system, version 5.0
     WIRES Comput. Molec. Sci., 2022 12(1)e1606
     doi.org/10.1002/wcms.1606

List of papers to cite with high priority. The work reported in these papers was absolutely
necessary for this run to complete.
Our perspective: the developers of density functionals and basis sets usually get cited in chemistry papers
Good! But without the algorithms to do something with them, the functionals or basis sets would not do anything.
Hence, in our opinion, the algorithm design and method developments papers are equally worthy of getting cited

  1. Neese,F.
     An improvement of the resolution of the identity approximation for the formation of the Coulomb matrix
     J. Comp. Chem., 2003 24(14)1740-1747
     doi.org/10.1002/jcc.10318
  2. Neese,F.
     The SHARK Integral Generation and Digestion System
     J. Comp. Chem., 2022  1-16
     doi.org/10.1002/jcc.26942
  3. Caldeweyher,E.; Bannwarth,C.; Grimme,S.
     Extension of the D3 dispersion coefficient model
     J. Chem. Phys., 2017 147 034112-XXXX
     doi.org/10.1063/1.4993215
  4. Caldeweyher,E.; Ehlert,S.; Hansen,A.; Neugebauer,H.; Spicher,S.; Bannwarth,C.; Grimme,S.
     A generally applicable atomic-charge dependent London dispersion correction
     J. Chem. Phys., 2019 150 154122-XXXX
     doi.org/10.1063/1.5090222
  5. Caldeweyher,E.; Mewes,J.; Ehlert,S.; Grimme,S.
     Extension and evaluation of the D4 London-dispersion model for periodic systems
     Phys. Chem. Chem. Phys., 2020 22(16)8499-8512
     doi.org/10.1039/D0CP00502A

List of suggested additional citations. These are papers that are important in the 'surrounding' of 
of this run, or papers that preceded the highly important papers. If you like your results we are grateful for a citation.

  1. Neese,F.
     The ORCA program system
     WIRES Comput. Molec. Sci., 2012 2(1)73-78
     doi.org/10.1002/wcms.81
  2. Neese,F.
     Software update: the ORCA program system, version 4.0
     WIRES Comput. Molec. Sci., 2018 8(1)1-6
     doi.org/10.1002/wcms.1327
  3. Neese,F.; Wennmohs,F.; Becker,U.; Riplinger,C.
     The ORCA quantum chemistry program package
     J. Chem. Phys., 2020 152 Art. No. L224108
     doi.org/10.1063/5.0004608

List of optional additional citations

  1. Neese,F.
     Approximate second-order SCF convergence for spin unrestricted wavefunctions
     Chem. Phys. Lett., 2000 325(1-3)93-98
     doi.org/10.1016/s0009-2614(00)00662-x

Timings for individual modules:

Sum of individual times          ...       11.258 sec (=   0.188 min)
Startup calculation              ...        0.879 sec (=   0.015 min)   7.8 %
SCF iterations                   ...       10.281 sec (=   0.171 min)  91.3 %
Property calculations            ...        0.098 sec (=   0.002 min)   0.9 %
                             ****ORCA TERMINATED NORMALLY****
TOTAL RUN TIME: 0 days 0 hours 0 minutes 11 seconds 951 msec
