
                                 *****************
                                 * O   R   C   A *
                                 *****************

                                            #,                                       
                                            ###                                      
                                            ####                                     
                                            #####                                    
                                            ######                                   
                                           ########,                                 
                                     ,,################,,,,,                         
                               ,,#################################,,                 
                          ,,##########################################,,             
                       ,#########################################, ''#####,          
                    ,#############################################,,   '####,        
                  ,##################################################,,,,####,       
                ,###########''''           ''''###############################       
              ,#####''   ,,,,##########,,,,          '''####'''          '####       
            ,##' ,,,,###########################,,,                        '##       
           ' ,,###''''                  '''############,,,                           
         ,,##''                                '''############,,,,        ,,,,,,###''
      ,#''                                            '''#######################'''  
     '                                                          ''''####''''         
             ,#######,   #######,   ,#######,      ##                                
            ,#'     '#,  ##    ##  ,#'     '#,    #''#        ,####,   ,####,        
            ##       ##  ##   ,#'  ##            #'  '#       #'       #'  '#        
            ##       ##  #######   ##           ,######,      #####,   #    #        
            '#,     ,#'  ##    ##  '#,     ,#' ,#      #,     #,   #   #,  ,#        
             '#######'   ##     ##  '#######'  #'      '#     '####' # '####'        



                #########################################################
                #                        -***-                          #
                #          Department of theory and spectroscopy        #
                #                                                       #
                #                      Frank Neese                      #
                #                                                       #
                #     Directorship, Architecture, Infrastructure        #
                #                    SHARK, DRIVERS                     #
                #        Core code/Algorithms in most modules           #
                #                                                       #
                #        Max Planck Institute fuer Kohlenforschung      #
                #                Kaiser Wilhelm Platz 1                 #
                #                 D-45470 Muelheim/Ruhr                 #
                #                      Germany                          #
                #                                                       #
                #                  All rights reserved                  #
                #                        -***-                          #
                #########################################################


                         Program Version 6.0.0  -   RELEASE  -


 With contributions from (in alphabetic order):
   Daniel Aravena         : Magnetic Suceptibility
   Michael Atanasov       : Ab Initio Ligand Field Theory (pilot matlab implementation)
   Alexander A. Auer      : GIAO ZORA, VPT2 properties, NMR spectrum
   Ute Becker             : All parallelization in ORCA, NUMFREQ, NUMCALC
   Giovanni Bistoni       : ED, misc. LED, open-shell LED, HFLD
   Martin Brehm           : Molecular dynamics
   Dmytro Bykov           : pre 5.0 version of the SCF Hessian
   Marcos Casanova-Páez   : Triplet and SCS-CIS(D). UHF-(DLPNO)-IP/EA/STEOM-CCSD. UHF-CVS-IP/STEOM-CCSD
   Vijay G. Chilkuri      : MRCI spin determinant printing, contributions to CSF-ICE
   Pauline Colinet        : FMM embedding
   Dipayan Datta          : RHF DLPNO-CCSD density
   Achintya Kumar Dutta   : EOM-CC, STEOM-CC
   Nicolas Foglia         : Exact transition moments, OPA infrastructure, MCD improvements
   Dmitry Ganyushin       : Spin-Orbit,Spin-Spin,Magnetic field MRCI
   Miquel Garcia          : C-PCM and meta-GGA Hessian, CCSD/C-PCM, Gaussian charge scheme
   Tiago L. C. Gouveia    : GS-ROHF, GS-ROCIS
   Yang Guo               : DLPNO-NEVPT2, F12-NEVPT2, CIM, IAO-localization
   Andreas Hansen         : Spin unrestricted coupled pair/coupled cluster methods
   Ingolf Harden          : AUTO-CI MPn and infrastructure 
   Benjamin Helmich-Paris : MC-RPA, TRAH-(SCF,CASSCF), AVAS, COSX integrals, SCF dyn. polar.
   Lee Huntington         : MR-EOM, pCC
   Robert Izsak           : Overlap fitted RIJCOSX, COSX-SCS-MP3, EOM
   Riya Kayal             : Wick's Theorem for AUTO-CI, AUTO-CI UHF-CCSDT
   Emily Kempfer          : AUTO-CI, RHF CISDT and CCSDT
   Christian Kollmar      : KDIIS, OOCD, Brueckner-CCSD(T), CCSD density, CASPT2, CASPT2-K, improved NEVPT2
   Axel Koslowski         : Symmetry handling
   Simone Kossmann        : Meta GGA functionals, TD-DFT gradient, OOMP2, (MP2 Hessian; deprecated post 5.0)
   Lucas Lang             : DCDCAS
   Marvin Lechner         : AUTO-CI (C++ implementation), FIC-MRCC
   Spencer Leger          : CASSCF response
   Dagmar Lenk            : GEPOL surface, SMD, ORCA-2-JSON
   Dimitrios Liakos       : Extrapolation schemes; Compound Job, initial MDCI parallelization
   Dimitrios Manganas     : Further ROCIS development; embedding schemes. LFT, Crystal Embedding
   Dimitrios Pantazis     : SARC Basis sets
   Anastasios Papadopoulos: AUTO-CI, single reference methods and gradients
   Taras Petrenko         : pre 6.0 DFT Hessian and TD-DFT gradient, (ASA, deprecated), ECA, 1-Electron XAS/XES, NRVS
   Peter Pinski           : DLPNO-MP2, DLPNO-MP2 Gradient
   Christoph Reimann      : Effective Core Potentials
   Marius Retegan         : Local ZFS, SOC
   Christoph Riplinger    : Optimizer, TS searches, QM/MM, DLPNO-CCSD(T), (RO)-DLPNO pert. Triples
   Michael Roemelt        : Original ROCIS implementation
   Masaaki Saitow         : Open-shell DLPNO-CCSD energy and density
   Barbara Sandhoefer     : DKH picture change effects
   Kantharuban Sivalingam : CASSCF convergence/infrastructure, NEVPT2 and variants, FIC-MRCI
   Bernardo de Souza      : ESD, SOC TD-DFT
   Georgi Stoychev        : AutoAux, RI-MP2 NMR, DLPNO-MP2 response, X2C
   Van Anh Tran           : RI-MP2 g-tensors
   Willem Van den Heuvel  : Paramagnetic NMR
   Zikuan Wang            : NOTCH, Electric field optimization 
   Frank Wennmohs         : Technical directorship and infrastructure
   Hang Xu                : AUTO-CI-Response properties 


 We gratefully acknowledge several colleagues who have allowed us to
 interface, adapt or use parts of their codes:
   Stefan Grimme, W. Hujo, H. Kruse, P. Pracht,  : VdW corrections, initial TS optimization,
                  C. Bannwarth, S. Ehlert,         DFT functionals, gCP, sTDA/sTD-DF
                  L. Wittmann, M. Mueller
   Ed Valeev, F. Pavosevic, A. Kumar             : LibInt (2-el integral package), F12 methods
   Garnet Chan, S. Sharma, J. Yang, R. Olivares  : DMRG
   Ulf Ekstrom                                   : XCFun DFT Library
   Mihaly Kallay                                 : mrcc  (arbitrary order and MRCC methods)
   Frank Weinhold                                : gennbo (NPA and NBO analysis)
   Simon Mueller                                 : openCOSMO-RS
   Christopher J. Cramer and Donald G. Truhlar   : smd solvation model
   Lars Goerigk                                  : TD-DFT with DH, B97 family of functionals
   V. Asgeirsson, H. Jonsson                     : NEB implementation
   FAccTs GmbH                                   : IRC, NEB, NEB-TS, DLPNO-Multilevel, CI-OPT
                                                   MM, QMMM, 2- and 3-layer-ONIOM, Crystal-QMMM,
                                                   LR-CPCM, SF, NACMEs, symmetry and pop. for TD-DFT,
                                                   nearIR, NL-DFT gradient (VV10), updates on ESD,
                                                   ML-optimized integration grids, MBIS, APM,
                                                   GOAT, DOCKER, SOLVATOR, interface openCOSMO-RS
   S Lehtola, MJT Oliveira, MAL Marques          : LibXC Library
   Liviu Ungur et al                             : ANISO software


 Your calculation uses the libint2 library for the computation of 2-el integrals
 For citations please refer to: http://libint.valeyev.net

 Your ORCA version has been built with support for libXC version: 6.2.2
 For citations please refer to: https://libxc.gitlab.io

 This ORCA versions uses:
   CBLAS   interface :  Fast vector & matrix operations
   LAPACKE interface :  Fast linear algebra routines
   SCALAPACK package :  Parallel linear algebra routines
   Shared memory     :  Shared parallel matrices
   BLAS/LAPACK       :  OpenBLAS 0.3.27  USE64BITINT DYNAMIC_ARCH NO_AFFINITY SkylakeX SINGLE_THREADED
        Core in use  :  SkylakeX
   Copyright (c) 2011-2014, The OpenBLAS Project


Your calculation utilizes the geometrical counterpoise correction gCP
Please cite in your paper:
H.Kruse, S. Grimme J.Chem.Phys., 136, (2012), 154101 
   

Your calculation utilizes the DFT-NL dispersion correction.
Cite in your paper:
Vydrov, O. A.; Van Voorhis, T. J. Chem. Phys. 2010, 133, 244103
Hujo, W.; Grimme, S. J. Chem. Theory Comput. 2011, 7, 3866 
   

Your calculation utilizes the SMD solvation module
Please cite in your paper:
A.V. Marenich, C.J. Cramer, D.G. Truhlar J. Phys. Chem. B, 113, (2009), 6378 

================================================================================

----- Orbital basis set information -----
Your calculation utilizes the basis: def2-TZVP
   F. Weigend and R. Ahlrichs, Phys. Chem. Chem. Phys. 7, 3297 (2005).

----- AuxJ basis set information -----
Your calculation utilizes the auxiliary basis: def2/J
   F. Weigend, Phys. Chem. Chem. Phys. 8, 1057 (2006).

================================================================================
                                        WARNINGS
                       Please study these warnings very carefully!
================================================================================


================================================================================
                                       INPUT FILE
================================================================================
NAME = sp_solv.inp
|  1> ! wb97x-v def2-tzvp def2/J RIJCOSX DEFGRID2 scfconv7 GCP(DFT/TZ) printgap
|  2> %output
|  3>     printlevel normal
|  4> end
|  5> %cpcm
|  6>     smd true
|  7>     smdsolvent "water"
|  8> end
|  9> * xyz 0 1
| 10> C 2.3964907587212507 0.0656292098402212 -0.0005647404960342843
| 11> C 0.9037683751439693 -0.003159912283677246 0.0013384270655289957
| 12> C 0.13922223864624306 1.1707349302091192 0.001394998633890046
| 13> N -1.1939403031399591 1.1702662082327613 0.00019260731420634773
| 14> C -1.7787041717198038 -0.03736349926906151 -0.0007132870342698137
| 15> C -1.0349024144296426 -1.2052683295316693 -0.0004029457162611434
| 16> N 0.3062338101720944 -1.2035294159715235 0.000529731521845513
| 17> H 2.7561852018947723 0.6422398216026645 0.8580019745877687
| 18> H 2.831441716086836 -0.9340724051881514 0.036294428688693384
| 19> H 2.7552634961982454 0.5744191125829806 -0.9017859831275005
| 20> H 0.6359232095723217 2.138817340093009 0.002613194125118848
| 21> H -2.8646125726847007 -0.07092333113702352 -0.0015200534799475647
| 22> H -1.5301555415247972 -2.173069838521366 -0.000804835515311259
| 23> *
| 24> 
| 25>                          ****END OF INPUT****
================================================================================

                       ****************************
                       * Single Point Calculation *
                       ****************************

---------------------------------
CARTESIAN COORDINATES (ANGSTROEM)
---------------------------------
  C      2.396491    0.065629   -0.000565
  C      0.903768   -0.003160    0.001338
  C      0.139222    1.170735    0.001395
  N     -1.193940    1.170266    0.000193
  C     -1.778704   -0.037363   -0.000713
  C     -1.034902   -1.205268   -0.000403
  N      0.306234   -1.203529    0.000530
  H      2.756185    0.642240    0.858002
  H      2.831442   -0.934072    0.036294
  H      2.755263    0.574419   -0.901786
  H      0.635923    2.138817    0.002613
  H     -2.864613   -0.070923   -0.001520
  H     -1.530156   -2.173070   -0.000805

----------------------------
CARTESIAN COORDINATES (A.U.)
----------------------------
  NO LB      ZA    FRAG     MASS         X           Y           Z
   0 C     6.0000    0    12.011    4.528711    0.124021   -0.001067
   1 C     6.0000    0    12.011    1.707875   -0.005971    0.002529
   2 C     6.0000    0    12.011    0.263092    2.212368    0.002636
   3 N     7.0000    0    14.007   -2.256220    2.211483    0.000364
   4 C     6.0000    0    12.011   -3.361264   -0.070607   -0.001348
   5 C     6.0000    0    12.011   -1.955682   -2.277627   -0.000761
   6 N     7.0000    0    14.007    0.578698   -2.274341    0.001001
   7 H     1.0000    0     1.008    5.208435    1.213657    1.621389
   8 H     1.0000    0     1.008    5.350649   -1.765141    0.068587
   9 H     1.0000    0     1.008    5.206693    1.085495   -1.704129
  10 H     1.0000    0     1.008    1.201721    4.041779    0.004938
  11 H     1.0000    0     1.008   -5.413333   -0.134026   -0.002872
  12 H     1.0000    0     1.008   -2.891575   -4.106507   -0.001521

--------------------------------
INTERNAL COORDINATES (ANGSTROEM)
--------------------------------
 C      0   0   0     0.000000000000     0.00000000     0.00000000
 C      1   0   0     1.494307759400     0.00000000     0.00000000
 C      2   1   0     1.400913951414   120.43728298     0.00000000
 N      3   2   1     1.333163166408   123.05563938   179.85356188
 C      4   3   2     1.341759707653   115.85756749     0.00000000
 C      5   4   3     1.384645385292   121.67080387     0.00000000
 N      2   1   3     1.340871043653   119.10217587   179.87963853
 H      1   2   3     1.094987074945   110.57211102    56.96694610
 H      1   2   3     1.090845659457   110.85930460   177.94012732
 H      1   2   3     1.095346872210   110.46443286   298.67149095
 H      3   2   1     1.088070260069   119.76285768   359.84414994
 H      5   4   3     1.086427157463   117.60757306   179.98910750
 H      6   5   4     1.087159409754   120.40802514   179.97872089

---------------------------
INTERNAL COORDINATES (A.U.)
---------------------------
 C      0   0   0     0.000000000000     0.00000000     0.00000000
 C      1   0   0     2.823832425059     0.00000000     0.00000000
 C      2   1   0     2.647343705361   120.43728298     0.00000000
 N      3   2   1     2.519313276342   123.05563938   179.85356188
 C      4   3   2     2.535558384995   115.85756749     0.00000000
 C      5   4   3     2.616600570800   121.67080387     0.00000000
 N      2   1   3     2.533879053410   119.10217587   179.87963853
 H      1   2   3     2.069225691830   110.57211102    56.96694610
 H      1   2   3     2.061399550751   110.85930460   177.94012732
 H      1   2   3     2.069905610124   110.46443286   298.67149095
 H      3   2   1     2.056154805994   119.76285768   359.84414994
 H      5   4   3     2.053049792060   117.60757306   179.98910750
 H      6   5   4     2.054433548350   120.40802514   179.97872089

---------------------
BASIS SET INFORMATION
---------------------
There are 3 groups of distinct atoms

 Group   1 Type C   : 11s6p2d1f contracted to 5s3p2d1f pattern {62111/411/11/1}
 Group   2 Type N   : 11s6p2d1f contracted to 5s3p2d1f pattern {62111/411/11/1}
 Group   3 Type H   : 5s1p contracted to 3s1p pattern {311/1}

Atom   0C    basis set group =>   1
Atom   1C    basis set group =>   1
Atom   2C    basis set group =>   1
Atom   3N    basis set group =>   2
Atom   4C    basis set group =>   1
Atom   5C    basis set group =>   1
Atom   6N    basis set group =>   2
Atom   7H    basis set group =>   3
Atom   8H    basis set group =>   3
Atom   9H    basis set group =>   3
Atom  10H    basis set group =>   3
Atom  11H    basis set group =>   3
Atom  12H    basis set group =>   3
---------------------------------
AUXILIARY/J BASIS SET INFORMATION
---------------------------------
There are 3 groups of distinct atoms

 Group   1 Type C   : 12s5p4d2f1g contracted to 6s4p3d1f1g pattern {711111/2111/211/2/1}
 Group   2 Type N   : 12s5p4d2f1g contracted to 6s4p3d1f1g pattern {711111/2111/211/2/1}
 Group   3 Type H   : 5s2p1d contracted to 3s1p1d pattern {311/2/1}

Atom   0C    basis set group =>   1
Atom   1C    basis set group =>   1
Atom   2C    basis set group =>   1
Atom   3N    basis set group =>   2
Atom   4C    basis set group =>   1
Atom   5C    basis set group =>   1
Atom   6N    basis set group =>   2
Atom   7H    basis set group =>   3
Atom   8H    basis set group =>   3
Atom   9H    basis set group =>   3
Atom  10H    basis set group =>   3
Atom  11H    basis set group =>   3
Atom  12H    basis set group =>   3

Checking for AutoStart:
The File: sp_solv.gbw exists
Trying to determine its content:
     ... Fine, the file contains calculation information
     ... Fine, the calculation information was read
     ... Fine, the file contains a basis set
     ... Fine, the basis set was read
     ... Fine, the file contains a geometry
     ... Fine, the geometry was read
     ... Fine, the file contains a set of orbitals
     ... Fine, the orbitals can be read
     => possible old guess file was deleted
     => GBW file was renamed to GES file
     => GES file is set as startup file
     => Guess is set to MORead
     ... now leaving AutoStart

------------------------------------------------------------------------------
                             ORCA STARTUP CALCULATIONS
                           -- RI-GTO INTEGRALS CHOSEN --
------------------------------------------------------------------------------
------------------------------------------------------------------------------
                   ___                                                        
                  /   \      - P O W E R E D   B Y -                         
                 /     \                                                     
                 |  |  |   _    _      __       _____    __    __             
                 |  |  |  | |  | |    /  \     |  _  \  |  |  /  |          
                  \  \/   | |  | |   /    \    | | | |  |  | /  /          
                 / \  \   | |__| |  /  /\  \   | |_| |  |  |/  /          
                |  |  |   |  __  | /  /__\  \  |    /   |      \           
                |  |  |   | |  | | |   __   |  |    \   |  |\   \          
                \     /   | |  | | |  |  |  |  | |\  \  |  | \   \       
                 \___/    |_|  |_| |__|  |__|  |_| \__\ |__|  \__/        
                                                                              
                      - O R C A' S   B I G   F R I E N D -                    
                                      &                                       
                       - I N T E G R A L  F E E D E R -                       
                                                                              
 v1 FN, 2020, v2 2021, v3 2022-2024                                           
------------------------------------------------------------------------------


----------------------
SHARK INTEGRAL PACKAGE
----------------------

Number of atoms                             ...     13
Number of basis functions                   ...    253
Number of shells                            ...    101
Maximum angular momentum                    ...      3
Integral batch strategy                     ... SHARK/LIBINT Hybrid
RI-J (if used) integral strategy            ... SPLIT-RIJ (Revised 2003 algorithm where possible)
Printlevel                                  ...      1
Contraction scheme used                     ... SEGMENTED contraction
Prescreening option                         ... SCHWARTZ
   Thresh                                   ... 3.000e-11
   Tcut                                     ... 1.000e-12
   Tpresel                                  ... 1.000e-12 
Coulomb Range Separation                    ... NOT USED
Exchange Range Separation                   ... Long Range
   Mu parameter                             ... 3.000e-01
   Scaling (regular/separated)              ... 1.670e-01 8.330e-01
Multipole approximations                    ... NOT USED
Finite Nucleus Model                        ... NOT USED
CABS basis                                  ... NOT available
Auxiliary Coulomb fitting basis             ... AVAILABLE
   # of basis functions in Aux-J            ...    409
   # of shells in Aux-J                     ...    135
   Maximum angular momentum in Aux-J        ...      4
Auxiliary J/K fitting basis                 ... NOT available
Auxiliary Correlation fitting basis         ... NOT available
Auxiliary 'external' fitting basis          ... NOT available

Checking pre-screening integrals            ... done (  0.0 sec) Dimension = 101
Check shell pair data                       ... done (  0.0 sec)
Shell pair information
Shell pair cut-off parameter TPreSel        ...   1.0e-12
Total number of shell pairs                 ...      5151
Shell pairs after pre-screening             ...      4872
Total number of primitive shell pairs       ...     15748
Primitive shell pairs kept                  ...     11544
          la=0 lb=0:   1287 shell pairs
          la=1 lb=0:   1357 shell pairs
          la=1 lb=1:    369 shell pairs
          la=2 lb=0:    715 shell pairs
          la=2 lb=1:    372 shell pairs
          la=2 lb=2:    105 shell pairs
          la=3 lb=0:    353 shell pairs
          la=3 lb=1:    188 shell pairs
          la=3 lb=2:     98 shell pairs
          la=3 lb=3:     28 shell pairs

Calculating one electron integrals          ... done (  0.0 sec)
Calculating RI/J V-Matrix + Cholesky decomp.... done (  0.1 sec)
Calculating Nuclear repulsion               ... done (  0.0 sec) ENN=    275.694843626450 Eh

Diagonalization of the overlap matrix:
Smallest eigenvalue                        ... 1.206e-04
Time for diagonalization                   ...    0.007 sec
Threshold for overlap eigenvalues          ... 1.000e-07
Number of eigenvalues below threshold      ... 0
Time for construction of square roots      ...    0.015 sec
Total time needed                          ...    0.029 sec

-------------------
DFT GRID GENERATION
-------------------

General Integration Accuracy     IntAcc      ... 4.388
Radial Grid Type                 RadialGrid  ... OptM3 with GC (2021)
Angular Grid (max. ang.)         AngularGrid ... 4 (Lebedev-302)
Angular grid pruning method      GridPruning ... 4 (adaptive)
Weight generation scheme         WeightScheme... mBecke (2022)
Basis function cutoff            BFCut       ... 1.0000e-11
Integration weight cutoff        WCut        ... 1.0000e-14
Partially contracted basis set               ... off
Rotationally invariant grid construction     ... off
Angular grids for H and He will be reduced by one unit

Total number of grid points                  ...    61621
Total number of batches                      ...      968
Average number of points per batch           ...       63
Average number of grid points per atom       ...     4740

--------------------
COSX GRID GENERATION
--------------------

GRIDX 1
-------
General Integration Accuracy     IntAcc      ... 3.816
Radial Grid Type                 RadialGrid  ... OptM3 with GC (2021)
Angular Grid (max. ang.)         AngularGrid ... 1 (Lebedev-50)
Angular grid pruning method      GridPruning ... 4 (adaptive)
Weight generation scheme         WeightScheme... mBecke (2022)
Basis function cutoff            BFCut       ... 1.0000e-11
Integration weight cutoff        WCut        ... 1.0000e-14
Partially contracted basis set               ... on
Rotationally invariant grid construction     ... off
Angular grids for H and He will be reduced by one unit

Total number of grid points                  ...     7880
Total number of batches                      ...       69
Average number of points per batch           ...      114
Average number of grid points per atom       ...      606
UseSFitting                                  ... on

GRIDX 2
-------
General Integration Accuracy     IntAcc      ... 4.020
Radial Grid Type                 RadialGrid  ... OptM3 with GC (2021)
Angular Grid (max. ang.)         AngularGrid ... 2 (Lebedev-110)
Angular grid pruning method      GridPruning ... 4 (adaptive)
Weight generation scheme         WeightScheme... mBecke (2022)
Basis function cutoff            BFCut       ... 1.0000e-11
Integration weight cutoff        WCut        ... 1.0000e-14
Partially contracted basis set               ... on
Rotationally invariant grid construction     ... off
Angular grids for H and He will be reduced by one unit

Total number of grid points                  ...    17272
Total number of batches                      ...      142
Average number of points per batch           ...      121
Average number of grid points per atom       ...     1329
UseSFitting                                  ... on

GRIDX 3
-------
General Integration Accuracy     IntAcc      ... 4.338
Radial Grid Type                 RadialGrid  ... OptM3 with GC (2021)
Angular Grid (max. ang.)         AngularGrid ... 3 (Lebedev-194)
Angular grid pruning method      GridPruning ... 4 (adaptive)
Weight generation scheme         WeightScheme... mBecke (2022)
Basis function cutoff            BFCut       ... 1.0000e-11
Integration weight cutoff        WCut        ... 1.0000e-14
Partially contracted basis set               ... on
Rotationally invariant grid construction     ... off
Angular grids for H and He will be reduced by one unit

Total number of grid points                  ...    38065
Total number of batches                      ...      302
Average number of points per batch           ...      126
Average number of grid points per atom       ...     2928
UseSFitting                                  ... on
Initializing property integral containers    ... done (  0.0 sec)

SHARK setup successfully completed in   1.8 seconds

Maximum memory used throughout the entire STARTUP-calculation: 35.8 MB
-------------------------------------------------------------------------------
                                 ORCA GUESS
                   Start orbitals & Density for SCF / CASSCF
-------------------------------------------------------------------------------

------------
SCF SETTINGS
------------
Hamiltonian:
 Density Functional     Method          .... DFT(GTOs)
 Exchange Functional    Exchange        .... WB97X-V
 Correlation Functional Correlation     .... WB97X-V
 Gradients option       PostSCFGGA      .... off
 Hybrid DFT is turned on
   Fraction HF Exchange ScalHFX         ....  0.167000
   Scaling of DF-GGA-X  ScalDFX         ....  0.000000
   Scaling of DF-GGA-C  ScalDFC         ....  1.000000
   Scaling of DF-LDA-C  ScalLDAC        ....  1.000000
   Perturbative correction              ....  0.000000
 Long-range corrected/Screened/Range-Separated Hybrid DFT is turned on
   Amount of maximum screened exact exchange              ....  0.833000
   Range separation parameter mu (erf(mu*r12)/r12)        ....  0.300000
   NL short-range parameter             ....  6.000000
   NL long-range parameter              ....  0.010000
 RI-approximation to the Coulomb term is turned on
   Number of AuxJ basis functions       .... 409
   RIJ-COSX (HFX calculated with COS-X)).... on


General Settings:
 Integral files         IntName         .... sp_solv
 Hartree-Fock type      HFTyp           .... RHF
 Total Charge           Charge          ....    0
 Multiplicity           Mult            ....    1
 Number of Electrons    NEL             ....   50
 Basis Dimension        Dim             ....  253
 Nuclear Repulsion      ENuc            ....    275.6948436264 Eh

Convergence Acceleration:
 AO-DIIS                CNVDIIS         .... on
   Start iteration      DIISMaxIt       ....    12
   Startup error        DIISStart       ....  0.200000
   # of expansion vecs  DIISMaxEq       ....     5
   Bias factor          DIISBfac        ....   1.050
   Max. coefficient     DIISMaxC        ....  10.000
 MO-DIIS                CNVKDIIS        .... off
 Trust-Rad. Augm. Hess. CNVTRAH         .... auto
   Auto Start mean grad. ratio tolernc. ....  1.125000
   Auto Start start iteration           ....     1
   Auto Start num. interpolation iter.  ....    10
   Max. Number of Micro iterations      ....    24
   Max. Number of Macro iterations      .... Maxiter - #DIIS iter
   Number of Davidson start vectors     ....     2
   Converg. threshold    (grad. norm)   ....   1.000e-04
   Grad. Scal. Fac. for Micro threshold ....   0.100
   Minimum threshold for Micro iter.    ....   1.000e-02
   NR start threshold (gradient norm)   ....   1.000e-04
   Initial trust radius                 ....   0.400
   Minimum AH scaling param. (alpha)    ....   1.000
   Maximum AH scaling param. (alpha)    .... 1000.000
   Quad. conv. algorithm                .... NR
   White noise on init. David. guess    .... on
   Maximum white noise                  ....   0.010
   Pseudo random numbers                .... off
   Inactive MOs                         .... canonical
   Orbital update algorithm             .... Taylor
   Preconditioner                       .... Diag
   Full preconditioner red. dimension   ....   250
 SOSCF                  CNVSOSCF        .... on
   Start iteration      SOSCFMaxIt      ....   150
   Startup grad/error   SOSCFStart      ....  0.003300
   Hessian update       SOSCFHessUp     .... L-BFGS
 Level Shifting         CNVShift        .... on
   Level shift para.    LevelShift      ....    0.2500
   Turn off err/grad.   ShiftErr        ....    0.0010
 Zerner damping         CNVZerner       .... off
 Static damping         CNVDamp         .... on
   Fraction old density DampFac         ....    0.7000
   Max. Damping (<1)    DampMax         ....    0.9800
   Min. Damping (>=0)   DampMin         ....    0.0000
   Turn off err/grad.   DampErr         ....    0.1000

SCF Procedure:
 Maximum # iterations   MaxIter         ....   125
 SCF integral mode      SCFMode         .... Direct
   Integral package                     .... SHARK and LIBINT hybrid scheme
 Reset frequency        DirectResetFreq ....    20
 Integral Threshold     Thresh          ....  3.000e-11 Eh
 Primitive CutOff       TCut            ....  1.000e-12 Eh

Convergence Tolerance:
 Convergence Check Mode ConvCheckMode   .... Total+1el-Energy
 Convergence forced     ConvForced      .... 0
 Energy Change          TolE            ....  1.000e-07 Eh
 1-El. energy change                    ....  1.000e-04 Eh
 Orbital Gradient       TolG            ....  1.000e-04
 Orbital Rotation angle TolX            ....  1.000e-04
 DIIS Error             TolErr          ....  1.000e-07

---------------------
INITIAL GUESS: MOREAD
---------------------
Guess MOs are being read from file: sp_solv.ges
Input Geometry matches current geometry (good)
Atom 0: N(Shells)= 11 and 9 - projection required
Input basis set needs projection
NBasis(read)= 173
NBasis(calc)= 253
Basis set overlap was calculated
Using GuessMode=FMatrix for the initial guess
C*T matrix was formed
Effective Fockian was calculated
Effective Fockian was diagonalized
Initial density was built
                      ------------------
                      INITIAL GUESS DONE (   0.0 sec)
                      ------------------
             **** ENERGY FILE WAS UPDATED (sp_solv.en.tmp) ****
Finished Guess after   0.3 sec
Maximum memory used throughout the entire GUESS-calculation: 21.4 MB

-------------------------------------------------------------------------------------------
                                      ORCA LEAN-SCF
                              memory conserving SCF solver
-------------------------------------------------------------------------------------------

--------------------
CPCM SOLVATION MODEL
--------------------
CPCM parameters:
  Epsilon                                         ...      78.3550
  Refrac                                          ...       1.3328
  Rsolv                                           ...       1.3000
  Surface type                                    ... GAUSSIAN VDW
  Discretization scheme                           ... Constant charge density
    Threshold for H atoms                         ...       5.0000 (charges/Ang^2)
    Threshold for non-H atoms                     ...       5.0000 (charges/Ang^2)
  Epsilon function type                           ...         CPCM
Solvent:                                          ... WATER
SMD-CDS solvent descriptors:
  Soln                                            ...       1.3328
  Soln25                                          ...       1.3323
  Sola                                            ...       0.0000
  Solb                                            ...       0.0000
  Solg                                            ...       0.0000
  Solc                                            ...       0.0000
  Solh                                            ...       0.0000
Radii:
  Scheme                                          ... Element-dependent radii
  Radius for C  used is    3.4960 Bohr (=   1.8500 Ang.)
  Radius for N  used is    3.5716 Bohr (=   1.8900 Ang.)
  Radius for H  used is    2.2677 Bohr (=   1.2000 Ang.)
Calculating surface                               ...        done! (  0.0s)
Cavity surface points                             ...         1061
Cavity Volume                                     ...     725.7542
Cavity Surface-area                               ...     454.4042
Calculating surface distance matrix               ...        done! (  0.0s)
Performing Cholesky decomposition & store         ...        done! (  0.0s)
Overall time for CPCM initialization              ...                 0.1s

----------------------------------------D-I-I-S--------------------------------------------
Iteration    Energy (Eh)           Delta-E    RMSDP     MaxDP     DIISErr   Damp  Time(sec)
-------------------------------------------------------------------------------------------
               ***  Starting incremental Fock matrix formation  ***
    1    -303.8413969013230371     0.00e+00  1.16e-03  2.46e-02  4.78e-02  0.700  12.4
    2    -303.8458509273543768    -4.45e-03  9.86e-04  2.15e-02  3.56e-02  0.700   6.7
                               ***Turning on AO-DIIS***
    3    -303.8491854744016791    -3.33e-03  8.08e-04  1.80e-02  2.60e-02  0.700   6.7
    4    -303.8516267612054662    -2.44e-03  2.01e-03  4.52e-02  1.84e-02  0.000   6.4
                              *** Initializing SOSCF ***
---------------------------------------S-O-S-C-F--------------------------------------
Iteration    Energy (Eh)           Delta-E    RMSDP     MaxDP     MaxGrad    Time(sec)
--------------------------------------------------------------------------------------
    5    -303.8577725782835159    -6.15e-03  8.65e-05  2.39e-03  1.01e-03     6.6
               *** Restarting incremental Fock matrix formation ***
    6    -303.8577933547194334    -2.08e-05  4.61e-05  1.29e-03  3.18e-04    11.8
    7    -303.8577971482874318    -3.79e-06  2.38e-05  7.41e-04  1.20e-04    10.3
    8    -303.8577976609914231    -5.13e-07  2.99e-06  7.37e-05  5.80e-05    10.2
    9    -303.8577977303627904    -6.94e-08  2.10e-06  4.69e-05  3.12e-05     8.9
                 **** Energy Check signals convergence ****

               *****************************************************
               *                     SUCCESS                       *
               *           SCF CONVERGED AFTER   9 CYCLES          *
               *****************************************************


------------------
NL GRID GENERATION
------------------

General Integration Accuracy     IntAcc      ... 4.004
Radial Grid Type                 RadialGrid  ... OptM3 with GC (2021)
Angular Grid (max. ang.)         AngularGrid ... 2 (Lebedev-110)
Angular grid pruning method      GridPruning ... 4 (adaptive)
Weight generation scheme         WeightScheme... mBecke (2022)
Basis function cutoff            BFCut       ... 1.0000e-10
Integration weight cutoff        WCut        ... 1.0000e-14
Partially contracted basis set               ... off
Rotationally invariant grid construction     ... off
Angular grids for H and He will be reduced by one unit

Total number of grid points                  ...    19652
Total number of batches                      ...      314
Average number of points per batch           ...       62
Average number of grid points per atom       ...     1512
Final grid set up in    0.3 sec

-------------------------------------------------------------------------------
                    post-SCF DFT-NL dispersion correction                      
-------------------------------------------------------------------------------

SCF Energy:     -303.857797730 
NL    Energy:      0.192044422 
SC+NL Energy:   -303.665753309 
NL done in  :              1.7 sec
-------------------------------------------------------------------------------
Recomputing exchange energy using gridx3       ... done (   20.655 sec)
Old exchange energy                            :    -13.403984913 Eh
New exchange energy                            :    -13.403983212 Eh
Exchange energy change after final integration :      0.000001701 Eh
Total energy after final integration           :   -303.665751608 Eh

SMD CDS free energy correction energy :                 0.21813     Kcal/mol
Total Energy after SMD CDS correction =              -303.665403992 Eh
             **** ENERGY FILE WAS UPDATED (sp_solv.en.tmp) ****

----------------
TOTAL SCF ENERGY
----------------

Total Energy       :       -303.66540399152922 Eh           -8263.15573 eV

Components:
Nuclear Repulsion  :        275.69484362644982 Eh            7502.03809 eV
Electronic Energy  :       -579.54006170104572 Eh          -15770.08681 eV
One Electron Energy:       -955.13787959506953 Eh          -25990.62304 eV
Two Electron Energy:        375.59781789402382 Eh           10220.53623 eV
CPCM Dielectric    :         -0.01257965576692 Eh              -0.34231 eV
SMD CDS (Gcds)     :          0.00034761619009 Eh               0.00946 eV

Virial components:
Potential Energy   :       -606.11334126394866 Eh          -16493.18251 eV
Kinetic Energy     :        302.44793727241944 Eh            8230.02678 eV
Virial Ratio       :          2.00402537616917

DFT components:
N(Alpha)           :       25.000018965179 electrons
N(Beta)            :       25.000018965179 electrons
N(Total)           :       50.000037930358 electrons
E(X)               :      -27.845217084737 Eh       
E(C)               :       -2.071929829415 Eh       
NL Energy, E(C,NL) :        0.192044421750 Eh       
E(XC)              :      -29.725102492402 Eh       

CPCM Solvation Model Properties:
Surface-charge          :         -0.03552375895241
Corrected charge        :          0.00000000000000
Outlying charge corr.   :          0.00010588846279 Eh               0.00288 eV
Free-energy (cav+disp)  :          0.00034761619009 Eh               0.00946 eV

---------------
SCF CONVERGENCE
---------------

  Last Energy change         ...    6.9371e-08  Tolerance :   1.0000e-07
  Last MAX-Density change    ...    4.6949e-05  Tolerance :   1.0000e-05
  Last RMS-Density change    ...    2.1018e-06  Tolerance :   1.0000e-06
  Last DIIS Error            ...    1.0080e-03  Tolerance :   1.0000e-07
  Last Orbital Gradient      ...    3.1236e-05  Tolerance :   1.0000e-04
  Last Orbital Rotation      ...    3.4964e-05  Tolerance :   1.0000e-04


----------------
ORBITAL ENERGIES
----------------

  NO   OCC          E(Eh)            E(eV) 
   0   2.0000     -16.547787      -450.2882 
   1   2.0000     -16.544068      -450.1870 
   2   2.0000     -12.100202      -329.2632 
   3   2.0000     -12.088406      -328.9423 
   4   2.0000     -12.087213      -328.9098 
   5   2.0000     -12.084914      -328.8472 
   6   2.0000     -12.038583      -327.5865 
   7   2.0000      -1.557179       -42.3730 
   8   2.0000      -1.504008       -40.9261 
   9   2.0000      -1.328235       -36.1431 
  10   2.0000      -1.235462       -33.6186 
  11   2.0000      -1.192197       -32.4413 
  12   2.0000      -1.148193       -31.2439 
  13   2.0000      -1.052744       -28.6466 
  14   2.0000      -0.979156       -26.6442 
  15   2.0000      -0.930636       -25.3239 
  16   2.0000      -0.884869       -24.0785 
  17   2.0000      -0.873335       -23.7647 
  18   2.0000      -0.858075       -23.3494 
  19   2.0000      -0.839428       -22.8420 
  20   2.0000      -0.823250       -22.4018 
  21   2.0000      -0.819968       -22.3125 
  22   2.0000      -0.779245       -21.2043 
  23   2.0000      -0.757833       -20.6217 
  24   2.0000      -0.653783       -17.7903 
  25   0.0000      -0.344669        -9.3789 
  26   0.0000      -0.253108        -6.8874 
  27   0.0000      -0.129041        -3.5114 
  28   0.0000      -0.063957        -1.7404 
  29   0.0000      -0.029831        -0.8117 
  30   0.0000      -0.007406        -0.2015 
  31   0.0000      -0.000645        -0.0176 
  32   0.0000       0.001071         0.0291 
  33   0.0000       0.033029         0.8988 
  34   0.0000       0.053072         1.4442 
  35   0.0000       0.070842         1.9277 
*Only the first 10 virtual orbitals were printed.

                    ********************************
                    * MULLIKEN POPULATION ANALYSIS *
                    ********************************

-----------------------
MULLIKEN ATOMIC CHARGES
-----------------------
   0 C :   -0.393138
   1 C :    0.180078
   2 C :   -0.089678
   3 N :   -0.267192
   4 C :   -0.048160
   5 C :   -0.038708
   6 N :   -0.293697
   7 H :    0.151831
   8 H :    0.139597
   9 H :    0.151603
  10 H :    0.170113
  11 H :    0.169162
  12 H :    0.168190
Sum of atomic charges:    0.0000000

--------------------------------
MULLIKEN REDUCED ORBITAL CHARGES
--------------------------------
  0 C s       :     3.273174  s :     3.273174
      pz      :     1.078112  p :     3.065504
      px      :     0.891882
      py      :     1.095510
      dz2     :     0.005997  d :     0.051113
      dxz     :     0.014982
      dyz     :     0.007446
      dx2y2   :     0.008823
      dxy     :     0.013865
      f0      :     0.000295  f :     0.003347
      f+1     :     0.000334
      f-1     :     0.000749
      f+2     :     0.000413
      f-2     :    -0.000024
      f+3     :     0.000828
      f-3     :     0.000752

  1 C s       :     3.137676  s :     3.137676
      pz      :     0.861116  p :     2.512694
      px      :     0.849445
      py      :     0.802134
      dz2     :     0.004130  d :     0.156273
      dxz     :     0.027381
      dyz     :     0.024749
      dx2y2   :     0.052530
      dxy     :     0.047482
      f0      :     0.002020  f :     0.013279
      f+1     :     0.000856
      f-1     :     0.000887
      f+2     :     0.001187
      f-2     :     0.001310
      f+3     :     0.002007
      f-3     :     0.005012

  2 C s       :     3.207357  s :     3.207357
      pz      :     0.924744  p :     2.769462
      px      :     0.860112
      py      :     0.984606
      dz2     :     0.003222  d :     0.102443
      dxz     :     0.022437
      dyz     :     0.007837
      dx2y2   :     0.025778
      dxy     :     0.043169
      f0      :     0.001853  f :     0.010415
      f+1     :     0.001001
      f-1     :     0.000681
      f+2     :     0.001218
      f-2     :     0.000476
      f+3     :     0.001768
      f-3     :     0.003417

  3 N s       :     3.540294  s :     3.540294
      pz      :     1.072157  p :     3.656918
      px      :     1.171440
      py      :     1.413320
      dz2     :     0.006171  d :     0.066136
      dxz     :     0.013579
      dyz     :     0.011141
      dx2y2   :     0.019772
      dxy     :     0.015473
      f0      :     0.000610  f :     0.003844
      f+1     :     0.000293
      f-1     :     0.000242
      f+2     :     0.000600
      f-2     :     0.000287
      f+3     :     0.000764
      f-3     :     0.001050

  4 C s       :     3.169353  s :     3.169353
      pz      :     0.936588  p :     2.767173
      px      :     1.006654
      py      :     0.823930
      dz2     :     0.003538  d :     0.101332
      dxz     :     0.007476
      dyz     :     0.023277
      dx2y2   :     0.046365
      dxy     :     0.020677
      f0      :     0.001862  f :     0.010302
      f+1     :     0.000777
      f-1     :     0.000902
      f+2     :     0.000396
      f-2     :     0.001266
      f+3     :     0.001761
      f-3     :     0.003338

  5 C s       :     3.170375  s :     3.170375
      pz      :     0.914338  p :     2.754576
      px      :     0.838758
      py      :     1.001481
      dz2     :     0.003351  d :     0.103375
      dxz     :     0.023995
      dyz     :     0.008593
      dx2y2   :     0.027341
      dxy     :     0.040094
      f0      :     0.001869  f :     0.010382
      f+1     :     0.000980
      f-1     :     0.000685
      f+2     :     0.001249
      f-2     :     0.000507
      f+3     :     0.001711
      f-3     :     0.003380

  6 N s       :     3.547345  s :     3.547345
      pz      :     1.095663  p :     3.676484
      px      :     1.176006
      py      :     1.404815
      dz2     :     0.006179  d :     0.066000
      dxz     :     0.012439
      dyz     :     0.010858
      dx2y2   :     0.020774
      dxy     :     0.015751
      f0      :     0.000605  f :     0.003867
      f+1     :     0.000308
      f-1     :     0.000241
      f+2     :     0.000545
      f-2     :     0.000301
      f+3     :     0.000791
      f-3     :     0.001077

  7 H s       :     0.827115  s :     0.827115
      pz      :     0.009435  p :     0.021054
      px      :     0.005134
      py      :     0.006484

  8 H s       :     0.839067  s :     0.839067
      pz      :     0.004214  p :     0.021336
      px      :     0.005542
      py      :     0.011580

  9 H s       :     0.827304  s :     0.827304
      pz      :     0.009971  p :     0.021093
      px      :     0.005139
      py      :     0.005983

 10 H s       :     0.808493  s :     0.808493
      pz      :     0.003908  p :     0.021395
      px      :     0.005103
      py      :     0.012383

 11 H s       :     0.809333  s :     0.809333
      pz      :     0.004053  p :     0.021506
      px      :     0.014707
      py      :     0.002746

 12 H s       :     0.810373  s :     0.810373
      pz      :     0.003917  p :     0.021438
      px      :     0.005123
      py      :     0.012397


------------------------
MULLIKEN OVERLAP CHARGES
------------------------
B(  0-C ,  1-C ) :   0.5644 B(  0-C ,  2-C ) :  -0.0844 B(  0-C ,  6-N ) :  -0.0997 
B(  0-C ,  7-H ) :   0.8195 B(  0-C ,  8-H ) :   0.8535 B(  0-C ,  9-H ) :   0.8118 
B(  1-C ,  2-C ) :   1.1035 B(  1-C ,  3-N ) :  -0.1289 B(  1-C ,  5-C ) :  -0.2343 
B(  1-C ,  6-N ) :   1.0486 B(  1-C ,  7-H ) :  -0.0701 B(  1-C ,  8-H ) :  -0.1175 
B(  1-C ,  9-H ) :  -0.0632 B(  1-C , 10-H ) :  -0.0820 B(  2-C ,  3-N ) :   1.0226 
B(  2-C ,  4-C ) :  -0.2081 B(  2-C ,  6-N ) :  -0.1246 B(  2-C , 10-H ) :   0.8207 
B(  3-N ,  4-C ) :   0.9686 B(  3-N ,  5-C ) :  -0.1110 B(  3-N ,  6-N ) :  -0.0566 
B(  3-N , 10-H ) :  -0.0560 B(  3-N , 11-H ) :  -0.0577 B(  4-C ,  5-C ) :   1.1313 
B(  4-C ,  6-N ) :  -0.1249 B(  4-C , 11-H ) :   0.8278 B(  4-C , 12-H ) :  -0.0850 
B(  5-C ,  6-N ) :   0.9991 B(  5-C , 11-H ) :  -0.0763 B(  5-C , 12-H ) :   0.8328 
B(  6-N , 12-H ) :  -0.0603 B(  7-H ,  9-H ) :  -0.0505 


                     *******************************
                     * LOEWDIN POPULATION ANALYSIS *
                     *******************************

----------------------
LOEWDIN ATOMIC CHARGES
----------------------
   0 C :   -0.251729
   1 C :   -0.243139
   2 C :   -0.178095
   3 N :    0.111661
   4 C :   -0.218635
   5 C :   -0.207713
   6 N :    0.133380
   7 H :    0.138908
   8 H :    0.130031
   9 H :    0.139226
  10 H :    0.151018
  11 H :    0.147018
  12 H :    0.148069

-------------------------------
LOEWDIN REDUCED ORBITAL CHARGES
-------------------------------
  0 C s       :     2.817988  s :     2.817988
      pz      :     1.074107  p :     3.169934
      px      :     1.021416
      py      :     1.074410
      dz2     :     0.033811  d :     0.239261
      dxz     :     0.059169
      dyz     :     0.030517
      dx2y2   :     0.051887
      dxy     :     0.063878
      f0      :     0.001935  f :     0.024547
      f+1     :     0.003524
      f-1     :     0.003191
      f+2     :     0.003430
      f-2     :     0.002229
      f+3     :     0.005127
      f-3     :     0.005111

  1 C s       :     2.733394  s :     2.733394
      pz      :     0.796495  p :     2.817036
      px      :     1.005184
      py      :     1.015357
      dz2     :     0.039674  d :     0.615511
      dxz     :     0.081211
      dyz     :     0.079361
      dx2y2   :     0.231170
      dxy     :     0.184096
      f0      :     0.005193  f :     0.077197
      f+1     :     0.004266
      f-1     :     0.006105
      f+2     :     0.007533
      f-2     :     0.009113
      f+3     :     0.012091
      f-3     :     0.032897

  2 C s       :     2.778740  s :     2.778740
      pz      :     0.861586  p :     2.872806
      px      :     0.983876
      py      :     1.027344
      dz2     :     0.032756  d :     0.466274
      dxz     :     0.069371
      dyz     :     0.022129
      dx2y2   :     0.141414
      dxy     :     0.200604
      f0      :     0.004210  f :     0.060275
      f+1     :     0.006211
      f-1     :     0.003468
      f+2     :     0.008004
      f-2     :     0.003065
      f+3     :     0.011147
      f-3     :     0.024170

  3 N s       :     3.051941  s :     3.051941
      pz      :     0.980685  p :     3.595916
      px      :     1.247826
      py      :     1.367404
      dz2     :     0.017239  d :     0.221920
      dxz     :     0.039646
      dyz     :     0.021676
      dx2y2   :     0.072514
      dxy     :     0.070846
      f0      :     0.001024  f :     0.018562
      f+1     :     0.001623
      f-1     :     0.001025
      f+2     :     0.003178
      f-2     :     0.000957
      f+3     :     0.003849
      f-3     :     0.006906

  4 C s       :     2.786058  s :     2.786058
      pz      :     0.873769  p :     2.903014
      px      :     1.000853
      py      :     1.028393
      dz2     :     0.032228  d :     0.468603
      dxz     :     0.015459
      dyz     :     0.080452
      dx2y2   :     0.217944
      dxy     :     0.122519
      f0      :     0.004268  f :     0.060960
      f+1     :     0.003559
      f-1     :     0.006257
      f+2     :     0.002190
      f-2     :     0.009181
      f+3     :     0.011142
      f-3     :     0.024363

  5 C s       :     2.786035  s :     2.786035
      pz      :     0.856356  p :     2.887552
      px      :     0.988226
      py      :     1.042970
      dz2     :     0.032044  d :     0.473153
      dxz     :     0.076624
      dyz     :     0.024758
      dx2y2   :     0.141980
      dxy     :     0.197747
      f0      :     0.004282  f :     0.060973
      f+1     :     0.006215
      f-1     :     0.003531
      f+2     :     0.008389
      f-2     :     0.003383
      f+3     :     0.011123
      f-3     :     0.024049

  6 N s       :     3.043051  s :     3.043051
      pz      :     0.997739  p :     3.589061
      px      :     1.230876
      py      :     1.360446
      dz2     :     0.017450  d :     0.216510
      dxz     :     0.036589
      dyz     :     0.019397
      dx2y2   :     0.073250
      dxy     :     0.069824
      f0      :     0.000996  f :     0.017997
      f+1     :     0.001590
      f-1     :     0.001026
      f+2     :     0.002928
      f-2     :     0.000906
      f+3     :     0.003776
      f-3     :     0.006775

  7 H s       :     0.799861  s :     0.799861
      pz      :     0.027535  p :     0.061230
      px      :     0.014012
      py      :     0.019684

  8 H s       :     0.808727  s :     0.808727
      pz      :     0.013253  p :     0.061242
      px      :     0.014836
      py      :     0.033153

  9 H s       :     0.799546  s :     0.799546
      pz      :     0.028915  p :     0.061228
      px      :     0.014037
      py      :     0.018276

 10 H s       :     0.789972  s :     0.789972
      pz      :     0.011889  p :     0.059010
      px      :     0.014381
      py      :     0.032740

 11 H s       :     0.793636  s :     0.793636
      pz      :     0.012177  p :     0.059346
      px      :     0.038598
      py      :     0.008571

 12 H s       :     0.792967  s :     0.792967
      pz      :     0.011721  p :     0.058964
      px      :     0.014522
      py      :     0.032721


---------------------------------
LOEWDIN BOND ORDERS (THRESH 0.050000)
---------------------------------
B(  0-C ,  1-C ) :   1.2439 B(  0-C ,  2-C ) :   0.1764 B(  0-C ,  6-N ) :   0.1604 
B(  0-C ,  7-H ) :   0.8846 B(  0-C ,  8-H ) :   0.8925 B(  0-C ,  9-H ) :   0.8841 
B(  1-C ,  2-C ) :   1.4740 B(  1-C ,  3-N ) :   0.1955 B(  1-C ,  4-C ) :   0.1318 
B(  1-C ,  5-C ) :   0.3007 B(  1-C ,  6-N ) :   1.7078 B(  1-C ,  7-H ) :   0.0864 
B(  1-C ,  8-H ) :   0.0865 B(  1-C ,  9-H ) :   0.0867 B(  1-C , 10-H ) :   0.0935 
B(  2-C ,  3-N ) :   1.8108 B(  2-C ,  4-C ) :   0.3141 B(  2-C ,  5-C ) :   0.1444 
B(  2-C ,  6-N ) :   0.1942 B(  2-C , 10-H ) :   0.8396 B(  3-N ,  4-C ) :   1.7514 
B(  3-N ,  5-C ) :   0.2026 B(  3-N ,  6-N ) :   0.0746 B(  3-N , 10-H ) :   0.0768 
B(  3-N , 11-H ) :   0.0751 B(  4-C ,  5-C ) :   1.6305 B(  4-C ,  6-N ) :   0.2005 
B(  4-C , 11-H ) :   0.8478 B(  4-C , 12-H ) :   0.0986 B(  5-C ,  6-N ) :   1.7556 
B(  5-C , 11-H ) :   0.0987 B(  5-C , 12-H ) :   0.8459 B(  6-N , 12-H ) :   0.0762 


------------------------------------------
LOEWDIN REDUCED ORBITAL POPULATIONS PER MO
-------------------------------------------
THRESHOLD FOR PRINTING IS 0.1%%
                      0         1         2         3         4         5   
                 -16.54779 -16.54407 -12.10020 -12.08841 -12.08721 -12.08491
                   2.00000   2.00000   2.00000   2.00000   2.00000   2.00000
                  --------  --------  --------  --------  --------  --------
 0 C  dx2y2           0.0       0.0       0.1       0.0       0.0       0.0
 1 C  s               0.0       0.0      98.3       0.1       0.5       0.0
 1 C  dxy             0.0       0.1       0.0       0.0       0.2       0.0
 2 C  s               0.0       0.0       0.6       2.9      95.5       0.1
 2 C  dx2y2           0.1       0.0       0.0       0.0       0.0       0.0
 2 C  dxy             0.0       0.0       0.2       0.0       0.0       0.0
 3 N  s              99.4       0.0       0.0       0.0       0.0       0.0
 3 N  dx2y2           0.0       0.0       0.0       0.0       0.1       0.0
 4 C  s               0.0       0.0       0.0       9.8       0.1      89.2
 4 C  dxy             0.1       0.0       0.0       0.2       0.0       0.0
 5 C  s               0.0       0.0       0.0      86.3       2.9       9.9
 5 C  dx2y2           0.0       0.1       0.0       0.0       0.0       0.0
 5 C  dxy             0.0       0.0       0.0       0.0       0.0       0.2
 6 N  s               0.0      99.4       0.0       0.0       0.0       0.0
 6 N  dx2y2           0.0       0.0       0.1       0.1       0.0       0.0

                      6         7         8         9        10        11   
                 -12.03858  -1.55718  -1.50401  -1.32824  -1.23546  -1.19220
                   2.00000   2.00000   2.00000   2.00000   2.00000   2.00000
                  --------  --------  --------  --------  --------  --------
 0 C  s              99.5       0.5       0.3       6.0      18.1       0.0
 0 C  px              0.0       1.0       0.5       2.5       0.8       0.0
 0 C  py              0.0       0.0       0.1       0.0       0.0       0.6
 0 C  dz2             0.0       0.0       0.0       0.2       0.0       0.0
 0 C  dx2y2           0.0       0.1       0.1       0.5       0.1       0.0
 0 C  dxy             0.0       0.0       0.1       0.0       0.0       0.5
 1 C  s               0.0       7.9       3.6      14.4       3.8       0.2
 1 C  px              0.1       3.5       0.4       0.8       9.5       0.4
 1 C  py              0.0       1.2       6.6       1.9       0.2      16.9
 1 C  dz2             0.0       0.8       0.2       0.2       0.0       0.0
 1 C  dx2y2           0.1       0.0       0.4       0.0       1.1       0.1
 1 C  dxy             0.0       0.2       2.2       0.7       0.0       0.8
 1 C  f-1             0.0       0.0       0.1       0.0       0.0       0.1
 1 C  f+3             0.0       0.2       0.2       0.1       0.0       0.0
 2 C  s               0.0       8.1       3.2      10.0       2.0      10.3
 2 C  px              0.0       3.4       6.9       1.8       4.5       1.9
 2 C  py              0.0       1.7       0.7       1.0       1.4       0.1
 2 C  dz2             0.0       0.8       0.2       0.1       0.0       0.0
 2 C  dx2y2           0.0       0.2       2.4       0.0       0.0       0.1
 2 C  dxy             0.0       0.0       0.2       1.2       0.0       0.1
 2 C  f+3             0.0       0.2       0.1       0.1       0.0       0.0
 2 C  f-3             0.0       0.0       0.1       0.0       0.1       0.0
 3 N  s               0.0      17.5      20.0       0.0       0.6       2.8
 3 N  px              0.0       0.8       0.5       6.0       8.0      10.0
 3 N  py              0.0       1.9       1.1       2.4       4.7       1.4
 3 N  dz2             0.0       0.2       0.1       0.0       0.0       0.0
 3 N  dx2y2           0.0       0.0       0.0       0.8       0.7       0.2
 3 N  dxy             0.0       0.0       0.1       0.2       0.1       0.2
 4 C  s               0.0       7.8       3.2       9.1      10.6       0.1
 4 C  px              0.0       3.7       0.4       0.5       0.2       0.6
 4 C  py              0.0       1.3       6.7       1.5       0.6      16.5
 4 C  dz2             0.0       0.7       0.2       0.1       0.0       0.0
 4 C  dx2y2           0.0       0.1       0.5       0.2       0.2       0.1
 4 C  dxy             0.0       0.2       2.1       0.7       0.2       0.7
 4 C  f-1             0.0       0.0       0.1       0.0       0.0       0.1
 4 C  f+3             0.0       0.2       0.1       0.1       0.1       0.0
 5 C  s               0.0       7.6       3.1      11.5       1.2      10.6
 5 C  px              0.0       3.1       6.5       0.6       6.4       1.6
 5 C  py              0.0       1.7       0.7       0.7       2.7       0.1
 5 C  dz2             0.0       0.7       0.2       0.1       0.0       0.0
 5 C  dx2y2           0.0       0.2       2.4       0.0       0.6       0.1
 5 C  dxy             0.0       0.0       0.1       0.8       0.4       0.1
 5 C  f+3             0.0       0.2       0.1       0.1       0.0       0.0
 6 N  s               0.0      16.7      20.1       0.2       1.9       2.7
 6 N  px              0.0       0.7       0.4       9.4       0.9      10.5
 6 N  py              0.0       2.0       1.2       3.4       0.8       1.4
 6 N  dz2             0.0       0.2       0.1       0.0       0.0       0.0
 6 N  dx2y2           0.0       0.0       0.0       0.9       0.0       0.2
 6 N  dxy             0.0       0.0       0.1       0.3       0.0       0.2
 7 H  s               0.0       0.1       0.0       1.0       4.1       0.0
 7 H  pz              0.0       0.0       0.0       0.0       0.2       0.0
 7 H  py              0.0       0.0       0.0       0.0       0.1       0.0
 8 H  s               0.0       0.1       0.1       1.0       4.0       0.0
 8 H  px              0.0       0.0       0.0       0.0       0.1       0.0
 8 H  py              0.0       0.0       0.0       0.1       0.3       0.0
 9 H  s               0.0       0.1       0.0       1.0       4.1       0.0
 9 H  pz              0.0       0.0       0.0       0.1       0.3       0.0
10 H  s               0.0       0.7       0.3       1.5       0.3       3.1
10 H  py              0.0       0.0       0.0       0.2       0.0       0.4
11 H  s               0.0       0.7       0.3       1.3       2.4       0.0
11 H  px              0.0       0.0       0.0       0.2       0.3       0.0
11 H  py              0.0       0.0       0.0       0.0       0.0       0.1
12 H  s               0.0       0.7       0.3       1.6       0.2       3.1
12 H  py              0.0       0.0       0.0       0.2       0.0       0.4

                     12        13        14        15        16        17   
                  -1.14819  -1.05274  -0.97916  -0.93064  -0.88487  -0.87334
                   2.00000   2.00000   2.00000   2.00000   2.00000   2.00000
                  --------  --------  --------  --------  --------  --------
 0 C  s              14.7       0.1       0.5       0.6       0.3       0.0
 0 C  pz              0.0       0.0       0.0       0.0       0.0      11.0
 0 C  px              1.8       0.1       3.3      11.3      13.2       0.0
 0 C  py              0.0       1.2       0.0       0.2       0.2       0.0
 0 C  dz2             0.1       0.0       0.1       0.1       0.1       0.0
 0 C  dxz             0.0       0.0       0.0       0.0       0.0       0.1
 0 C  dyz             0.0       0.0       0.0       0.0       0.0       0.1
 0 C  dx2y2           0.3       0.0       0.1       0.5       0.2       0.0
 0 C  dxy             0.0       0.6       0.0       0.0       0.0       0.0
 1 C  s               3.4       0.2       0.2       2.5       0.0       0.0
 1 C  pz              0.0       0.0       0.0       0.0       0.0      18.5
 1 C  px              9.5       0.3       2.5       3.2      11.8       0.0
 1 C  py              0.5      15.0       0.1       0.4       0.4       0.0
 1 C  dz2             0.1       0.0       0.0       0.1       0.0       0.0
 1 C  dx2y2           1.8       0.0       2.2       0.4       0.0       0.0
 1 C  dxy             0.3       0.1       0.0       0.2       0.3       0.0
 1 C  f0              0.0       0.0       0.0       0.0       0.0       0.2
 1 C  f-3             0.0       0.1       0.0       0.1       0.1       0.0
 2 C  s               0.5       0.2       1.8       1.6       0.2       0.0
 2 C  pz              0.0       0.0       0.0       0.0       0.0      12.3
 2 C  px              5.7      12.2       2.4       0.8       1.8       0.0
 2 C  py              4.5       3.5      10.8       6.5      12.7       0.0
 2 C  dz2             0.0       0.0       0.0       0.0       0.2       0.0
 2 C  dyz             0.0       0.0       0.0       0.0       0.0       0.5
 2 C  dx2y2           1.4       0.1       0.0       0.9       0.0       0.0
 2 C  dxy             0.0       0.0       0.1       1.0       0.6       0.0
 2 C  f0              0.0       0.0       0.0       0.0       0.0       0.1
 2 C  f-3             0.0       0.1       0.0       0.0       0.1       0.0
 3 N  s               2.1       0.0       1.3       0.8       0.0       0.0
 3 N  pz              0.0       0.0       0.0       0.0       0.0      11.9
 3 N  px              1.4      11.8       3.4       0.1       1.0       0.0
 3 N  py              3.3       4.7       6.3       0.1       0.3       0.0
 3 N  dxz             0.0       0.0       0.0       0.0       0.0       0.1
 3 N  dyz             0.0       0.0       0.0       0.0       0.0       0.2
 3 N  dx2y2           0.1       0.1       0.2       0.0       0.7       0.0
 3 N  dxy             0.0       0.0       0.8       0.5       0.1       0.0
 3 N  f-3             0.0       0.0       0.0       0.0       0.2       0.0
 4 C  s               3.5       0.3       1.8       2.1       0.4       0.0
 4 C  pz              0.0       0.0       0.0       0.0       0.0       8.9
 4 C  px              0.2       0.0      16.2       3.1      15.4       0.0
 4 C  py              0.5      16.2       0.2       0.6       0.2       0.0
 4 C  dz2             0.0       0.0       0.0       0.0       0.1       0.0
 4 C  dxz             0.0       0.0       0.0       0.0       0.0       0.5
 4 C  dx2y2           0.1       0.0       0.2       2.4       0.6       0.0
 4 C  dxy             0.0       0.1       0.0       0.2       0.4       0.0
 4 C  f0              0.0       0.0       0.0       0.0       0.0       0.1
 4 C  f-3             0.0       0.1       0.0       0.1       0.1       0.0
 5 C  s               0.7       0.5       0.6       2.7       0.3       0.0
 5 C  pz              0.0       0.0       0.0       0.0       0.0      10.5
 5 C  px              5.5      12.7       1.1       3.3       0.8       0.0
 5 C  py              4.6       2.7       7.8      14.1       8.5       0.0
 5 C  dz2             0.0       0.0       0.0       0.0       0.1       0.0
 5 C  dxz             0.0       0.0       0.0       0.0       0.0       0.4
 5 C  dyz             0.0       0.0       0.0       0.0       0.0       0.3
 5 C  dx2y2           0.2       0.1       0.5       1.2       0.2       0.0
 5 C  dxy             0.0       0.0       0.4       1.1       0.3       0.0
 5 C  f0              0.0       0.0       0.0       0.0       0.0       0.1
 5 C  f-3             0.1       0.1       0.0       0.0       0.1       0.0
 6 N  s               0.9       0.0       1.8       0.6       0.0       0.0
 6 N  pz              0.0       0.0       0.0       0.0       0.0      17.1
 6 N  px              5.3      11.1       2.8       0.8       0.1       0.0
 6 N  py              7.4       3.5       5.2       0.5       0.2       0.0
 6 N  dyz             0.0       0.0       0.0       0.0       0.0       0.3
 6 N  dx2y2           1.1       0.0       0.0       0.0       0.6       0.0
 6 N  dxy             0.0       0.0       0.3       0.9       0.1       0.0
 6 N  f-3             0.0       0.0       0.0       0.0       0.2       0.0
 7 H  s               4.8       0.0       0.6       1.7       1.6       2.6
 7 H  pz              0.3       0.0       0.0       0.1       0.1       0.0
 7 H  py              0.1       0.0       0.0       0.0       0.0       0.1
 8 H  s               5.0       0.3       0.5       1.3       1.1       0.0
 8 H  pz              0.0       0.0       0.0       0.0       0.0       0.1
 8 H  py              0.5       0.0       0.1       0.1       0.1       0.0
 9 H  s               4.8       0.0       0.6       1.7       1.6       2.8
 9 H  pz              0.4       0.0       0.0       0.1       0.1       0.0
 9 H  py              0.1       0.0       0.0       0.0       0.0       0.1
10 H  s               0.0       0.1       8.3       7.3       7.6       0.0
10 H  pz              0.0       0.0       0.0       0.0       0.0       0.1
10 H  px              0.1       0.1       0.1       0.1       0.1       0.0
10 H  py              0.0       0.1       0.3       0.2       0.2       0.0
11 H  s               1.2       0.1       9.4       5.0       9.3       0.0
11 H  px              0.2       0.0       0.5       0.2       0.3       0.0
11 H  py              0.0       0.2       0.0       0.0       0.0       0.0
12 H  s               0.5       0.3       3.7      15.1       4.1       0.0
12 H  px              0.1       0.1       0.1       0.1       0.0       0.0
12 H  py              0.0       0.1       0.1       0.5       0.1       0.0

                     18        19        20        21        22        23   
                  -0.85807  -0.83943  -0.82325  -0.81997  -0.77924  -0.75783
                   2.00000   2.00000   2.00000   2.00000   2.00000   2.00000
                  --------  --------  --------  --------  --------  --------
 0 C  s               0.2       0.0       0.0       0.0       0.0       0.1
 0 C  pz              0.0       0.0      37.1       0.0       4.1       0.0
 0 C  px             14.2       0.0       0.0       0.0       0.0       2.1
 0 C  py              0.5       3.8       0.0      46.2       0.0       0.8
 0 C  dz2             0.0       0.1       0.0       0.8       0.0       0.0
 0 C  dxz             0.0       0.0       0.5       0.0       0.6       0.0
 0 C  dyz             0.0       0.0       0.9       0.0       0.3       0.0
 0 C  dx2y2           0.4       0.1       0.0       0.1       0.0       0.0
 0 C  dxy             0.0       0.1       0.0       1.6       0.0       0.3
 1 C  s               0.6       0.6       0.0       0.1       0.0       0.1
 1 C  pz              0.0       0.0       1.0       0.0       3.3       0.0
 1 C  px              6.6       0.6       0.0       0.0       0.0       1.2
 1 C  py              1.1       1.2       0.0       0.2       0.0       5.0
 1 C  dz2             0.0       0.2       0.0       0.0       0.0       0.0
 1 C  dxz             0.0       0.0       2.6       0.0       0.6       0.0
 1 C  dyz             0.0       0.0       0.0       0.0       3.2       0.0
 1 C  dx2y2           2.1       0.8       0.0       0.7       0.0       1.6
 1 C  dxy             0.1       1.8       0.0       1.7       0.0       0.7
 1 C  f+2             0.0       0.0       0.2       0.0       0.1       0.0
 1 C  f-2             0.0       0.0       0.0       0.0       0.3       0.0
 1 C  f-3             0.0       0.3       0.0       0.8       0.0       0.1
 2 C  s               0.8       0.9       0.0       0.0       0.0       0.0
 2 C  pz              0.0       0.0       3.4       0.0       5.8       0.0
 2 C  px              4.4       0.9       0.0       0.4       0.0       2.1
 2 C  py              3.4       0.5       0.0       0.0       0.0       4.4
 2 C  dz2             0.0       0.3       0.0       0.0       0.0       0.0
 2 C  dxz             0.0       0.0       1.1       0.0       1.8       0.0
 2 C  dyz             0.0       0.0       0.0       0.0       0.3       0.0
 2 C  dx2y2           1.2       0.0       0.0       0.1       0.0       0.4
 2 C  dxy             2.0       2.2       0.0       0.1       0.0       2.4
 2 C  f+2             0.0       0.0       0.1       0.0       0.3       0.0
 2 C  f-3             0.0       0.5       0.0       0.0       0.0       0.2
 3 N  s               0.0       5.0       0.0       0.1       0.0       3.0
 3 N  pz              0.0       0.0      13.5       0.0      23.7       0.0
 3 N  px              3.8       9.8       0.0       0.3       0.0       5.5
 3 N  py              1.9      24.5       0.0       0.6       0.0      15.1
 3 N  dz2             0.0       0.1       0.0       0.0       0.0       0.1
 3 N  dyz             0.0       0.0       0.2       0.0       0.0       0.0
 3 N  dx2y2           0.2       0.1       0.0       0.0       0.0       0.2
 3 N  dxy             0.0       0.2       0.0       0.0       0.0       1.2
 4 C  s               0.6       0.8       0.0       0.0       0.0       0.0
 4 C  pz              0.0       0.0       8.5       0.0       3.2       0.0
 4 C  px              7.1       0.1       0.0       0.5       0.0       1.8
 4 C  py              1.3       1.0       0.0       0.1       0.0       4.4
 4 C  dz2             0.0       0.2       0.0       0.0       0.0       0.0
 4 C  dxz             0.0       0.0       0.2       0.0       0.0       0.0
 4 C  dyz             0.0       0.0       0.2       0.0       2.8       0.0
 4 C  dx2y2           2.8       1.6       0.0       0.0       0.0       2.0
 4 C  dxy             0.0       0.9       0.0       0.1       0.0       0.3
 4 C  f-2             0.0       0.0       0.0       0.0       0.3       0.0
 4 C  f-3             0.0       0.5       0.0       0.0       0.0       0.2
 5 C  s               0.6       0.7       0.0       0.1       0.0       0.0
 5 C  pz              0.0       0.0       2.7       0.0       8.7       0.0
 5 C  px              3.9       0.7       0.0       1.0       0.0       2.0
 5 C  py              3.9       0.3       0.0       0.1       0.0       4.2
 5 C  dz2             0.0       0.2       0.0       0.0       0.0       0.0
 5 C  dxz             0.0       0.0       0.1       0.0       2.5       0.0
 5 C  dyz             0.0       0.0       0.3       0.0       0.3       0.0
 5 C  dx2y2           1.2       0.0       0.0       0.0       0.0       0.4
 5 C  dxy             1.7       2.1       0.0       0.2       0.0       2.4
 5 C  f+2             0.0       0.0       0.0       0.0       0.3       0.0
 5 C  f-3             0.0       0.4       0.0       0.1       0.0       0.2
 6 N  s               0.0       3.6       0.0       1.4       0.0       2.9
 6 N  pz              0.0       0.0       0.2       0.0      32.4       0.0
 6 N  px              3.7       6.6       0.0       4.0       0.0       5.2
 6 N  py              1.2      22.2       0.0       2.7       0.0      16.3
 6 N  dxz             0.0       0.0       0.1       0.0       0.1       0.0
 6 N  dx2y2           0.2       0.0       0.0       0.1       0.0       0.2
 6 N  dxy             0.0       0.1       0.0       0.1       0.0       1.1
 7 H  s               0.7       0.5      12.2       6.9       1.9       0.0
 7 H  pz              0.0       0.0       0.0       0.4       0.0       0.0
 7 H  px              0.1       0.0       0.1       0.0       0.0       0.0
 7 H  py              0.0       0.0       0.3       0.1       0.0       0.0
 8 H  s               3.2       1.8       0.0      20.6       0.0       1.5
 8 H  pz              0.0       0.0       0.5       0.0       0.1       0.0
 8 H  px              0.0       0.0       0.0       0.3       0.0       0.0
 8 H  py              0.1       0.0       0.0       0.3       0.0       0.0
 9 H  s               0.8       0.4      13.0       5.6       2.1       0.0
 9 H  pz              0.0       0.0       0.0       0.3       0.0       0.0
 9 H  px              0.1       0.0       0.1       0.0       0.0       0.0
 9 H  py              0.0       0.0       0.3       0.2       0.0       0.0
10 H  s               7.5       0.1       0.0       0.0       0.0       2.7
10 H  py              0.2       0.0       0.0       0.0       0.0       0.0
11 H  s               7.4       0.3       0.0       0.3       0.0       2.0
11 H  px              0.2       0.0       0.0       0.0       0.0       0.0
12 H  s               7.3       0.1       0.0       0.0       0.0       2.7
12 H  pz              0.0       0.0       0.0       0.0       0.1       0.0
12 H  py              0.2       0.0       0.0       0.0       0.0       0.0

                     24        25        26        27        28        29   
                  -0.65378  -0.34467  -0.25311  -0.12904  -0.06396  -0.02983
                   2.00000   0.00000   0.00000   0.00000   0.00000   0.00000
                  --------  --------  --------  --------  --------  --------
 0 C  s               0.0       0.0       0.0       0.0       0.2       8.0
 0 C  pz              1.5       0.1       0.0       0.1       0.0       0.0
 0 C  px              0.0       0.0       0.0       0.0       0.2      12.8
 0 C  py              0.0       0.0       0.0       0.0       0.3       0.2
 0 C  dz2             0.0       0.0       0.0       0.0       0.5       2.7
 0 C  dxz             1.7       0.8       2.2       1.9       0.0       0.0
 0 C  dyz             0.1       0.0       0.4       0.4       0.0       0.0
 0 C  dx2y2           0.0       0.0       0.0       0.0       0.6       5.4
 0 C  dxy             0.0       0.0       0.0       0.0       3.2       0.1
 0 C  f+1             0.0       0.0       0.0       0.0       0.0       0.2
 0 C  f+2             0.1       0.1       0.2       0.1       0.0       0.0
 0 C  f+3             0.0       0.0       0.0       0.0       0.0       0.6
 0 C  f-3             0.0       0.0       0.0       0.0       0.1       0.0
 1 C  s               0.0       0.0       0.0       0.0       2.0       7.8
 1 C  pz             17.0       7.7      19.2      12.0       0.0       0.0
 1 C  px              0.0       0.0       0.0       0.0       0.7       4.7
 1 C  py              0.0       0.0       0.0       0.0       4.3       0.3
 1 C  dz2             0.0       0.0       0.0       0.0       2.1       4.5
 1 C  dxz             0.7       0.0       0.6       1.3       0.0       0.0
 1 C  dyz             0.7       3.7       1.4       0.0       0.0       0.0
 1 C  dx2y2           0.0       0.0       0.0       0.0       1.2       6.0
 1 C  dxy             0.0       0.0       0.0       0.0       5.6       0.7
 1 C  f0              0.0       0.1       0.2       0.5       0.0       0.0
 1 C  f+2             0.1       0.0       0.0       0.3       0.0       0.0
 1 C  f-2             0.1       0.5       0.1       0.0       0.0       0.0
 1 C  f+3             0.0       0.0       0.0       0.0       0.6       1.1
 1 C  f-3             0.0       0.0       0.0       0.0       0.1       0.2
 2 C  s               0.0       0.0       0.0       0.0       1.2       2.4
 2 C  pz             21.6       8.6      18.9      12.4       0.0       0.0
 2 C  px              0.0       0.0       0.0       0.0       4.0       2.0
 2 C  py              0.0       0.0       0.0       0.0       0.0       2.3
 2 C  dz2             0.0       0.0       0.0       0.0       1.1       1.6
 2 C  dxz             0.5       3.5       0.3       0.3       0.0       0.0
 2 C  dyz             0.3       0.4       2.1       1.3       0.0       0.0
 2 C  dx2y2           0.0       0.0       0.0       0.0       6.4       3.5
 2 C  dxy             0.0       0.0       0.0       0.0       0.2       2.8
 2 C  f0              0.0       0.1       0.2       0.5       0.0       0.0
 2 C  f+2             0.0       0.4       0.0       0.1       0.0       0.0
 2 C  f-2             0.1       0.0       0.2       0.2       0.0       0.0
 2 C  f+3             0.0       0.0       0.0       0.0       0.2       0.6
 2 C  f-3             0.0       0.0       0.0       0.0       0.2       0.2
 3 N  s               0.0       0.0       0.0       0.0       6.3       1.1
 3 N  pz              0.0      24.9       0.0      13.8       0.0       0.0
 3 N  px              0.0       0.0       0.0       0.0       1.0       6.6
 3 N  py              0.0       0.0       0.0       0.0       3.0       0.1
 3 N  dz2             0.0       0.0       0.0       0.0       1.1       0.2
 3 N  dxz             1.8       0.3       2.8       0.3       0.0       0.0
 3 N  dyz             0.7       0.5       1.0       1.0       0.0       0.0
 3 N  dx2y2           0.0       0.0       0.0       0.0       0.1       2.3
 3 N  dxy             0.0       0.0       0.0       0.0       0.4       0.9
 3 N  f0              0.0       0.1       0.0       0.2       0.0       0.0
 3 N  f+2             0.2       0.0       0.2       0.0       0.0       0.0
 3 N  f+3             0.0       0.0       0.0       0.0       0.2       0.0
[...]
 1 C  f-3             0.6       1.0       2.8       3.4       0.5      12.5
 2 C  s               0.9       0.2       1.1       1.2       2.0       0.1
 2 C  px              1.2       1.9       0.5       0.2       0.5       0.2
 2 C  py              0.2       0.4       0.0       0.8       0.1       0.1
 2 C  dz2             0.2       0.7       0.2       0.2       0.4       0.0
 2 C  dx2y2           0.9       0.7       0.3       1.2       1.1       2.2
 2 C  dxy             0.2       0.5       0.9       3.3       0.0       1.1
 2 C  f+1             0.2       0.8       0.3       0.1       0.3       0.3
 2 C  f-1             0.0       0.3       0.0       0.1       0.0       0.1
 2 C  f+3             0.1       3.9       0.1       1.0       1.0       0.1
 2 C  f-3             0.0       0.6       0.5       1.9       4.0       6.9
 3 N  s               5.8       3.4       0.8       1.2       3.3       0.1
 3 N  px              0.0       0.5       0.9       1.3       0.1       0.2
 3 N  py              1.1       0.2       0.8       0.0       1.0       0.2
 3 N  dz2             2.0       8.7       1.5       0.1       0.4       0.0
 3 N  dx2y2           0.6       9.0      13.0       1.1       0.6       1.9
 3 N  dxy             5.9       3.4       7.0       1.4       6.8       0.5
 3 N  f+1             0.0       0.2       0.0       1.3       0.0       0.0
 3 N  f-1             1.9       0.2       0.1       0.1       0.3       0.0
 3 N  f+3            20.2       1.8       2.2       2.3      14.6       0.4
 3 N  f-3             0.1       0.5       2.5      26.2       1.9      19.2
 4 C  s               2.1       0.2       1.0       0.8       1.3       0.1
 4 C  px              0.2       0.1       0.2       0.2       0.6       0.1
 4 C  py              1.4       1.6       1.4       0.4       0.5       0.4
 4 C  dz2             0.4       0.1       0.8       0.2       0.3       0.0
 4 C  dx2y2           1.7       0.4       2.0       0.6       2.4       0.0
 4 C  dxy             0.9       0.2       0.1       1.4       0.1       2.1
 4 C  f+1             0.0       0.1       0.0       0.0       0.1       0.0
 4 C  f-1             0.0       0.3       0.9       0.4       0.1       0.3
 4 C  f+3             0.2       0.6       3.8       2.9       0.0       0.1
 4 C  f-3             0.0       1.9       0.2       4.6       0.1       5.4
 5 C  s               1.8       0.4       1.4       0.6       1.3       0.2
 5 C  px              1.1       1.3       0.5       0.2       1.0       0.4
 5 C  py              0.3       0.3       0.4       0.5       0.2       0.2
 5 C  dz2             0.3       0.1       0.9       0.3       0.2       0.0
 5 C  dx2y2           0.9       0.1       0.7       2.0       0.6       1.2
 5 C  dxy             0.4       0.4       0.0       2.9       0.0       1.3
 5 C  f+1             0.0       0.2       0.4       0.2       0.6       0.3
 5 C  f-1             0.0       0.4       0.1       0.1       0.0       0.1
 5 C  f+3             0.0       1.0       6.6       0.1       0.1       0.1
 5 C  f-3             1.1       2.2       0.9       0.1       1.9       6.0
 6 N  s               5.9       3.3       0.6       0.6       4.7       0.0
 6 N  px              0.1       0.1       1.3       2.0       0.1       0.7
 6 N  py              0.5       0.5       0.3       0.0       1.2       0.1
 6 N  dz2             1.4      11.3       1.4       0.1       0.5       0.0
 6 N  dx2y2           1.4       0.0      23.1       1.8       9.6       3.1
 6 N  dxy             3.7      19.1       2.0       2.9       3.4       0.2
 6 N  f+1             0.2       0.0       0.9       1.2       0.0       0.0
 6 N  f-1             0.7       0.8       0.0       0.0       0.2       0.0
 6 N  f+3            21.5       0.3       2.0       1.1      17.3       0.5
 6 N  f-3             1.5       0.3       0.7      16.9       2.2      26.5
 8 H  s               0.0       0.2       0.0       0.0       0.0       0.1
10 H  s               0.0       0.4       0.0       0.4       0.3       0.0
10 H  px              0.0       0.0       0.1       0.1       0.1       0.0
10 H  py              0.0       0.1       0.0       0.1       0.0       0.0
11 H  s               0.1       0.3       0.4       0.5       0.0       0.0
11 H  px              0.1       0.0       0.0       0.1       0.0       0.0
11 H  py              0.0       0.1       0.0       0.1       0.0       0.0
12 H  s               0.0       0.2       0.9       0.1       0.1       0.0
12 H  px              0.0       0.1       0.1       0.0       0.0       0.0
12 H  py              0.0       0.1       0.1       0.1       0.0       0.0

                    246       247       248       249       250       251   
                  20.82162  20.83362  21.10279  21.28039  21.45495  30.26774
                   0.00000   0.00000   0.00000   0.00000   0.00000   0.00000
                  --------  --------  --------  --------  --------  --------
 0 C  s              94.8       1.6       1.2       0.2       0.3       0.0
 1 C  s               0.1       6.7      12.3       1.1      77.3       0.0
 1 C  px              0.3       0.0       0.0       0.0       0.2       0.0
 1 C  py              0.0       0.0       0.2       0.1       0.0       0.0
 1 C  dx2y2           0.2       0.0       0.0       0.0       0.1       0.0
 1 C  dxy             0.0       0.0       0.1       0.0       0.0       0.0
 2 C  s               0.8       8.1      64.7       5.1      18.6       0.0
 2 C  px              0.1       0.0       0.2       0.0       0.0       0.0
 3 N  s               0.0       0.6       0.1       0.4       0.1      68.7
 3 N  px              0.0       0.0       0.7       0.0       0.1       0.0
 3 N  py              0.0       0.2       0.1       0.1       0.0       0.0
 3 N  dx2y2           0.0       0.0       0.1       0.0       0.0       0.0
 4 C  s               1.0      37.8      18.7      39.2       0.8       0.0
 4 C  py              0.0       0.2       0.1       0.0       0.0       0.0
 5 C  s               1.3      42.8       0.4      52.1       0.8       0.0
 5 C  px              0.0       0.1       0.0       0.0       0.0       0.0
 5 C  dz2             0.0       0.0       0.0       0.1       0.0       0.0
 6 N  s               0.1       0.6       0.1       0.1       0.3      31.1
 6 N  px              0.0       0.2       0.0       0.3       0.2       0.0
 6 N  py              0.0       0.0       0.1       0.0       0.3       0.0
 7 H  s               0.2       0.0       0.0       0.0       0.0       0.0
 8 H  s               0.2       0.0       0.0       0.0       0.0       0.0
 9 H  s               0.2       0.0       0.0       0.0       0.0       0.0
10 H  s               0.0       0.0       0.2       0.0       0.0       0.0
11 H  s               0.0       0.1       0.0       0.1       0.0       0.0
12 H  s               0.0       0.1       0.0       0.1       0.0       0.0

                    252   
                  30.57491
                   0.00000
                  --------
 3 N  s              31.1
 6 N  s              68.6


                      *****************************
                      * MAYER POPULATION ANALYSIS *
                      *****************************

  NA   - Mulliken gross atomic population
  ZA   - Total nuclear charge
  QA   - Mulliken gross atomic charge
  VA   - Mayer's total valence
  BVA  - Mayer's bonded valence
  FA   - Mayer's free valence

  ATOM       NA         ZA         QA         VA         BVA        FA
  0 C      6.3931     6.0000    -0.3931     3.8750     3.8750     0.0000
  1 C      5.8199     6.0000     0.1801     3.8440     3.8440     0.0000
  2 C      6.0897     6.0000    -0.0897     4.0203     4.0203     0.0000
  3 N      7.2672     7.0000    -0.2672     3.0578     3.0578    -0.0000
  4 C      6.0482     6.0000    -0.0482     3.9723     3.9723     0.0000
  5 C      6.0387     6.0000    -0.0387     3.9833     3.9833     0.0000
  6 N      7.2937     7.0000    -0.2937     3.0785     3.0785    -0.0000
  7 H      0.8482     1.0000     0.1518     0.9633     0.9633     0.0000
  8 H      0.8604     1.0000     0.1396     0.9889     0.9889     0.0000
  9 H      0.8484     1.0000     0.1516     0.9633     0.9633     0.0000
 10 H      0.8299     1.0000     0.1701     0.9661     0.9661     0.0000
 11 H      0.8308     1.0000     0.1692     0.9690     0.9690     0.0000
 12 H      0.8318     1.0000     0.1682     0.9678     0.9678    -0.0000

  Mayer bond orders larger than 0.100000
B(  0-C ,  1-C ) :   0.9369 B(  0-C ,  7-H ) :   0.9645 B(  0-C ,  8-H ) :   0.9866 
B(  0-C ,  9-H ) :   0.9615 B(  1-C ,  2-C ) :   1.3766 B(  1-C ,  6-N ) :   1.4912 
B(  2-C ,  3-N ) :   1.5300 B(  2-C ,  5-C ) :   0.1035 B(  2-C , 10-H ) :   0.9583 
B(  3-N ,  4-C ) :   1.4416 B(  4-C ,  5-C ) :   1.4545 B(  4-C , 11-H ) :   0.9574 
B(  5-C ,  6-N ) :   1.4582 B(  5-C , 12-H ) :   0.9578 

-------
TIMINGS
-------

Total SCF time: 0 days 0 hours 1 min 43 sec 

Total time                  ....     103.225 sec
Sum of individual times     ....     100.189 sec  ( 97.1%)

SCF preparation             ....       0.282 sec  (  0.3%)
Fock matrix formation       ....      98.509 sec  ( 95.4%)
  Startup                   ....       0.056 sec  (  0.1% of F)
  Split-RI-J                ....       3.902 sec  (  4.0% of F)
  Chain of spheres X        ....      78.894 sec  ( 80.1% of F)
  XC integration            ....      12.721 sec  ( 12.9% of F)
    XC Preparation          ....       0.000 sec  (  0.0% of XC)
    Basis function eval.    ....       2.684 sec  ( 21.1% of XC)
    Density eval.           ....       2.372 sec  ( 18.7% of XC)
    XC-Functional eval.     ....       2.459 sec  ( 19.3% of XC)
    XC-Potential eval.      ....       3.844 sec  ( 30.2% of XC)
  CPCM terms                ....       4.121 sec  (  4.2% of F)
Diagonalization             ....       0.000 sec  (  0.0%)
Density matrix formation    ....       0.184 sec  (  0.2%)
Total Energy calculation    ....       0.052 sec  (  0.1%)
Population analysis         ....       0.135 sec  (  0.1%)
Orbital Transformation      ....       0.061 sec  (  0.1%)
Orbital Orthonormalization  ....       0.000 sec  (  0.0%)
DIIS solution               ....       0.513 sec  (  0.5%)
  MO trafo                  ....       0.000 sec  (  0.0 % of DIIS)
  Orb grad                  ....       0.000 sec  (  0.0 % of DIIS)
  Energy W gradient         ....       0.000 sec  (  0.0 % of DIIS)
  DIIS error                ....       0.010 sec  (  1.9 % of DIIS)
  DIIS work                 ....       0.459 sec  ( 89.6 % of DIIS)
  Form Q                    ....       0.000 sec  (  0.0 % of DIIS)
  Form QpQm                 ....       0.000 sec  (  0.0 % of DIIS)
  Exp/Cayley                ....       0.000 sec  (  0.0 % of DIIS)
  Orb update                ....       0.000 sec  (  0.0 % of DIIS)
  Wake-sleep                ....       0.012 sec  (  2.3 % of DIIS)
SOSCF solution              ....       0.158 sec  (  0.2%)
  MO trafo                  ....       0.067 sec  ( 42.5 % of SOSCF)
  Orb grad                  ....       0.002 sec  (  1.5 % of SOSCF)
  Rot update                ....       0.037 sec  ( 23.3 % of SOSCF)
  Step                      ....       0.051 sec  ( 32.6 % of SOSCF)
Grid generation             ....       0.295 sec  (  0.3%)
Finished LeanSCF after 103.3 sec

Maximum memory used throughout the entire LEANSCF-calculation: 31.2 MB
------------------   -----------------
gCP correction             0.007007422
------------------   -----------------

-------------------------   --------------------
FINAL SINGLE POINT ENERGY      -303.658396569029
-------------------------   --------------------


------------------------------------------------------------------------------
                              ORCA PROPERTY CALCULATIONS
------------------------------------------------------------------------------

GBWName                                 ... sp_solv.gbw
Number of atoms                         ...     13
Number of basis functions               ...    253
Max core memory                         ...   1024 MB

Electric properties:
Dipole moment                           ... YES
Quadrupole moment                       ...  NO
Static polarizability (Dipole/Dipole)   ...  NO
Static polarizability (Dipole/Quad.)    ...  NO
Static polarizability (Quad./Quad.)     ...  NO
Static polarizability (Velocity)        ...  NO

Atomic electric properties:
Dipole moment                           ...  NO
Quadrupole moment                       ...  NO
Static polarizability                   ...  NO

Choice of electric origin               ... Center of mass
Position of electric origin             ...    -0.005943    -0.008038     0.000311

General magnetic properties:
Magnetizability                         ...  NO

EPR properties:
g-Tensor (aka g-matrix)                 ...  NO
Zero-Field splitting spin-orbit         ...  NO
Zero-field splitting spin-spin          ...  NO
Hyperfine couplings                     ...  NO (   0 nuclei)
Quadrupole couplings                    ...  NO (   0 nuclei)
Contact density                         ...  NO (   0 nuclei)

NMR properties:
Chemical shifts                         ...  NO (   0 nuclei)
Spin-rotation constants                 ...  NO (   0 nuclei)
Spin-spin couplings                     ...  NO (   0 nuclei,    0 pairs)

Choice of magnetic origin               ... GIAO
Position of magnetic origin             ...     0.000000     0.000000     0.000000

Properties with geometric perturbations:
SCF Hessian                             ...  NO
IR spectrum                             ...  NO
VCD spectrum                            ...  NO
X-ray spectroscopy properties:
SCF XES/XAS/RIXS spectra                ...  NO


-------------
DIPOLE MOMENT
-------------

Method             : SCF
Type of density    : Electron Density
Multiplicity       :   1
Irrep              :   0
Energy             :  -303.6654039915292174 Eh
Relativity type    : 
Basis              : AO
                                X                 Y                 Z
Electronic contribution:     -3.984629263      -0.141875093       0.004942060
Nuclear contribution   :      4.313493539       0.190249172      -0.007680939
                        -----------------------------------------
Total Dipole Moment    :      0.328864276       0.048374079      -0.002738879
                        -----------------------------------------
Magnitude (a.u.)       :      0.332414297
Magnitude (Debye)      :      0.844929996



--------------------
Rotational spectrum 
--------------------
 
Rotational constants in cm-1:             0.195987             0.090069             0.062424 
Rotational constants in MHz :          5875.544947          2700.193779          1871.416282 

Dipole components along the rotational axes: 
x,y,z [a.u.] :     0.329099     0.046750    -0.002772 
x,y,z [Debye]:     0.836503     0.118829    -0.007045 

 

Dipole moment calculation done in   0.0 sec 

Maximum memory used throughout the entire PROP-calculation: 19.2 MB

--------------------------------
SUGGESTED CITATIONS FOR THIS RUN
--------------------------------

Below you find a list of papers that are relevant to this ORCA run
We neither can nor want to force you to cite these papers, but we appreciate if you do
You receive ORCA, which is the product of decades of hard work by many enthusiastic individuals, for free
The only thing we kindly ask in return is that you cite our papers,
We deeply appreciate it, if you show your appreciation for ORCA by not just citing the generic ORCA reference.

Please note that relegating all ORCA citations to the supporting information does *not* help us.
SI sections are not indexed - citations you put there will not count into any citation statistics
But we need these citations in order to attract the funding resources that allow us to do what we are doing

Therefore, if you are a happy ORCA user, please consider citing a few of the papers listed below in the main body of your paper

In addition to the list printed below, the program has created the file sp_solv.bibtex that contains the list in bibtex format
You can import this file easily into all common literature databanks and citation aid programs


List of essential papers. We consider these as the minimum necessary citations

  1. Neese,F.
     Software update: the ORCA program system, version 5.0
     WIRES Comput. Molec. Sci., 2022 12(1)e1606
     doi.org/10.1002/wcms.1606

List of papers to cite with high priority. The work reported in these papers was absolutely
necessary for this run to complete.
Our perspective: the developers of density functionals and basis sets usually get cited in chemistry papers
Good! But without the algorithms to do something with them, the functionals or basis sets would not do anything.
Hence, in our opinion, the algorithm design and method developments papers are equally worthy of getting cited

  1. Neese,F.
     An improvement of the resolution of the identity approximation for the formation of the Coulomb matrix
     J. Comp. Chem., 2003 24(14)1740-1747
     doi.org/10.1002/jcc.10318
  2. Neese,F.; Wennmohs,F.; Hansen,A.; Becker,U.
     Efficient, approximate and parallel Hartree-Fock and hybrid DFT calculations. A 'chain-of-spheres' algorithm for the Hartree-Fock exchange
     Chem. Phys., 2009 356(1-3)98-109
     doi.org/10.1016/j.chemphys.2008.10.036
  3. Garcia-Rates,M.; Neese,F.
     Effect of the Solute Cavity on the Solvation Energy and its Derivatives within the Framework of the Gaussian Charge Scheme
     J. Comput. Chem., 2020 41 922-939
     doi.org/10.1002/jcc.26139
  4. Helmich-Paris,B.; de Souza,B.; Neese,F.; Izsák,R.
     An improved chain of spheres for exchange algorithm
     J. Chem. Phys., 2021 155 104109
     doi.org/doi: 10.1063/5.0058766.
  5. Neese,F.
     The SHARK Integral Generation and Digestion System
     J. Comp. Chem., 2022  1-16
     doi.org/10.1002/jcc.26942

List of suggested additional citations. These are papers that are important in the 'surrounding' of 
of this run, or papers that preceded the highly important papers. If you like your results we are grateful for a citation.

  1. Izsak,R.; Neese,F.
     An overlap fitted chain of spheres exchange method
     J. Chem. Phys., 2011 135 144105
     doi.org/10.1063/1.3646921
  2. Izsak,R.; Hansen,A.; Neese,F.
     The resolution of identity and chain of spheres approximations for the LPNO-CCSD singles Fock term
     Molec. Phys., 2012 110 2413-2417
     doi.org/10.1080/00268976.2012.687466
  3. Neese,F.
     The ORCA program system
     WIRES Comput. Molec. Sci., 2012 2(1)73-78
     doi.org/10.1002/wcms.81
  4. Izsak,R.; Neese,F.; Klopper,W.
     Robust fitting techniques in the chain of spheres approximation to the Fock exchange: The role of the complementary space
     J. Chem. Phys., 2013 139 
     doi.org/10.1063/1.4819264
  5. Neese,F.
     Software update: the ORCA program system, version 4.0
     WIRES Comput. Molec. Sci., 2018 8(1)1-6
     doi.org/10.1002/wcms.1327
  6. Neese,F.; Wennmohs,F.; Becker,U.; Riplinger,C.
     The ORCA quantum chemistry program package
     J. Chem. Phys., 2020 152 Art. No. L224108
     doi.org/10.1063/5.0004608

List of optional additional citations

  1. Neese,F.
     Approximate second-order SCF convergence for spin unrestricted wavefunctions
     Chem. Phys. Lett., 2000 325(1-3)93-98
     doi.org/10.1016/s0009-2614(00)00662-x

Timings for individual modules:

Sum of individual times          ...      105.631 sec (=   1.761 min)
Startup calculation              ...        1.862 sec (=   0.031 min)   1.8 %
SCF iterations                   ...      103.658 sec (=   1.728 min)  98.1 %
Property calculations            ...        0.111 sec (=   0.002 min)   0.1 %
                             ****ORCA TERMINATED NORMALLY****
TOTAL RUN TIME: 0 days 0 hours 1 minutes 46 seconds 274 msec
