15
 energy: -196.458081053716 gnorm: 0.024344438299 xtb: 6.7.1 (edcfbbe)
C            1.19686331303036       -1.25629696785670        0.03825575691695
C            0.39975641147714       -0.00005002590002       -0.32068438734210
C            1.19588888402993        1.25679618185692        0.03829712861697
C           -0.90929580220293       -0.00030696580014        0.41059654288195
C           -2.09516879152842       -0.00023722700011       -0.16799899117444
H            0.63587253798177       -2.15007633535276       -0.22501314059971
H            1.40376495332205       -1.28059614936747        1.10597605779009
H            2.14296273584960       -1.26934381426248       -0.49753398232047
H            0.20513571889090       -0.00015926420007       -1.39832393501963
H            1.40337854132187        1.28088192776759        1.10590580629006
H            2.14167277714903        1.27102601216323       -0.49795598962066
H            0.63373663988083        2.15008000935276       -0.22423702069937
H           -0.82957452236761       -0.00039423230017        1.49028508756038
H           -3.01006672533384       -0.00031821540014        0.39993411177722
H           -2.20119118127541        0.00003215000001       -1.24075827164981
15
 energy: -196.458774469976 gnorm: 0.005558661853 xtb: 6.7.1 (edcfbbe)
C            1.19899422413825       -1.25993382928122        0.03605386671614
C            0.40032822892968       -0.00000285028282       -0.31783398022539
C            1.19808782424747        1.26049348888777        0.03609278313525
C           -0.91195924465043       -0.00035672353999        0.40883500578801
C           -2.10815763901436       -0.00025698824000       -0.17108462233440
H            0.64360400798175       -2.16424696607108       -0.22639636744710
H            1.40922777060454       -1.28687602729976        1.10964434181018
H            2.15281299909100       -1.27305680395379       -0.49850276108102
H            0.20031178386986       -0.00006223017226       -1.39648579578164
H            1.40884044727371        1.28720342767049        1.10958830701730
H            2.15161168221160        1.27470662285576       -0.49894241968924
H            0.64168020273155        2.16437932609154       -0.22568628765539
H           -0.83428286742766       -0.00051489205562        1.49624896316139
H           -3.02592113831044       -0.00034354360277        0.40800330074993
H           -2.21144278962326       -0.00009506576291       -1.25278962111092
15
 energy: -196.458820960990 gnorm: 0.000900173044 xtb: 6.7.1 (edcfbbe)
C            1.20025269575909       -1.25893251706069        0.03574335475138
C            0.39887900800966        0.00002366841730       -0.31890531974078
C            1.19938734423961        1.25952496114543        0.03579576586855
C           -0.91421814128373       -0.00034076429633        0.40733088301584
C           -2.11354732542253       -0.00030947587316       -0.17155864219899
H            0.64881444084507       -2.16706881285452       -0.22825915295710
H            1.41146492900259       -1.28921626088062        1.11118827483815
H            2.15707947462118       -1.27055139008224       -0.49724573572324
H            0.19788132848858       -0.00001975965473       -1.39819354057589
H            1.41106676296959        1.28961665123504        1.11115518747779
H            2.15594776244323        1.27211820167955       -0.49764438655136
H            0.64704947259748        2.16728280138619       -0.22763379607258
H           -0.83993834869156       -0.00055123402008        1.49743906432646
H           -3.03003480284148       -0.00047066359500        0.41289125332444
H           -2.21634912285859       -0.00006854321235       -1.25535851195943
15
 energy: -196.458825682344 gnorm: 0.000527959598 xtb: 6.7.1 (edcfbbe)
C            1.20039915341920       -1.25891211745359        0.03526020558919
C            0.39868319122280        0.00006062159311       -0.31840785528011
C            1.19959568841358        1.25953711805636        0.03532734485145
C           -0.91496054487764       -0.00034514722142        0.40687305171646
C           -2.11492701725944       -0.00033515975400       -0.17119195730967
H            0.65200557518716       -2.16833734686187       -0.23095829855871
H            1.41036714907285       -1.29037776853711        1.11104170158908
H            2.15848139131595       -1.26753447656859       -0.49589532873621
H            0.19807071636997        0.00003665914574       -1.39782363235661
H            1.40995337776969        1.29084150879092        1.11103708481654
H            2.15745923314061        1.26903998515626       -0.49620955577016
H            0.65039464588451        2.16861685283611       -0.23041122706636
H           -0.84364404791212       -0.00057089370319        1.49731863781861
H           -3.02968506264505       -0.00056513050674        0.41565666915083
H           -2.21845798666331       -0.00011786874199       -1.25487214666983
15
 energy: -196.458825682344 gnorm: 0.000527959598 xtb: 6.7.1 (edcfbbe)
C            1.20039915341920       -1.25891211745359        0.03526020558919
C            0.39868319122280        0.00006062159311       -0.31840785528011
C            1.19959568841358        1.25953711805636        0.03532734485145
C           -0.91496054487764       -0.00034514722142        0.40687305171646
C           -2.11492701725944       -0.00033515975400       -0.17119195730967
H            0.65200557518716       -2.16833734686187       -0.23095829855871
H            1.41036714907285       -1.29037776853711        1.11104170158908
H            2.15848139131595       -1.26753447656859       -0.49589532873621
H            0.19807071636997        0.00003665914574       -1.39782363235661
H            1.40995337776969        1.29084150879092        1.11103708481654
H            2.15745923314061        1.26903998515626       -0.49620955577016
H            0.65039464588451        2.16861685283611       -0.23041122706636
H           -0.84364404791212       -0.00057089370319        1.49731863781861
H           -3.02968506264505       -0.00056513050674        0.41565666915083
H           -2.21845798666331       -0.00011786874199       -1.25487214666983
