      -----------------------------------------------------------      
     |                   =====================                   |     
     |                           x T B                           |     
     |                   =====================                   |     
     |                         S. Grimme                         |     
     |          Mulliken Center for Theoretical Chemistry        |     
     |                    University of Bonn                     |     
      -----------------------------------------------------------      

   * xtb version 6.7.1 (edcfbbe) compiled by 'albert@albert-system' on 2024-07-22

   xtb is free software: you can redistribute it and/or modify it under
   the terms of the GNU Lesser General Public License as published by
   the Free Software Foundation, either version 3 of the License, or
   (at your option) any later version.
   
   xtb is distributed in the hope that it will be useful,
   but WITHOUT ANY WARRANTY; without even the implied warranty of
   MERCHANTABILITY or FITNESS FOR A PARTICULAR PURPOSE.  See the
   GNU Lesser General Public License for more details.
   
   Cite this work as:
   * C. Bannwarth, E. Caldeweyher, S. Ehlert, A. Hansen, P. Pracht,
     J. Seibert, S. Spicher, S. Grimme, WIREs Comput. Mol. Sci., 2020, 11,
     e01493. DOI: 10.1002/wcms.1493
   
   for GFN2-xTB:
   * C. Bannwarth, S. Ehlert and S. Grimme., J. Chem. Theory Comput., 2019,
     15, 1652-1671. DOI: 10.1021/acs.jctc.8b01176
   for GFN1-xTB:
   * S. Grimme, C. Bannwarth, P. Shushkov, J. Chem. Theory Comput., 2017,
     13, 1989-2009. DOI: 10.1021/acs.jctc.7b00118
   for GFN0-xTB:
   * P. Pracht, E. Caldeweyher, S. Ehlert, S. Grimme, ChemRxiv, 2019, preprint.
     DOI: 10.26434/chemrxiv.8326202.v1
   for GFN-FF:
   * S. Spicher and S. Grimme, Angew. Chem. Int. Ed., 2020, 59, 15665-15673.
     DOI: 10.1002/anie.202004239
   
   for ALPB and GBSA implicit solvation:
   * S. Ehlert, M. Stahn, S. Spicher, S. Grimme, J. Chem. Theory Comput.,
     2021, 17, 4250-4261. DOI: 10.1021/acs.jctc.1c00471
   
   for ddCOSMO and CPCM-X implicit solvation:
   * M. Stahn, S. Ehlert, S. Grimme, J. Phys. Chem. A,
     2023, XX, XXXX-XXXX. DOI: 10.1021/acs.jpca.3c04382
   
   for DFT-D4:
   * E. Caldeweyher, C. Bannwarth and S. Grimme, J. Chem. Phys., 2017,
     147, 034112. DOI: 10.1063/1.4993215
   * E. Caldeweyher, S. Ehlert, A. Hansen, H. Neugebauer, S. Spicher,
     C. Bannwarth and S. Grimme, J. Chem. Phys., 2019, 150, 154122.
     DOI: 10.1063/1.5090222
   * E. Caldeweyher, J.-M. Mewes, S. Ehlert and S. Grimme, Phys. Chem. Chem. Phys.
     2020, 22, 8499-8512. DOI: 10.1039/D0CP00502A
   
   for sTDA-xTB:
   * S. Grimme and C. Bannwarth, J. Chem. Phys., 2016, 145, 054103.
     DOI: 10.1063/1.4959605
   
   in the mass-spec context:
   * V. Asgeirsson, C. Bauer and S. Grimme, Chem. Sci., 2017, 8, 4879.
     DOI: 10.1039/c7sc00601b
   * J. Koopman and S. Grimme, ACS Omega 2019, 4, 12, 15120-15133.
     DOI: 10.1021/acsomega.9b02011
   
   for metadynamics refer to:
   * S. Grimme, J. Chem. Theory Comput., 2019, 155, 2847-2862
     DOI: 10.1021/acs.jctc.9b00143
   
   for SPH calculations refer to:
   * S. Spicher and S. Grimme, J. Chem. Theory Comput., 2021, 17, 1701-1714
     DOI: 10.1021/acs.jctc.0c01306
   
   for ONIOM refer to:
   * C. Plett, A. Katbashev, S. Ehlert, S. Grimme, M. Bursch,
     Phys. Chem. Chem. Phys., 2023, 25, 17860-17868. DOI: 10.1039/D3CP02178E
   
   for DIPRO refer to:
   * J. Kohn, N. Gildemeister, S. Grimme, D. Fazzi, A. Hansen,
     J. Chem. Phys., 2023, just accepted.
   
   for PTB refer to:
   * S. Grimme, M. Mueller, A. Hansen, J. Chem. Phys., 2023, 158, 124111.
     DOI: 10.1063/5.0137838
   
   with help from (in alphabetical order)
   P. Atkinson, C. Bannwarth, F. Bohle, G. Brandenburg, E. Caldeweyher
   M. Checinski, S. Dohm, S. Ehlert, S. Ehrlich, I. Gerasimov, C. Hölzer
   A. Katbashev, J. Kohn, J. Koopman, C. Lavigne, S. Lehtola, F. März, M. Müller,
   F. Musil, H. Neugebauer, J. Pisarek, C. Plett, P. Pracht, F. Pultar,
   J. Seibert, P. Shushkov, S. Spicher, M. Stahn, M. Steiner, T. Strunk,
   J. Stückrath, T. Rose, and J. Unsleber
   
 * started run on 2025/04/06 at 11:44:46.534     
   ID    Z sym.   atoms
    1    6 C      1, 2, 4-6, 8, 10, 12-14
    2    1 H      3, 7, 9, 15-31
    3    8 O      11

           -------------------------------------------------
          |                Calculation Setup                |
           -------------------------------------------------

          program call               : /srv/scratch/z5358697/.xtb/bin/xtb gas.coord --gfn2 --sp --chrg 0 --norestart --parallel 1
          hostname                   : k140
          coordinate file            : gas.coord
          omp threads                :                     1


           -------------------------------------------------
          |                 G F N 2 - x T B                 |
           -------------------------------------------------

        Reference                      10.1021/acs.jctc.8b01176
      * Hamiltonian:
        H0-scaling (s, p, d)           1.850000    2.230000    2.230000
        zeta-weighting                 0.500000
      * Dispersion:
        s8                             2.700000
        a1                             0.520000
        a2                             5.000000
        s9                             5.000000
      * Repulsion:
        kExp                           1.500000    1.000000
        rExp                           1.000000
      * Coulomb:
        alpha                          2.000000
        third order                    shell-resolved
        anisotropic                    true
        a3                             3.000000
        a5                             4.000000
        cn-shift                       1.200000
        cn-exp                         4.000000
        max-rad                        5.000000


          ...................................................
          :                      SETUP                      :
          :.................................................:
          :  # basis functions                  64          :
          :  # atomic orbitals                  64          :
          :  # shells                           42          :
          :  # electrons                        66          :
          :  max. iterations                   250          :
          :  Hamiltonian                  GFN2-xTB          :
          :  restarted?                      false          :
          :  GBSA solvation                  false          :
          :  PC potential                    false          :
          :  electronic temp.          300.0000000     K    :
          :  accuracy                    1.0000000          :
          :  -> integral cutoff          0.2500000E+02      :
          :  -> integral neglect         0.1000000E-07      :
          :  -> SCF convergence          0.1000000E-05 Eh   :
          :  -> wf. convergence          0.1000000E-03 e    :
          :  Broyden damping             0.4000000          :
          :  net charge                          0          :
          :  unpaired electrons                  0          :
          ...................................................

 iter      E             dE          RMSdq      gap      omega  full diag
   1    -36.1114006 -0.361114E+02  0.275E+00   11.65       0.0  T
   2    -36.1785376 -0.671370E-01  0.154E+00   11.45       1.0  T
   3    -36.1798834 -0.134575E-02  0.716E-01   11.54       1.0  T
   4    -36.1802157 -0.332299E-03  0.138E-01   11.53       1.0  T
   5    -36.1803857 -0.170042E-03  0.618E-02   11.55       1.0  T
   6    -36.1803873 -0.153551E-05  0.116E-02   11.55       1.6  T
   7    -36.1803882 -0.974531E-06  0.396E-03   11.55       4.5  T
   8    -36.1803883 -0.312721E-07  0.142E-03   11.55      12.6  T
   9    -36.1803883 -0.875730E-08  0.469E-04   11.55      38.3  T
  10    -36.1803883 -0.502659E-09  0.141E-04   11.55     127.8  T

   *** convergence criteria satisfied after 10 iterations ***

         #    Occupation            Energy/Eh            Energy/eV
      -------------------------------------------------------------
         1        2.0000           -0.6799459             -18.5023
       ...           ...                  ...                  ...
        27        2.0000           -0.4341683             -11.8143
        28        2.0000           -0.4255948             -11.5810
        29        2.0000           -0.4216304             -11.4731
        30        2.0000           -0.4130413             -11.2394
        31        2.0000           -0.4115394             -11.1986
        32        2.0000           -0.4044243             -11.0049
        33        2.0000           -0.3967658             -10.7965 (HOMO)
        34                          0.0278079               0.7567 (LUMO)
        35                          0.0448750               1.2211
        36                          0.0648173               1.7638
        37                          0.0800956               2.1795
        38                          0.0881692               2.3992
       ...                                ...                  ...
        64                          0.3319669               9.0333
      -------------------------------------------------------------
                  HL-Gap            0.4245737 Eh           11.5532 eV
             Fermi-level           -0.1844790 Eh           -5.0199 eV

 SCC (total)                   0 d,  0 h,  0 min,  0.033 sec
 SCC setup                      ...        0 min,  0.000 sec (  0.554%)
 Dispersion                     ...        0 min,  0.000 sec (  0.588%)
 classical contributions        ...        0 min,  0.000 sec (  0.100%)
 integral evaluation            ...        0 min,  0.003 sec (  7.651%)
 iterations                     ...        0 min,  0.022 sec ( 66.483%)
 molecular gradient             ...        0 min,  0.008 sec ( 24.197%)
 printout                       ...        0 min,  0.000 sec (  0.391%)

         :::::::::::::::::::::::::::::::::::::::::::::::::::::
         ::                     SUMMARY                     ::
         :::::::::::::::::::::::::::::::::::::::::::::::::::::
         :: total energy             -35.706577876288 Eh    ::
         :: gradient norm              0.004584416675 Eh/a0 ::
         :: HOMO-LUMO gap             11.553239385587 eV    ::
         ::.................................................::
         :: SCC energy               -36.180197310464 Eh    ::
         :: -> isotropic ES            0.030059531218 Eh    ::
         :: -> anisotropic ES          0.008049400296 Eh    ::
         :: -> anisotropic XC          0.014967301210 Eh    ::
         :: -> dispersion             -0.024621396022 Eh    ::
         :: repulsion energy           0.473619434176 Eh    ::
         :: add. restraining           0.000000000000 Eh    ::
         :: total charge              -0.000000000000 e     ::
         :::::::::::::::::::::::::::::::::::::::::::::::::::::

           -------------------------------------------------
          |                Property Printout                |
           -------------------------------------------------

    * Orbital Energies and Occupations

         #    Occupation            Energy/Eh            Energy/eV
      -------------------------------------------------------------
         1        2.0000           -0.6799459             -18.5023
       ...           ...                  ...                  ...
        21        2.0000           -0.4695782             -12.7779
        22        2.0000           -0.4640134             -12.6264
        23        2.0000           -0.4548597             -12.3774
        24        2.0000           -0.4497471             -12.2382
        25        2.0000           -0.4416436             -12.0177
        26        2.0000           -0.4397895             -11.9673
        27        2.0000           -0.4341683             -11.8143
        28        2.0000           -0.4255948             -11.5810
        29        2.0000           -0.4216304             -11.4731
        30        2.0000           -0.4130413             -11.2394
        31        2.0000           -0.4115394             -11.1986
        32        2.0000           -0.4044243             -11.0049
        33        2.0000           -0.3967658             -10.7965 (HOMO)
        34                          0.0278079               0.7567 (LUMO)
        35                          0.0448750               1.2211
        36                          0.0648173               1.7638
        37                          0.0800956               2.1795
        38                          0.0881692               2.3992
        39                          0.1026390               2.7929
        40                          0.1147590               3.1228
        41                          0.1305188               3.5516
        42                          0.1409703               3.8360
        43                          0.1481216               4.0306
        44                          0.1606153               4.3706
       ...                                ...                  ...
        64                          0.3319669               9.0333
      -------------------------------------------------------------
                  HL-Gap            0.4245737 Eh           11.5532 eV
             Fermi-level           -0.1844790 Eh           -5.0199 eV

     #   Z          covCN         q      C6AA      α(0)
     1   6 C        3.755    -0.107    22.596     6.778
     2   6 C        3.854    -0.015    20.808     6.488
     3   1 H        0.924     0.026     2.641     2.542
     4   6 C        3.809    -0.064    21.716     6.633
     5   6 C        3.807    -0.065    21.740     6.637
     6   6 C        3.853    -0.031    21.087     6.531
     7   1 H        0.924     0.045     2.386     2.416
     8   6 C        3.729     0.118    18.740     6.180
     9   1 H        0.923     0.004     2.991     2.705
    10   6 C        3.809    -0.073    21.887     6.660
    11   8 O        1.655    -0.448    21.801     6.303
    12   6 C        3.849    -0.010    20.728     6.476
    13   6 C        3.757    -0.112    22.687     6.791
    14   6 C        3.756    -0.107    22.607     6.779
    15   1 H        0.925     0.036     2.508     2.476
    16   1 H        0.925     0.036     2.500     2.473
    17   1 H        0.925     0.034     2.526     2.485
    18   1 H        0.924     0.035     2.517     2.481
    19   1 H        0.924     0.031     2.571     2.508
    20   1 H        0.925     0.042     2.423     2.434
    21   1 H        0.924     0.029     2.606     2.525
    22   1 H        0.924     0.042     2.425     2.435
    23   1 H        0.924     0.023     2.691     2.565
    24   1 H        0.805     0.282     0.779     1.386
    25   1 H        0.924     0.028     2.608     2.526
    26   1 H        0.925     0.061     2.187     2.313
    27   1 H        0.925     0.029     2.603     2.523
    28   1 H        0.925     0.030     2.582     2.513
    29   1 H        0.925     0.036     2.501     2.473
    30   1 H        0.925     0.032     2.564     2.504
    31   1 H        0.925     0.033     2.543     2.494

 Mol. C6AA /au·bohr⁶  :       6725.860641
 Mol. C8AA /au·bohr⁸  :     142761.252869
 Mol. α(0) /au        :        121.032562


Wiberg/Mayer (AO) data.
largest (>0.10) Wiberg bond orders for each atom

 ---------------------------------------------------------------------------
     #   Z sym  total        # sym  WBO       # sym  WBO       # sym  WBO
 ---------------------------------------------------------------------------
     1   6 C    3.996 --     2 C    1.008    16 H    0.987    17 H    0.987
                            15 H    0.986
     2   6 C    3.996 --     1 C    1.008     4 C    0.998    10 C    0.997
                             3 H    0.968
     3   1 H    0.999 --     2 C    0.968
     4   6 C    3.997 --     5 C    1.007     2 C    0.998    19 H    0.976
                            18 H    0.976
     5   6 C    3.997 --     4 C    1.007     6 C    0.997    21 H    0.976
                            20 H    0.973
     6   6 C    3.992 --     5 C    0.997     8 C    0.982    12 C    0.980
                             7 H    0.966
     7   1 H    0.998 --     6 C    0.966
     8   6 C    3.953 --    10 C    0.988     6 C    0.982    11 O    0.981
                             9 H    0.960
     9   1 H    1.000 --     8 C    0.960
    10   6 C    3.996 --     2 C    0.997     8 C    0.988    22 H    0.975
                            23 H    0.974
    11   8 O    1.958 --     8 C    0.981    24 H    0.901
    12   6 C    3.994 --    13 C    1.010    14 C    1.009     6 C    0.980
                            25 H    0.969
    13   6 C    3.995 --    12 C    1.010    28 H    0.987    27 H    0.987
                            26 H    0.979
    14   6 C    3.997 --    12 C    1.009    31 H    0.986    30 H    0.986
                            29 H    0.985
    15   1 H    0.998 --     1 C    0.986
    16   1 H    0.999 --     1 C    0.987
    17   1 H    0.999 --     1 C    0.987
    18   1 H    0.999 --     4 C    0.976
    19   1 H    0.999 --     4 C    0.976
    20   1 H    0.998 --     5 C    0.973
    21   1 H    0.999 --     5 C    0.976
    22   1 H    0.998 --    10 C    0.975
    23   1 H    0.999 --    10 C    0.974
    24   1 H    0.920 --    11 O    0.901
    25   1 H    0.999 --    12 C    0.969
    26   1 H    0.996 --    13 C    0.979
    27   1 H    0.999 --    13 C    0.987
    28   1 H    0.999 --    13 C    0.987
    29   1 H    0.998 --    14 C    0.985
    30   1 H    0.999 --    14 C    0.986
    31   1 H    0.999 --    14 C    0.986
 ---------------------------------------------------------------------------

Topologies differ in total number of bonds
Writing topology from bond orders to xtbtopo.mol

molecular dipole:
                 x           y           z       tot (Debye)
 q only:        0.424       0.074      -0.145
   full:        0.634      -0.048      -0.268       1.754
molecular quadrupole (traceless):
                xx          xy          yy          xz          yz          zz
 q only:       -0.481      -2.170       2.054       0.810       0.552      -1.574
  q+dip:       -2.868      -4.105       2.719       1.307       2.728       0.149
   full:       -2.079      -3.875       3.071       1.213       1.910      -0.992


           -------------------------------------------------
          | TOTAL ENERGY              -35.706577876288 Eh   |
          | GRADIENT NORM               0.004584416675 Eh/α |
          | HOMO-LUMO GAP              11.553239385587 eV   |
           -------------------------------------------------

------------------------------------------------------------------------
 * finished run on 2025/04/06 at 11:44:46.645     
------------------------------------------------------------------------
 total:
 * wall-time:     0 d,  0 h,  0 min,  0.110 sec
 *  cpu-time:     0 d,  0 h,  0 min,  0.032 sec
 * ratio c/w:     0.294 speedup
 SCF:
 * wall-time:     0 d,  0 h,  0 min,  0.033 sec
 *  cpu-time:     0 d,  0 h,  0 min,  0.020 sec
 * ratio c/w:     0.606 speedup

