
                                 *****************
                                 * O   R   C   A *
                                 *****************

                                            #,                                       
                                            ###                                      
                                            ####                                     
                                            #####                                    
                                            ######                                   
                                           ########,                                 
                                     ,,################,,,,,                         
                               ,,#################################,,                 
                          ,,##########################################,,             
                       ,#########################################, ''#####,          
                    ,#############################################,,   '####,        
                  ,##################################################,,,,####,       
                ,###########''''           ''''###############################       
              ,#####''   ,,,,##########,,,,          '''####'''          '####       
            ,##' ,,,,###########################,,,                        '##       
           ' ,,###''''                  '''############,,,                           
         ,,##''                                '''############,,,,        ,,,,,,###''
      ,#''                                            '''#######################'''  
     '                                                          ''''####''''         
             ,#######,   #######,   ,#######,      ##                                
            ,#'     '#,  ##    ##  ,#'     '#,    #''#        ,####,   ,####,        
            ##       ##  ##   ,#'  ##            #'  '#       #'       #'  '#        
            ##       ##  #######   ##           ,######,      #####,   #    #        
            '#,     ,#'  ##    ##  '#,     ,#' ,#      #,     #,   #   #,  ,#        
             '#######'   ##     ##  '#######'  #'      '#     '####' # '####'        



                #########################################################
                #                        -***-                          #
                #          Department of theory and spectroscopy        #
                #                                                       #
                #                      Frank Neese                      #
                #                                                       #
                #     Directorship, Architecture, Infrastructure        #
                #                    SHARK, DRIVERS                     #
                #        Core code/Algorithms in most modules           #
                #                                                       #
                #        Max Planck Institute fuer Kohlenforschung      #
                #                Kaiser Wilhelm Platz 1                 #
                #                 D-45470 Muelheim/Ruhr                 #
                #                      Germany                          #
                #                                                       #
                #                  All rights reserved                  #
                #                        -***-                          #
                #########################################################


                         Program Version 6.0.0  -   RELEASE  -


 With contributions from (in alphabetic order):
   Daniel Aravena         : Magnetic Suceptibility
   Michael Atanasov       : Ab Initio Ligand Field Theory (pilot matlab implementation)
   Alexander A. Auer      : GIAO ZORA, VPT2 properties, NMR spectrum
   Ute Becker             : All parallelization in ORCA, NUMFREQ, NUMCALC
   Giovanni Bistoni       : ED, misc. LED, open-shell LED, HFLD
   Martin Brehm           : Molecular dynamics
   Dmytro Bykov           : pre 5.0 version of the SCF Hessian
   Marcos Casanova-Páez   : Triplet and SCS-CIS(D). UHF-(DLPNO)-IP/EA/STEOM-CCSD. UHF-CVS-IP/STEOM-CCSD
   Vijay G. Chilkuri      : MRCI spin determinant printing, contributions to CSF-ICE
   Pauline Colinet        : FMM embedding
   Dipayan Datta          : RHF DLPNO-CCSD density
   Achintya Kumar Dutta   : EOM-CC, STEOM-CC
   Nicolas Foglia         : Exact transition moments, OPA infrastructure, MCD improvements
   Dmitry Ganyushin       : Spin-Orbit,Spin-Spin,Magnetic field MRCI
   Miquel Garcia          : C-PCM and meta-GGA Hessian, CCSD/C-PCM, Gaussian charge scheme
   Tiago L. C. Gouveia    : GS-ROHF, GS-ROCIS
   Yang Guo               : DLPNO-NEVPT2, F12-NEVPT2, CIM, IAO-localization
   Andreas Hansen         : Spin unrestricted coupled pair/coupled cluster methods
   Ingolf Harden          : AUTO-CI MPn and infrastructure 
   Benjamin Helmich-Paris : MC-RPA, TRAH-(SCF,CASSCF), AVAS, COSX integrals, SCF dyn. polar.
   Lee Huntington         : MR-EOM, pCC
   Robert Izsak           : Overlap fitted RIJCOSX, COSX-SCS-MP3, EOM
   Riya Kayal             : Wick's Theorem for AUTO-CI, AUTO-CI UHF-CCSDT
   Emily Kempfer          : AUTO-CI, RHF CISDT and CCSDT
   Christian Kollmar      : KDIIS, OOCD, Brueckner-CCSD(T), CCSD density, CASPT2, CASPT2-K, improved NEVPT2
   Axel Koslowski         : Symmetry handling
   Simone Kossmann        : Meta GGA functionals, TD-DFT gradient, OOMP2, (MP2 Hessian; deprecated post 5.0)
   Lucas Lang             : DCDCAS
   Marvin Lechner         : AUTO-CI (C++ implementation), FIC-MRCC
   Spencer Leger          : CASSCF response
   Dagmar Lenk            : GEPOL surface, SMD, ORCA-2-JSON
   Dimitrios Liakos       : Extrapolation schemes; Compound Job, initial MDCI parallelization
   Dimitrios Manganas     : Further ROCIS development; embedding schemes. LFT, Crystal Embedding
   Dimitrios Pantazis     : SARC Basis sets
   Anastasios Papadopoulos: AUTO-CI, single reference methods and gradients
   Taras Petrenko         : pre 6.0 DFT Hessian and TD-DFT gradient, (ASA, deprecated), ECA, 1-Electron XAS/XES, NRVS
   Peter Pinski           : DLPNO-MP2, DLPNO-MP2 Gradient
   Christoph Reimann      : Effective Core Potentials
   Marius Retegan         : Local ZFS, SOC
   Christoph Riplinger    : Optimizer, TS searches, QM/MM, DLPNO-CCSD(T), (RO)-DLPNO pert. Triples
   Michael Roemelt        : Original ROCIS implementation
   Masaaki Saitow         : Open-shell DLPNO-CCSD energy and density
   Barbara Sandhoefer     : DKH picture change effects
   Kantharuban Sivalingam : CASSCF convergence/infrastructure, NEVPT2 and variants, FIC-MRCI
   Bernardo de Souza      : ESD, SOC TD-DFT
   Georgi Stoychev        : AutoAux, RI-MP2 NMR, DLPNO-MP2 response, X2C
   Van Anh Tran           : RI-MP2 g-tensors
   Willem Van den Heuvel  : Paramagnetic NMR
   Zikuan Wang            : NOTCH, Electric field optimization 
   Frank Wennmohs         : Technical directorship and infrastructure
   Hang Xu                : AUTO-CI-Response properties 


 We gratefully acknowledge several colleagues who have allowed us to
 interface, adapt or use parts of their codes:
   Stefan Grimme, W. Hujo, H. Kruse, P. Pracht,  : VdW corrections, initial TS optimization,
                  C. Bannwarth, S. Ehlert,         DFT functionals, gCP, sTDA/sTD-DF
                  L. Wittmann, M. Mueller
   Ed Valeev, F. Pavosevic, A. Kumar             : LibInt (2-el integral package), F12 methods
   Garnet Chan, S. Sharma, J. Yang, R. Olivares  : DMRG
   Ulf Ekstrom                                   : XCFun DFT Library
   Mihaly Kallay                                 : mrcc  (arbitrary order and MRCC methods)
   Frank Weinhold                                : gennbo (NPA and NBO analysis)
   Simon Mueller                                 : openCOSMO-RS
   Christopher J. Cramer and Donald G. Truhlar   : smd solvation model
   Lars Goerigk                                  : TD-DFT with DH, B97 family of functionals
   V. Asgeirsson, H. Jonsson                     : NEB implementation
   FAccTs GmbH                                   : IRC, NEB, NEB-TS, DLPNO-Multilevel, CI-OPT
                                                   MM, QMMM, 2- and 3-layer-ONIOM, Crystal-QMMM,
                                                   LR-CPCM, SF, NACMEs, symmetry and pop. for TD-DFT,
                                                   nearIR, NL-DFT gradient (VV10), updates on ESD,
                                                   ML-optimized integration grids, MBIS, APM,
                                                   GOAT, DOCKER, SOLVATOR, interface openCOSMO-RS
   S Lehtola, MJT Oliveira, MAL Marques          : LibXC Library
   Liviu Ungur et al                             : ANISO software


 Your calculation uses the libint2 library for the computation of 2-el integrals
 For citations please refer to: http://libint.valeyev.net

 Your ORCA version has been built with support for libXC version: 6.2.2
 For citations please refer to: https://libxc.gitlab.io

 This ORCA versions uses:
   CBLAS   interface :  Fast vector & matrix operations
   LAPACKE interface :  Fast linear algebra routines
   SCALAPACK package :  Parallel linear algebra routines
   Shared memory     :  Shared parallel matrices
   BLAS/LAPACK       :  OpenBLAS 0.3.27  USE64BITINT DYNAMIC_ARCH NO_AFFINITY SkylakeX SINGLE_THREADED
        Core in use  :  SkylakeX
   Copyright (c) 2011-2014, The OpenBLAS Project


Your calculation utilizes the geometrical counterpoise correction gCP
Please cite in your paper:
H.Kruse, S. Grimme J.Chem.Phys., 136, (2012), 154101 
   

Your calculation utilizes the atom-pairwise dispersion correction
based on EEQ partial charges (D4)


================================================================================

----- Orbital basis set information -----
Your calculation utilizes the basis: def2-mTZVPP
   Stefan Grimme, Andreas Hansen, Sebastian Ehlert, and Jan-Michael Mewes 
   J. Chem. Phys. 154, 064103 (2021). DOI: 10.1063/5.0040021

----- AuxJ basis set information -----
Your calculation utilizes the auxiliary basis: def2/J
   F. Weigend, Phys. Chem. Chem. Phys. 8, 1057 (2006).

================================================================================
                                        WARNINGS
                       Please study these warnings very carefully!
================================================================================

Using LibXC functional ID 497 : Re-regularized SCAN exchange by Furness et al
[ 1]  J. W. Furness, A. D. Kaplan, J. Ning, J. P. Perdew, and J. Sun.,  J. Phys. Chem. Lett. 11, 8208-8215 (2020)
[ 2]  J. W. Furness, A. D. Kaplan, J. Ning, J. P. Perdew, and J. Sun.,  J. Phys. Chem. Lett. 11, 9248-9248 (2020)
Using LibXC functional ID 498 : Re-regularized SCAN correlation by Furness et al
[ 1]  J. W. Furness, A. D. Kaplan, J. Ning, J. P. Perdew, and J. Sun.,  J. Phys. Chem. Lett. 11, 8208-8215 (2020)
[ 2]  J. W. Furness, A. D. Kaplan, J. Ning, J. P. Perdew, and J. Sun.,  J. Phys. Chem. Lett. 11, 9248-9248 (2020)
Using LibXC functional ID 497 : Re-regularized SCAN exchange by Furness et al
[ 1]  J. W. Furness, A. D. Kaplan, J. Ning, J. P. Perdew, and J. Sun.,  J. Phys. Chem. Lett. 11, 8208-8215 (2020)
[ 2]  J. W. Furness, A. D. Kaplan, J. Ning, J. P. Perdew, and J. Sun.,  J. Phys. Chem. Lett. 11, 9248-9248 (2020)
Using LibXC functional ID 498 : Re-regularized SCAN correlation by Furness et al
[ 1]  J. W. Furness, A. D. Kaplan, J. Ning, J. P. Perdew, and J. Sun.,  J. Phys. Chem. Lett. 11, 8208-8215 (2020)
[ 2]  J. W. Furness, A. D. Kaplan, J. Ning, J. P. Perdew, and J. Sun.,  J. Phys. Chem. Lett. 11, 9248-9248 (2020)

================================================================================
                                       INPUT FILE
================================================================================
NAME = sp_gas.inp
|  1> ! r2scan-3c def2/J RI DEFGRID2 scfconv6 printgap
|  2> %output
|  3>     printlevel normal
|  4> end
|  5> * xyz 0 1
|  6> C 0.4107331469 1.7143001725 -0.155583831
|  7> C 0.4484556763 0.2798233113 0.3298732826
|  8> H 0.3066121647 0.2243390368 1.4110208389
|  9> C -0.543303752 -0.6233049537 -0.382930105
| 10> Cl -2.2140141862 -0.1688974482 0.0759931342
| 11> Cl 2.0896067036 -0.4160947264 0.0221080037
| 12> H 0.6187651121 1.7613861305 -1.2212913207
| 13> H -0.5785845112 2.1247829594 0.0304849384
| 14> H 1.1458494955 2.3131595119 0.3738111011
| 15> H -0.4686085708 -0.5172739837 -1.4641421608
| 16> H -0.4122928227 -1.6649223987 -0.0942711651
| 17> *
| 18> 
| 19>                          ****END OF INPUT****
================================================================================

                       ****************************
                       * Single Point Calculation *
                       ****************************

---------------------------------
CARTESIAN COORDINATES (ANGSTROEM)
---------------------------------
  C      0.410733    1.714300   -0.155584
  C      0.448456    0.279823    0.329873
  H      0.306612    0.224339    1.411021
  C     -0.543304   -0.623305   -0.382930
  Cl    -2.214014   -0.168897    0.075993
  Cl     2.089607   -0.416095    0.022108
  H      0.618765    1.761386   -1.221291
  H     -0.578585    2.124783    0.030485
  H      1.145849    2.313160    0.373811
  H     -0.468609   -0.517274   -1.464142
  H     -0.412293   -1.664922   -0.094271

----------------------------
CARTESIAN COORDINATES (A.U.)
----------------------------
  NO LB      ZA    FRAG     MASS         X           Y           Z
   0 C     6.0000    0    12.011    0.776173    3.239558   -0.294011
   1 C     6.0000    0    12.011    0.847458    0.528789    0.623370
   2 H     1.0000    0     1.008    0.579413    0.423939    2.666443
   3 C     6.0000    0    12.011   -1.026695   -1.177876   -0.723633
   4 Cl   17.0000    0    35.453   -4.183880   -0.319170    0.143606
   5 Cl   17.0000    0    35.453    3.948784   -0.786305    0.041778
   6 H     1.0000    0     1.008    1.169297    3.328537   -2.307906
   7 H     1.0000    0     1.008   -1.093366    4.015258    0.057608
   8 H     1.0000    0     1.008    2.165342    4.371238    0.706401
   9 H     1.0000    0     1.008   -0.885542   -0.977506   -2.766828
  10 H     1.0000    0     1.008   -0.779121   -3.146247   -0.178147

--------------------------------
INTERNAL COORDINATES (ANGSTROEM)
--------------------------------
 C      0   0   0     0.000000000000     0.00000000     0.00000000
 C      1   0   0     1.514864833471     0.00000000     0.00000000
 H      2   1   0     1.091823303009   111.23629482     0.00000000
 C      2   1   3     1.518985219164   113.35142782   125.19413161
 Cl     4   2   1     1.791192361383   109.75068245   291.40066678
 Cl     2   1   3     1.808977080148   109.41197433   243.87011784
 H      1   2   3     1.086842601110   110.51721019   176.23218118
 H      1   2   3     1.087137127466   108.98720141   295.99968022
 H      1   2   3     1.085950067222   110.43331000    55.62007186
 H      4   2   1     1.088963473355   111.29968344    49.75231181
 H      4   2   1     1.088785905910   111.45859406   173.44470940

---------------------------
INTERNAL COORDINATES (A.U.)
---------------------------
 C      0   0   0     0.000000000000     0.00000000     0.00000000
 C      1   0   0     2.862679665169     0.00000000     0.00000000
 H      2   1   0     2.063247029320   111.23629482     0.00000000
 C      2   1   3     2.870466065694   113.35142782   125.19413161
 Cl     4   2   1     3.384863016186   109.75068245   291.40066678
 Cl     2   1   3     3.418471264020   109.41197433   243.87011784
 H      1   2   3     2.053834866777   110.51721019   176.23218118
 H      1   2   3     2.054391440929   108.98720141   295.99968022
 H      1   2   3     2.052148222162   110.43331000    55.62007186
 H      4   2   1     2.057842734484   111.29968344    49.75231181
 H      4   2   1     2.057507180644   111.45859406   173.44470940

---------------------
BASIS SET INFORMATION
---------------------
There are 3 groups of distinct atoms

 Group   1 Type C   : 11s6p1d contracted to 5s3p1d pattern {62111/411/1}
 Group   2 Type H   : 4s1p contracted to 2s1p pattern {31/1}
 Group   3 Type Cl  : 14s9p2d contracted to 5s4p2d pattern {73211/6111/11}

Atom   0C    basis set group =>   1
Atom   1C    basis set group =>   1
Atom   2H    basis set group =>   2
Atom   3C    basis set group =>   1
Atom   4Cl   basis set group =>   3
Atom   5Cl   basis set group =>   3
Atom   6H    basis set group =>   2
Atom   7H    basis set group =>   2
Atom   8H    basis set group =>   2
Atom   9H    basis set group =>   2
Atom  10H    basis set group =>   2
---------------------------------
AUXILIARY/J BASIS SET INFORMATION
---------------------------------
There are 3 groups of distinct atoms

 Group   1 Type C   : 12s5p4d2f1g contracted to 6s4p3d1f1g pattern {711111/2111/211/2/1}
 Group   2 Type H   : 5s2p1d contracted to 3s1p1d pattern {311/2/1}
 Group   3 Type Cl  : 14s5p5d2f1g contracted to 8s4p3d1f1g pattern {71111111/2111/311/2/1}

Atom   0C    basis set group =>   1
Atom   1C    basis set group =>   1
Atom   2H    basis set group =>   2
Atom   3C    basis set group =>   1
Atom   4Cl   basis set group =>   3
Atom   5Cl   basis set group =>   3
Atom   6H    basis set group =>   2
Atom   7H    basis set group =>   2
Atom   8H    basis set group =>   2
Atom   9H    basis set group =>   2
Atom  10H    basis set group =>   2

Checking for AutoStart:
The File: sp_gas.gbw exists
Trying to determine its content:
     ... Fine, the file contains calculation information
     ... Fine, the calculation information was read
     ... Fine, the file contains a basis set
     ... Fine, the basis set was read
     ... Fine, the file contains a geometry
     ... Fine, the geometry was read
     ... Fine, the file contains a set of orbitals
     ... Fine, the orbitals can be read
     => possible old guess file was deleted
     => GBW file was renamed to GES file
     => GES file is set as startup file
     => Guess is set to MORead
     ... now leaving AutoStart

------------------------------------------------------------------------------
                             ORCA STARTUP CALCULATIONS
                           -- RI-GTO INTEGRALS CHOSEN --
------------------------------------------------------------------------------
------------------------------------------------------------------------------
                   ___                                                        
                  /   \      - P O W E R E D   B Y -                         
                 /     \                                                     
                 |  |  |   _    _      __       _____    __    __             
                 |  |  |  | |  | |    /  \     |  _  \  |  |  /  |          
                  \  \/   | |  | |   /    \    | | | |  |  | /  /          
                 / \  \   | |__| |  /  /\  \   | |_| |  |  |/  /          
                |  |  |   |  __  | /  /__\  \  |    /   |      \           
                |  |  |   | |  | | |   __   |  |    \   |  |\   \          
                \     /   | |  | | |  |  |  |  | |\  \  |  | \   \       
                 \___/    |_|  |_| |__|  |__|  |_| \__\ |__|  \__/        
                                                                              
                      - O R C A' S   B I G   F R I E N D -                    
                                      &                                       
                       - I N T E G R A L  F E E D E R -                       
                                                                              
 v1 FN, 2020, v2 2021, v3 2022-2024                                           
------------------------------------------------------------------------------


----------------------
SHARK INTEGRAL PACKAGE
----------------------

Number of atoms                             ...     11
Number of basis functions                   ...    141
Number of shells                            ...     67
Maximum angular momentum                    ...      2
Integral batch strategy                     ... SHARK/LIBINT Hybrid
RI-J (if used) integral strategy            ... SPLIT-RIJ (Revised 2003 algorithm where possible)
Printlevel                                  ...      1
Contraction scheme used                     ... SEGMENTED contraction
Prescreening option                         ... SCHWARTZ
   Thresh                                   ... 1.000e-10
   Tcut                                     ... 1.000e-11
   Tpresel                                  ... 1.000e-11 
Coulomb Range Separation                    ... NOT USED
Exchange Range Separation                   ... NOT USED
Multipole approximations                    ... NOT USED
Finite Nucleus Model                        ... NOT USED
CABS basis                                  ... NOT available
Auxiliary Coulomb fitting basis             ... AVAILABLE
   # of basis functions in Aux-J            ...    315
   # of shells in Aux-J                     ...    109
   Maximum angular momentum in Aux-J        ...      4
Auxiliary J/K fitting basis                 ... NOT available
Auxiliary Correlation fitting basis         ... NOT available
Auxiliary 'external' fitting basis          ... NOT available

Checking pre-screening integrals            ... done (  0.0 sec) Dimension = 67
Check shell pair data                       ... done (  0.0 sec)
Shell pair information
Shell pair cut-off parameter TPreSel        ...   1.0e-11
Total number of shell pairs                 ...      2278
Shell pairs after pre-screening             ...      2148
Total number of primitive shell pairs       ...      9209
Primitive shell pairs kept                  ...      6320
          la=0 lb=0:    643 shell pairs
          la=1 lb=0:    800 shell pairs
          la=1 lb=1:    267 shell pairs
          la=2 lb=0:    251 shell pairs
          la=2 lb=1:    159 shell pairs
          la=2 lb=2:     28 shell pairs

Calculating one electron integrals          ... done (  0.0 sec)
Calculating RI/J V-Matrix + Cholesky decomp.... done (  0.0 sec)
Calculating Nuclear repulsion               ... done (  0.0 sec) ENN=    278.178318782435 Eh

Diagonalization of the overlap matrix:
Smallest eigenvalue                        ... 4.311e-04
Time for diagonalization                   ...    0.002 sec
Threshold for overlap eigenvalues          ... 1.000e-07
Number of eigenvalues below threshold      ... 0
Time for construction of square roots      ...    0.014 sec
Total time needed                          ...    0.022 sec

-------------------
DFT GRID GENERATION
-------------------

General Integration Accuracy     IntAcc      ... 4.388
Radial Grid Type                 RadialGrid  ... OptM3 with GC (2021)
Angular Grid (max. ang.)         AngularGrid ... 4 (Lebedev-302)
Angular grid pruning method      GridPruning ... 4 (adaptive)
Weight generation scheme         WeightScheme... mBecke (2022)
Basis function cutoff            BFCut       ... 1.0000e-10
Integration weight cutoff        WCut        ... 1.0000e-14
Partially contracted basis set               ... off
Rotationally invariant grid construction     ... off
Angular grids for H and He will be reduced by one unit

Total number of grid points                  ...    52119
Total number of batches                      ...      819
Average number of points per batch           ...       63
Average number of grid points per atom       ...     4738
Initializing property integral containers    ... done (  0.0 sec)

SHARK setup successfully completed in   0.7 seconds

Maximum memory used throughout the entire STARTUP-calculation: 23.7 MB
-------------------------------------------------------------------------------
                                 ORCA GUESS
                   Start orbitals & Density for SCF / CASSCF
-------------------------------------------------------------------------------

------------
SCF SETTINGS
------------
Hamiltonian:
 Density Functional     Method          .... DFT(GTOs)
  Functional kind                       .... Exchange
  Functional name                       .... Re-regularized SCAN exchange by Furness et al
  Functional family                     .... MGGA
  Functional refs                              
    [ 0] J. W. Furness, A. D. Kaplan, J. Ning, J. P. Perdew, and J. Sun.,  J. Phys. Chem. Lett. 11, 8208-8215 (2020), doi: 10.1021/acs.jpclett.0c02405
    [ 1] J. W. Furness, A. D. Kaplan, J. Ning, J. P. Perdew, and J. Sun.,  J. Phys. Chem. Lett. 11, 9248-9248 (2020), doi: 10.1021/acs.jpclett.0c03077
  Functional external parameters        .... 6
    Parameter  0 _c1        =  6.670000e-01 : c1 parameter        
    Parameter  1 _c2        =  8.000000e-01 : c2 parameter        
    Parameter  2 _d         =  1.240000e+00 : d parameter         
    Parameter  3 _k1        =  6.500000e-02 : k1 parameter        
    Parameter  4 _eta       =  1.000000e-03 : eta parameter       
    Parameter  5 _dp2       =  3.610000e-01 : dp2 parameter       
  Functional kind                       .... Correlation
  Functional name                       .... Re-regularized SCAN correlation by Furness et al
  Functional family                     .... MGGA
  Functional refs                              
    [ 0] J. W. Furness, A. D. Kaplan, J. Ning, J. P. Perdew, and J. Sun.,  J. Phys. Chem. Lett. 11, 8208-8215 (2020), doi: 10.1021/acs.jpclett.0c02405
    [ 1] J. W. Furness, A. D. Kaplan, J. Ning, J. P. Perdew, and J. Sun.,  J. Phys. Chem. Lett. 11, 9248-9248 (2020), doi: 10.1021/acs.jpclett.0c03077
  Functional external parameters        .... 1
    Parameter  0 _eta       =  1.000000e-03 : Regularization parameter
 Gradients option       PostSCFGGA      .... off
 RI-approximation to the Coulomb term is turned on
   Number of AuxJ basis functions       .... 315


General Settings:
 Integral files         IntName         .... sp_gas
 Hartree-Fock type      HFTyp           .... RHF
 Total Charge           Charge          ....    0
 Multiplicity           Mult            ....    1
 Number of Electrons    NEL             ....   58
 Basis Dimension        Dim             ....  141
 Nuclear Repulsion      ENuc            ....    278.1783187824 Eh

Convergence Acceleration:
 AO-DIIS                CNVDIIS         .... on
   Start iteration      DIISMaxIt       ....    12
   Startup error        DIISStart       ....  0.200000
   # of expansion vecs  DIISMaxEq       ....     5
   Bias factor          DIISBfac        ....   1.050
   Max. coefficient     DIISMaxC        ....  10.000
 MO-DIIS                CNVKDIIS        .... off
 Trust-Rad. Augm. Hess. CNVTRAH         .... auto
   Auto Start mean grad. ratio tolernc. ....  1.125000
   Auto Start start iteration           ....     1
   Auto Start num. interpolation iter.  ....    10
   Max. Number of Micro iterations      ....    24
   Max. Number of Macro iterations      .... Maxiter - #DIIS iter
   Number of Davidson start vectors     ....     2
   Converg. threshold    (grad. norm)   ....   3.330e-04
   Grad. Scal. Fac. for Micro threshold ....   0.100
   Minimum threshold for Micro iter.    ....   1.000e-02
   NR start threshold (gradient norm)   ....   1.000e-04
   Initial trust radius                 ....   0.400
   Minimum AH scaling param. (alpha)    ....   1.000
   Maximum AH scaling param. (alpha)    .... 1000.000
   Quad. conv. algorithm                .... NR
   White noise on init. David. guess    .... on
   Maximum white noise                  ....   0.010
   Pseudo random numbers                .... off
   Inactive MOs                         .... canonical
   Orbital update algorithm             .... Taylor
   Preconditioner                       .... Diag
   Full preconditioner red. dimension   ....   250
   COSX micro iterations for RIJONX calc.... off
 SOSCF                  CNVSOSCF        .... on
   Start iteration      SOSCFMaxIt      ....   150
   Startup grad/error   SOSCFStart      ....  0.003300
   Hessian update       SOSCFHessUp     .... L-BFGS
 Level Shifting         CNVShift        .... on
   Level shift para.    LevelShift      ....    0.2500
   Turn off err/grad.   ShiftErr        ....    0.0010
 Zerner damping         CNVZerner       .... off
 Static damping         CNVDamp         .... on
   Fraction old density DampFac         ....    0.7000
   Max. Damping (<1)    DampMax         ....    0.9800
   Min. Damping (>=0)   DampMin         ....    0.0000
   Turn off err/grad.   DampErr         ....    0.1000

SCF Procedure:
 Maximum # iterations   MaxIter         ....   125
 SCF integral mode      SCFMode         .... Direct
   Integral package                     .... SHARK and LIBINT hybrid scheme
 Reset frequency        DirectResetFreq ....    20
 Integral Threshold     Thresh          ....  1.000e-10 Eh
 Primitive CutOff       TCut            ....  1.000e-11 Eh

Convergence Tolerance:
 Convergence Check Mode ConvCheckMode   .... Total+1el-Energy
 Convergence forced     ConvForced      .... 0
 Energy Change          TolE            ....  1.000e-06 Eh
 1-El. energy change                    ....  1.000e-03 Eh
 Orbital Gradient       TolG            ....  3.330e-04
 Orbital Rotation angle TolX            ....  3.330e-04
 DIIS Error             TolErr          ....  1.000e-06

---------------------
INITIAL GUESS: MOREAD
---------------------
Guess MOs are being read from file: sp_gas.ges
Input Geometry matches current geometry (good)
Atom 0: N(Shells)= 9 and 6 - projection required
Input basis set needs projection
NBasis(read)= 90
NBasis(calc)= 141
Basis set overlap was calculated
Using GuessMode=FMatrix for the initial guess
C*T matrix was formed
Effective Fockian was calculated
Effective Fockian was diagonalized
Initial density was built
                      ------------------
                      INITIAL GUESS DONE (   0.0 sec)
                      ------------------
             **** ENERGY FILE WAS UPDATED (sp_gas.en.tmp) ****
Finished Guess after   0.2 sec
Maximum memory used throughout the entire GUESS-calculation: 9.9 MB

-------------------------------------------------------------------------------------------
                                      ORCA LEAN-SCF
                              memory conserving SCF solver
-------------------------------------------------------------------------------------------

----------------------------------------D-I-I-S--------------------------------------------
Iteration    Energy (Eh)           Delta-E    RMSDP     MaxDP     DIISErr   Damp  Time(sec)
-------------------------------------------------------------------------------------------
               ***  Starting incremental Fock matrix formation  ***
    1    -1038.1495193983898844     0.00e+00  3.35e-03  9.11e-02  5.38e-01  0.700   1.2
    2    -1038.1823402017223543    -3.28e-02  2.79e-03  5.86e-02  3.77e-01  0.700   1.2
    3    -1038.2056130184746507    -2.33e-02  2.06e-03  3.87e-02  2.64e-01  0.700   1.3
                               ***Turning on AO-DIIS***
    4    -1038.2219649412452327    -1.64e-02  1.51e-03  2.65e-02  1.85e-01  0.700   1.2
    5    -1038.2334386743825689    -1.15e-02  1.07e-03  1.89e-02  1.29e-01  0.700   1.2
    6    -1038.2414857823903276    -8.05e-03  7.57e-04  1.33e-02  9.05e-02  0.700   2.1
    7    -1038.2471268070842143    -5.64e-03  1.77e-03  3.12e-02  6.34e-02  0.000   1.5
                              *** Initializing SOSCF ***
---------------------------------------S-O-S-C-F--------------------------------------
Iteration    Energy (Eh)           Delta-E    RMSDP     MaxDP     MaxGrad    Time(sec)
--------------------------------------------------------------------------------------
    8    -1038.2603145606665294    -1.32e-02  9.54e-06  1.76e-04  1.54e-04     1.8
               *** Restarting incremental Fock matrix formation ***
    9    -1038.2603146628227933    -1.02e-07  5.54e-06  9.88e-05  3.14e-05     1.3
                  *** Gradient check signals convergence ***

               *****************************************************
               *                     SUCCESS                       *
               *           SCF CONVERGED AFTER   9 CYCLES          *
               *****************************************************

             **** ENERGY FILE WAS UPDATED (sp_gas.en.tmp) ****

----------------
TOTAL SCF ENERGY
----------------

Total Energy       :      -1038.26031466282279 Eh          -28252.49949 eV

Components:
Nuclear Repulsion  :        278.17831878243510 Eh            7569.61689 eV
Electronic Energy  :      -1316.43863344525789 Eh          -35822.11638 eV
One Electron Energy:      -1981.72853389456395 Eh          -53925.57493 eV
Two Electron Energy:        665.28990044930606 Eh           18103.45855 eV

Virial components:
Potential Energy   :      -2073.85869035922587 Eh          -56432.56394 eV
Kinetic Energy     :       1035.59837569640331 Eh           28180.06445 eV
Virial Ratio       :          2.00257043563305

DFT components:
N(Alpha)           :       28.999983323696 electrons
N(Beta)            :       28.999983323696 electrons
N(Total)           :       57.999966647392 electrons
E(X)               :      -72.841241767260 Eh       
E(C)               :       -2.067737509079 Eh       
E(XC)              :      -74.908979276340 Eh       

---------------
SCF CONVERGENCE
---------------

  Last Energy change         ...    1.0216e-07  Tolerance :   1.0000e-06
  Last MAX-Density change    ...    9.8782e-05  Tolerance :   1.0000e-05
  Last RMS-Density change    ...    5.5383e-06  Tolerance :   1.0000e-06
  Last DIIS Error            ...    1.5440e-04  Tolerance :   1.0000e-06
  Last Orbital Gradient      ...    3.1395e-05  Tolerance :   3.3300e-04
  Last Orbital Rotation      ...    5.8456e-05  Tolerance :   3.3300e-04


----------------
ORBITAL ENERGIES
----------------

  NO   OCC          E(Eh)            E(eV) 
   0   2.0000    -101.215745     -2754.2204 
   1   2.0000    -101.212172     -2754.1232 
   2   2.0000     -10.117892      -275.3218 
   3   2.0000     -10.108963      -275.0789 
   4   2.0000     -10.042096      -273.2593 
   5   2.0000      -9.371717      -255.0174 
   6   2.0000      -9.368158      -254.9205 
   7   2.0000      -7.118013      -193.6910 
   8   2.0000      -7.114315      -193.5904 
   9   2.0000      -7.107828      -193.4138 
  10   2.0000      -7.107600      -193.4076 
  11   2.0000      -7.104364      -193.3196 
  12   2.0000      -7.104132      -193.3132 
  13   2.0000      -0.860092       -23.4043 
  14   2.0000      -0.811910       -22.0932 
  15   2.0000      -0.721103       -19.6222 
  16   2.0000      -0.663447       -18.0533 
  17   2.0000      -0.570356       -15.5202 
  18   2.0000      -0.470609       -12.8059 
  19   2.0000      -0.448573       -12.2063 
  20   2.0000      -0.429278       -11.6812 
  21   2.0000      -0.397452       -10.8152 
  22   2.0000      -0.370228       -10.0744 
  23   2.0000      -0.359427        -9.7805 
  24   2.0000      -0.349726        -9.5165 
  25   2.0000      -0.292877        -7.9696 
  26   2.0000      -0.279185        -7.5970 
  27   2.0000      -0.278687        -7.5835 
  28   2.0000      -0.273848        -7.4518 
  29   0.0000      -0.023661        -0.6439 
  30   0.0000       0.015218         0.4141 
  31   0.0000       0.089993         2.4488 
  32   0.0000       0.107196         2.9170 
  33   0.0000       0.114220         3.1081 
  34   0.0000       0.125101         3.4042 
  35   0.0000       0.142254         3.8709 
  36   0.0000       0.171591         4.6692 
  37   0.0000       0.176539         4.8039 
  38   0.0000       0.179822         4.8932 
  39   0.0000       0.186347         5.0707 
*Only the first 10 virtual orbitals were printed.

                    ********************************
                    * MULLIKEN POPULATION ANALYSIS *
                    ********************************

-----------------------
MULLIKEN ATOMIC CHARGES
-----------------------
   0 C :   -0.468704
   1 C :    0.024637
   2 H :    0.177574
   3 C :   -0.178423
   4 Cl:   -0.190094
   5 Cl:   -0.199142
   6 H :    0.156797
   7 H :    0.166772
   8 H :    0.162757
   9 H :    0.167781
  10 H :    0.180044
Sum of atomic charges:    0.0000000

--------------------------------
MULLIKEN REDUCED ORBITAL CHARGES
--------------------------------
  0 C s       :     3.329361  s :     3.329361
      pz      :     1.067840  p :     3.113132
      px      :     1.108025
      py      :     0.937268
      dz2     :     0.007212  d :     0.026211
      dxz     :     0.002562
      dyz     :     0.004596
      dx2y2   :     0.006319
      dxy     :     0.005523

  1 C s       :     3.118727  s :     3.118727
      pz      :     1.090323  p :     2.805859
      px      :     0.785944
      py      :     0.929591
      dz2     :     0.012013  d :     0.050777
      dxz     :     0.007035
      dyz     :     0.007388
      dx2y2   :     0.011635
      dxy     :     0.012706

  2 H s       :     0.804732  s :     0.804732
      pz      :     0.011770  p :     0.017694
      px      :     0.002824
      py      :     0.003099

  3 C s       :     3.242794  s :     3.242794
      pz      :     1.059228  p :     2.894631
      px      :     0.780400
      py      :     1.055003
      dz2     :     0.010589  d :     0.040998
      dxz     :     0.007264
      dyz     :     0.003690
      dx2y2   :     0.010936
      dxy     :     0.008519

  4 Cls       :     5.955018  s :     5.955018
      pz      :     3.913920  p :    11.189097
      px      :     3.359828
      py      :     3.915349
      dz2     :     0.007253  d :     0.045980
      dxz     :     0.011136
      dyz     :     0.001125
      dx2y2   :     0.014829
      dxy     :     0.011637

  5 Cls       :     5.960876  s :     5.960876
      pz      :     3.935050  p :    11.195408
      px      :     3.397660
      py      :     3.862697
      dz2     :     0.006642  d :     0.042859
      dxz     :     0.008659
      dyz     :     0.001673
      dx2y2   :     0.013278
      dxy     :     0.012607

  6 H s       :     0.824973  s :     0.824973
      pz      :     0.010906  p :     0.018230
      px      :     0.003940
      py      :     0.003383

  7 H s       :     0.814638  s :     0.814638
      pz      :     0.003792  p :     0.018590
      px      :     0.010125
      py      :     0.004672

  8 H s       :     0.818937  s :     0.818937
      pz      :     0.005255  p :     0.018306
      px      :     0.007158
      py      :     0.005893

  9 H s       :     0.814258  s :     0.814258
      pz      :     0.011896  p :     0.017961
      px      :     0.002771
      py      :     0.003294

 10 H s       :     0.801957  s :     0.801957
      pz      :     0.003784  p :     0.017999
      px      :     0.002923
      py      :     0.011291


------------------------
MULLIKEN OVERLAP CHARGES
------------------------
B(  0-C ,  1-C ) :   0.5221 B(  0-C ,  2-H ) :  -0.0767 B(  0-C ,  3-C ) :  -0.1444 
B(  0-C ,  5-Cl) :  -0.1109 B(  0-C ,  6-H ) :   0.8393 B(  0-C ,  7-H ) :   0.7945 
B(  0-C ,  8-H ) :   0.8043 B(  1-C ,  2-H ) :   0.8572 B(  1-C ,  3-C ) :   0.5699 
B(  1-C ,  4-Cl) :  -0.0722 B(  1-C ,  5-Cl) :   0.4243 B(  1-C ,  6-H ) :  -0.0801 
B(  1-C ,  7-H ) :  -0.0588 B(  1-C ,  8-H ) :  -0.0674 B(  1-C ,  9-H ) :  -0.0592 
B(  1-C , 10-H ) :  -0.0807 B(  2-H ,  3-C ) :  -0.0738 B(  2-H ,  5-Cl) :  -0.0911 
B(  3-C ,  4-Cl) :   0.4212 B(  3-C ,  5-Cl) :  -0.0732 B(  3-C ,  9-H ) :   0.8403 
B(  3-C , 10-H ) :   0.8272 B(  4-Cl,  9-H ) :  -0.0825 B(  4-Cl, 10-H ) :  -0.0803 
B(  9-H , 10-H ) :  -0.0515 


                     *******************************
                     * LOEWDIN POPULATION ANALYSIS *
                     *******************************

----------------------
LOEWDIN ATOMIC CHARGES
----------------------
   0 C :   -0.428083
   1 C :   -0.280970
   2 H :    0.167504
   3 C :   -0.338967
   4 Cl:    0.019482
   5 Cl:    0.033553
   6 H :    0.162042
   7 H :    0.167694
   8 H :    0.163317
   9 H :    0.166779
  10 H :    0.167649

-------------------------------
LOEWDIN REDUCED ORBITAL CHARGES
-------------------------------
  0 C s       :     2.978225  s :     2.978225
      pz      :     1.152204  p :     3.387327
      px      :     1.170969
      py      :     1.064154
      dz2     :     0.017718  d :     0.062532
      dxz     :     0.006247
      dyz     :     0.010345
      dx2y2   :     0.015233
      dxy     :     0.012989

  1 C s       :     2.969873  s :     2.969873
      pz      :     1.145081  p :     3.204773
      px      :     0.970453
      py      :     1.089240
      dz2     :     0.026858  d :     0.106324
      dxz     :     0.014583
      dyz     :     0.014046
      dx2y2   :     0.024496
      dxy     :     0.026341

  2 H s       :     0.787628  s :     0.787628
      pz      :     0.030283  p :     0.044867
      px      :     0.006670
      py      :     0.007914

  3 C s       :     3.003383  s :     3.003383
      pz      :     1.142701  p :     3.244698
      px      :     0.972177
      py      :     1.129820
      dz2     :     0.024648  d :     0.090886
      dxz     :     0.015508
      dyz     :     0.007453
      dx2y2   :     0.024499
      dxy     :     0.018778

  4 Cls       :     5.694846  s :     5.694846
      pz      :     3.903251  p :    11.183327
      px      :     3.381067
      py      :     3.899009
      dz2     :     0.015707  d :     0.102345
      dxz     :     0.024584
      dyz     :     0.002540
      dx2y2   :     0.034198
      dxy     :     0.025316

  5 Cls       :     5.691183  s :     5.691183
      pz      :     3.923919  p :    11.175553
      px      :     3.415891
      py      :     3.835743
      dz2     :     0.015501  d :     0.099711
      dxz     :     0.020266
      dyz     :     0.003816
      dx2y2   :     0.030408
      dxy     :     0.029720

  6 H s       :     0.793988  s :     0.793988
      pz      :     0.027552  p :     0.043970
      px      :     0.008935
      py      :     0.007483

  7 H s       :     0.787053  s :     0.787053
      pz      :     0.008607  p :     0.045252
      px      :     0.025744
      py      :     0.010901

  8 H s       :     0.792567  s :     0.792567
      pz      :     0.012559  p :     0.044116
      px      :     0.017534
      py      :     0.014023

  9 H s       :     0.788294  s :     0.788294
      pz      :     0.030706  p :     0.044928
      px      :     0.006356
      py      :     0.007865

 10 H s       :     0.787206  s :     0.787206
      pz      :     0.009192  p :     0.045145
      px      :     0.006650
      py      :     0.029303


---------------------------------
LOEWDIN BOND ORDERS (THRESH 0.050000)
---------------------------------
B(  0-C ,  1-C ) :   1.1351 B(  0-C ,  3-C ) :   0.0708 B(  0-C ,  5-Cl) :   0.1180 
B(  0-C ,  6-H ) :   0.9215 B(  0-C ,  7-H ) :   0.9071 B(  0-C ,  8-H ) :   0.9218 
B(  1-C ,  2-H ) :   0.8643 B(  1-C ,  3-C ) :   1.0940 B(  1-C ,  4-Cl) :   0.1255 
B(  1-C ,  5-Cl) :   1.3046 B(  3-C ,  4-Cl) :   1.3484 B(  3-C ,  5-Cl) :   0.1392 
B(  3-C ,  9-H ) :   0.8901 B(  3-C , 10-H ) :   0.8911 B(  4-Cl,  5-Cl) :   0.0511 


------------------------------------------
LOEWDIN REDUCED ORBITAL POPULATIONS PER MO
-------------------------------------------
THRESHOLD FOR PRINTING IS 0.1%%
                      0         1         2         3         4         5   
                 -101.21574 -101.21217 -10.11789 -10.10896 -10.04210  -9.37172
                   2.00000   2.00000   2.00000   2.00000   2.00000   2.00000
                  --------  --------  --------  --------  --------  --------
 0 C  s               0.0       0.0       0.0       0.0      99.7       0.0
 1 C  s               0.0       0.0      99.7       0.0       0.0       0.0
 3 C  s               0.0       0.0       0.0      99.7       0.0       0.0
 3 C  px              0.0       0.0       0.0       0.0       0.0       0.1
 4 Cl s             100.0       0.0       0.0       0.0       0.0      99.8
 5 Cl s               0.0     100.0       0.0       0.0       0.0       0.0

                      6         7         8         9        10        11   
                  -9.36816  -7.11801  -7.11432  -7.10783  -7.10760  -7.10436
                   2.00000   2.00000   2.00000   2.00000   2.00000   2.00000
                  --------  --------  --------  --------  --------  --------
 1 C  px              0.1       0.0       0.0       0.0       0.0       0.0
 4 Cl pz              0.0       6.9       0.0      40.6      52.6       0.0
 4 Cl px              0.0      86.7       0.0      13.3       0.0       0.0
 4 Cl py              0.0       6.4       0.0      46.2      47.4       0.0
 5 Cl s              99.8       0.0       0.0       0.0       0.0       0.0
 5 Cl pz              0.0       0.0       3.1       0.0       0.0      65.8
 5 Cl px              0.0       0.0      83.2       0.0       0.0      12.1
 5 Cl py              0.0       0.0      13.7       0.0       0.0      22.1

                     12        13        14        15        16        17   
                  -7.10413  -0.86009  -0.81191  -0.72110  -0.66345  -0.57036
                   2.00000   2.00000   2.00000   2.00000   2.00000   2.00000
                  --------  --------  --------  --------  --------  --------
 0 C  s               0.0       4.9       1.4      22.5      12.7       5.3
 0 C  pz              0.0       0.2       0.0       0.1       0.0       3.0
 0 C  px              0.0       0.0       0.5       0.2       0.1       0.0
 0 C  py              0.0       3.1       0.4       0.5       0.9       4.8
 0 C  dyz             0.0       0.0       0.0       0.0       0.0       0.1
 1 C  s               0.0      21.4       4.2       6.7       1.1      12.8
 1 C  pz              0.0       1.0       0.0       0.2       0.2      10.3
 1 C  px              0.0       0.1       9.2       5.2       3.2       0.1
 1 C  py              0.0       0.8       0.0       7.4      10.5       0.1
 1 C  dyz             0.0       0.0       0.0       0.0       0.1       0.0
 1 C  dx2y2           0.0       0.0       0.0       0.3       0.0       0.0
 1 C  dxy             0.0       0.0       0.1       0.1       0.1       0.0
 2 H  s               0.0       2.3       0.5       1.2       0.2      10.9
 2 H  pz              0.0       0.2       0.1       0.1       0.0       0.7
 3 C  s               0.0      18.4       5.1       0.8      17.9       5.5
 3 C  pz              0.0       1.0       0.0       0.0       0.2       8.0
 3 C  px              0.0       0.1      11.3       2.1       4.5       0.6
 3 C  py              0.0       1.5       0.0       0.9       1.0       3.0
 3 C  dyz             0.0       0.0       0.0       0.0       0.0       0.1
 4 Cl s               0.0      16.6      36.4       7.8      16.6       1.9
 4 Cl pz              0.0       0.1       0.1       0.0       0.2       1.1
 4 Cl px              0.0       1.6       0.7       0.4       3.3       1.3
 4 Cl py              0.0       0.1       0.1       0.0       0.4       0.5
 4 Cl dz2             0.0       0.1       0.0       0.0       0.1       0.0
 4 Cl dxz             0.0       0.1       0.1       0.0       0.1       0.2
 4 Cl dx2y2           0.0       0.2       0.1       0.0       0.3       0.0
 4 Cl dxy             0.0       0.0       0.1       0.0       0.1       0.1
 5 Cl s               0.0      17.6      26.3      28.0       2.7       4.3
 5 Cl pz             31.1       0.0       0.0       0.0       0.0       1.1
 5 Cl px              4.7       1.7       0.5       1.0       0.7       3.6
 5 Cl py             64.2       0.2       0.1       0.4       0.1       0.6
 5 Cl dz2             0.0       0.1       0.0       0.1       0.0       0.1
 5 Cl dxz             0.0       0.0       0.0       0.0       0.0       0.3
 5 Cl dx2y2           0.0       0.2       0.1       0.0       0.2       0.2
 5 Cl dxy             0.0       0.1       0.1       0.1       0.0       0.2
 6 H  s               0.0       0.5       0.2       4.0       2.9       4.0
 6 H  pz              0.0       0.0       0.0       0.4       0.2       0.2
 7 H  s               0.0       0.6       0.1       4.2       3.3       2.2
 7 H  px              0.0       0.0       0.0       0.3       0.2       0.1
 8 H  s               0.0       0.5       0.2       4.0       3.6       2.1
 8 H  px              0.0       0.0       0.0       0.2       0.1       0.1
 8 H  py              0.0       0.0       0.0       0.1       0.1       0.0
 9 H  s               0.0       1.9       0.7       0.2       4.8       6.0
 9 H  pz              0.0       0.2       0.1       0.0       0.4       0.3
10 H  s               0.0       2.0       0.6       0.1       5.6       3.0
10 H  py              0.0       0.2       0.1       0.0       0.5       0.1

                     18        19        20        21        22        23   
                  -0.47061  -0.44857  -0.42928  -0.39745  -0.37023  -0.35943
                   2.00000   2.00000   2.00000   2.00000   2.00000   2.00000
                  --------  --------  --------  --------  --------  --------
 0 C  s               0.8       0.0       0.3       0.0       0.3       0.0
 0 C  pz              4.5       0.3      10.5       6.5       6.8      15.8
 0 C  px              0.1      15.2       2.4      10.4       0.4      16.2
 0 C  py              9.6       0.0       2.4       3.5      16.7       5.8
 0 C  dz2             0.0       0.0       0.0       0.1       0.1       0.1
 0 C  dxz             0.0       0.0       0.1       0.0       0.0       0.2
 0 C  dyz             0.0       0.0       0.1       0.0       0.1       0.2
 0 C  dx2y2           0.1       0.0       0.0       0.1       0.2       0.0
 0 C  dxy             0.0       0.0       0.0       0.0       0.0       0.4
 1 C  s               0.7       0.1       0.1       0.1       0.2       0.0
 1 C  pz             19.6       0.4       4.5       2.4       4.7       3.2
 1 C  px              0.0      16.4       2.2       0.2       1.2       2.3
 1 C  py              0.3       0.2      12.4       0.6      15.5       2.0
 1 C  dyz             0.0       0.0       0.0       0.1       0.0       0.3
 1 C  dx2y2           0.0       0.0       0.0       0.1       0.3       0.0
 1 C  dxy             0.0       0.0       0.0       0.1       0.0       0.3
 2 H  s               4.4       0.2       1.7       1.3       2.1       2.0
 2 H  pz              0.1       0.0       0.0       0.0       0.0       0.0
 2 H  px              0.0       0.1       0.0       0.0       0.0       0.1
 2 H  py              0.0       0.0       0.1       0.0       0.2       0.0
 3 C  s               0.3       0.1       0.1       0.3       0.0       0.6
 3 C  pz              8.7       2.0      16.2      13.1       1.2       1.1
 3 C  px              2.1       1.2      10.8       7.5       1.2       2.9
 3 C  py             18.2      11.8       0.4       0.5       8.5       6.3
 3 C  dz2             0.0       0.0       0.1       0.2       0.1       0.0
 3 C  dyz             0.0       0.1       0.0       0.0       0.0       0.0
 3 C  dx2y2           0.0       0.0       0.0       0.1       0.4       0.0
 4 Cl s               0.7       1.7       1.1       1.6       0.2       0.1
 4 Cl pz              0.4       0.0       6.9       0.1       4.1       1.4
 4 Cl px              1.9       9.8       4.5      22.4       5.0       0.1
 4 Cl py              3.0       1.3       0.6       4.3       1.3       2.9
 4 Cl dz2             0.1       0.1       0.0       0.2       0.0       0.0
 4 Cl dxz             0.1       0.0       0.5       0.0       0.1       0.0
 4 Cl dx2y2           0.0       0.3       0.0       0.2       0.1       0.1
 4 Cl dxy             0.4       0.1       0.0       0.1       0.0       0.1
 5 Cl s               0.3       4.8       0.0       0.0       0.3       0.0
 5 Cl pz              1.7       0.2       0.9       0.4       6.2       3.2
 5 Cl px              1.3      16.2       1.5       0.1       7.8       0.4
 5 Cl py              0.7       4.5       2.8       3.3       0.1       0.6
 5 Cl dz2             0.1       0.2       0.0       0.0       0.0       0.0
 5 Cl dxz             0.2       0.0       0.1       0.0       0.2       0.1
 5 Cl dx2y2           0.0       0.1       0.2       0.1       0.1       0.0
 5 Cl dxy             0.1       0.3       0.2       0.1       0.0       0.0
 6 H  s               0.2       0.7       4.4       3.7       4.2       5.7
 6 H  pz              0.0       0.0       0.1       0.1       0.0       0.0
 6 H  px              0.0       0.1       0.0       0.0       0.0       0.2
 6 H  py              0.1       0.0       0.0       0.0       0.1       0.0
 7 H  s               1.4       4.4       1.5       7.6       0.1       2.4
 7 H  pz              0.0       0.0       0.1       0.0       0.1       0.2
 7 H  px              0.1       0.1       0.0       0.2       0.0       0.0
 7 H  py              0.0       0.1       0.0       0.0       0.1       0.1
 8 H  s               4.5       2.2       0.7       0.0       1.0      20.4
 8 H  pz              0.0       0.1       0.0       0.0       0.1       0.0
 8 H  px              0.2       0.0       0.0       0.1       0.0       0.1
 8 H  py              0.0       0.1       0.1       0.0       0.1       0.1
 9 H  s               2.6       0.5       7.1       7.5       1.0       0.0
 9 H  pz              0.1       0.0       0.2       0.1       0.0       0.0
 9 H  px              0.0       0.0       0.1       0.0       0.0       0.0
10 H  s               9.5       3.4       1.5       0.0       6.7       1.4
10 H  pz              0.0       0.1       0.1       0.1       0.0       0.0
10 H  py              0.3       0.1       0.1       0.0       0.1       0.0

                     24        25        26        27        28        29   
                  -0.34973  -0.29288  -0.27918  -0.27869  -0.27385  -0.02366
                   2.00000   2.00000   2.00000   2.00000   2.00000   0.00000
                  --------  --------  --------  --------  --------  --------
 0 C  s               0.0       0.3       0.2       0.3       0.2       0.0
 0 C  pz              9.3       0.2       0.1       0.3       0.0       0.0
 0 C  px             11.6       0.1       0.5       0.0       0.9       0.1
 0 C  py              0.7       0.2       1.9       0.3       2.7       0.1
 0 C  dz2             0.4       0.0       0.0       0.0       0.0       0.0
 0 C  dxy             0.2       0.0       0.0       0.0       0.0       0.4
 1 C  s               0.2       0.6       0.1       0.0       0.3       3.0
 1 C  pz              6.2       0.1       2.0       2.3       0.3       0.9
 1 C  px              5.8       0.7       0.2       0.1       1.6      13.6
 1 C  py              0.2       0.2       0.3       0.1       3.7       2.5
 1 C  dz2             0.6       0.0       0.3       0.1       0.0       0.4
 1 C  dxz             0.0       0.0       0.1       0.2       0.0       0.0
 1 C  dx2y2           0.1       0.2       0.1       0.0       0.1       0.7
 1 C  dxy             0.3       0.0       0.0       0.0       0.2       0.2
 2 H  s               7.3       0.2       3.0       2.0       0.0       0.1
 2 H  px              0.0       0.0       0.0       0.0       0.0       0.4
 3 C  s               0.2       0.4       0.1       0.1       0.5       2.0
 3 C  pz              1.1       0.2       2.7       0.4       1.3       1.2
 3 C  px              1.6       0.3       0.3       0.2       1.8      11.3
 3 C  py              0.0       0.4       0.4       2.0       1.4       1.5
 3 C  dz2             0.2       0.1       0.3       0.0       0.0       0.2
 3 C  dxz             0.0       0.1       0.1       0.0       0.1       0.1
 3 C  dx2y2           0.1       0.2       0.1       0.0       0.0       1.1
 3 C  dxy             0.0       0.1       0.0       0.2       0.2       0.0
 4 Cl s               0.2       0.0       0.0       0.0       0.0       3.2
 4 Cl pz              0.5      24.0      29.2      15.8      11.2       0.5
 4 Cl px              6.3       2.7       0.6       0.2       8.2      15.5
 4 Cl py              0.4      24.5      16.7      23.8      15.0       0.5
 4 Cl dz2             0.0       0.0       0.1       0.0       0.0       1.3
 4 Cl dxz             0.0       0.0       0.0       0.0       0.0       0.6
 4 Cl dx2y2           0.0       0.0       0.0       0.0       0.1       4.4
 4 Cl dxy             0.0       0.0       0.0       0.0       0.0       0.4
 5 Cl s               0.4       0.0       0.0       0.0       0.0       3.6
 5 Cl pz              0.0       8.0      30.4      43.6       0.3       0.2
 5 Cl px             22.0       3.2       0.8       0.1       9.9      17.9
 5 Cl py              2.6      31.0       2.3       5.0      37.5       1.7
 5 Cl dz2             0.1       0.0       0.1       0.0       0.0       1.7
 5 Cl dxz             0.0       0.0       0.0       0.0       0.0       0.1
 5 Cl dyz             0.0       0.0       0.0       0.0       0.0       0.1
 5 Cl dx2y2           0.1       0.0       0.0       0.0       0.2       4.1
 5 Cl dxy             0.1       0.0       0.0       0.0       0.0       2.0
 6 H  s               8.7       0.0       0.1       0.2       0.2       0.2
 6 H  pz              0.1       0.0       0.0       0.0       0.0       0.0
 7 H  s               9.8       0.3       0.5       0.1       0.8       0.8
 7 H  px              0.1       0.0       0.0       0.0       0.0       0.0
 8 H  s               0.1       0.1       0.1       0.1       0.1       0.2
 9 H  s               2.0       0.8       3.3       0.7       0.3       0.0
 9 H  px              0.0       0.0       0.0       0.0       0.0       0.4
10 H  s               0.0       0.8       2.8       1.6       0.4       0.2
10 H  px              0.0       0.0       0.0       0.0       0.0       0.3

                     30        31        32        33        34        35   
                   0.01522   0.08999   0.10720   0.11422   0.12510   0.14225
                   0.00000   0.00000   0.00000   0.00000   0.00000   0.00000
                  --------  --------  --------  --------  --------  --------
 0 C  s               0.6      11.9       1.1      19.3       4.6       3.9
 0 C  pz              0.2       0.8       1.6       1.2      13.0       6.8
 0 C  px              0.4       0.9       0.5       0.2       0.3       3.4
 0 C  py              1.3       4.0       0.1      24.9       1.9       3.4
 0 C  dz2             0.1       0.1       0.4       0.1       0.6       0.1
 0 C  dxz             0.0       0.4       0.0       0.0       0.0       1.0
 0 C  dyz             0.0       0.6       0.0       0.1       0.6       0.2
 0 C  dx2y2           0.1       0.4       0.1       0.9       0.0       0.5
 0 C  dxy             0.4       0.0       0.2       0.0       0.0       0.3
 1 C  s               6.3       6.2       6.8       4.6       3.4       2.1
 1 C  pz              0.4       3.5       1.9       3.0      14.4       1.6
 1 C  px             10.9       5.9       9.5       0.6       0.7       1.9
 1 C  py              0.8       1.7       4.4       8.7       2.5       3.5
 1 C  dz2             0.0       0.2       0.2       0.7       1.8       0.0
 1 C  dxz             0.1       0.1       0.6       0.0       0.2       0.8
 1 C  dyz             0.0       0.2       0.8       0.5       0.5       0.0
 1 C  dx2y2           0.0       0.0       0.0       1.2       0.0       0.3
 1 C  dxy             0.3       0.2       0.5       0.1       0.1       0.0
 2 H  s               0.7       1.8       1.2       1.2      11.5       1.0
 2 H  pz              0.3       1.2       1.2       0.1       4.0       0.3
 2 H  px              0.6       0.2       0.5       0.1       0.3       0.4
 2 H  py              0.0       0.3       0.6       0.9       0.4       0.0
 3 C  s               8.0      10.8      14.5       0.2       0.4       0.7
 3 C  pz              0.8       2.7       2.0       3.2      13.5       4.0
 3 C  px             14.2       1.4      16.4       0.9       1.8       1.1
 3 C  py              0.7       5.0       8.5       1.8       0.9      10.4
 3 C  dz2             0.0       0.1       0.4       1.5       0.6       0.7
 3 C  dxz             0.2       0.0       0.8       0.0       0.1       0.0
 3 C  dyz             0.0       1.2       0.3       0.2       0.0       0.3
 3 C  dx2y2           0.0       0.4       0.1       0.3       0.0       1.1
 3 C  dxy             0.3       0.0       0.8       0.3       0.2       0.3
 4 Cl s               1.9       2.2       1.7       0.2       0.2       0.3
 4 Cl pz              1.7       0.1       0.3       0.2       0.6       0.4
 4 Cl px              9.4       1.3       0.1       0.0       0.0       0.2
 4 Cl py              1.5       0.2       0.6       0.0       0.2       0.8
 4 Cl dz2             1.2       0.0       0.9       0.1       0.2       0.0
 4 Cl dxz             3.5       0.1       0.5       0.1       0.2       1.3
 4 Cl dyz             0.2       2.5       0.6       0.9       0.9       3.1
 4 Cl dx2y2           3.1       0.1       2.7       0.6       0.2       0.0
 4 Cl dxy             3.9       0.1       0.0       0.3       0.0       1.2
 5 Cl s               0.6       2.1       0.6       0.4       0.0       0.2
 5 Cl pz              1.0       0.3       0.1       0.1       0.8       0.7
 5 Cl px              5.4       1.2       0.1       0.1       0.0       0.1
 5 Cl py              2.5       0.3       0.2       0.1       0.1       1.4
 5 Cl dz2             1.2       0.0       0.7       0.1       0.0       0.0
 5 Cl dxz             2.1       0.3       0.3       1.4       0.3       0.7
 5 Cl dyz             0.1       0.0       1.2       0.1       1.5       2.2
 5 Cl dx2y2           1.5       0.5       1.2       0.0       0.1       0.0
 5 Cl dxy             5.8       0.1       0.1       1.3       0.0       0.0
 6 H  s               0.6       1.1       1.5       1.0       5.7       4.5
 6 H  pz              0.1       0.4       0.3       0.6       2.9       0.7
 6 H  px              0.0       0.0       0.0       0.0       0.0       1.1
 6 H  py              0.0       0.4       0.0       0.4       0.2       0.3
 7 H  s               0.4       2.7       0.1       1.4       0.2       6.0
 7 H  pz              0.0       0.0       0.0       0.0       0.0       1.6
 7 H  px              0.0       1.2       0.0       0.7       0.0       1.2
 7 H  py              0.2       0.0       0.0       0.7       0.0       0.0
 8 H  s               0.4       5.1       0.6       1.5       0.2       1.0
 8 H  pz              0.1       0.7       0.4       0.1       0.1       0.1
 8 H  px              0.1       0.8       0.0       0.4       0.0       0.1
 8 H  py              0.0       0.0       0.1       1.6       0.0       0.1
 9 H  s               0.6       3.7       3.8       4.8       4.6       1.9
 9 H  pz              0.3       0.8       2.3       0.9       1.8       0.6
 9 H  px              0.7       0.0       0.6       0.0       0.1       0.0
 9 H  py              0.0       1.2       0.1       0.1       0.1       0.5
10 H  s               0.8       5.7       0.8       1.5       0.1      13.3
10 H  pz              0.0       1.5       0.0       0.5       0.1       0.2
10 H  px              0.8       0.0       0.4       0.1       0.1       0.2
10 H  py              0.3       0.8       1.2       0.6       0.1       3.5

                     36        37        38        39        40        41   
                   0.17159   0.17654   0.17982   0.18635   0.19773   0.22543
                   0.00000   0.00000   0.00000   0.00000   0.00000   0.00000
                  --------  --------  --------  --------  --------  --------
 0 C  s               0.0       0.1       2.9       0.7       1.8       0.3
 0 C  pz              3.4       0.1       6.3       6.6      13.9      36.4
 0 C  px             16.3      16.1      12.3       4.5       3.6       0.6
 0 C  py              2.0       1.4       6.8      18.4       0.3       2.1
 0 C  dz2             0.4       0.0       1.5       1.1       1.8       0.0
 0 C  dxz             1.0       0.2       0.0       0.1       0.7       0.1
 0 C  dyz             0.7       0.0       0.0       0.2       0.0       0.3
 0 C  dx2y2           0.1       0.0       0.7       1.8       0.3       0.0
 0 C  dxy             2.4       0.1       0.0       0.0       0.0       0.0
 1 C  s               0.3       3.2       0.9       0.9       0.1       1.0
 1 C  pz              0.4       0.1       4.8       5.0       0.6      11.1
 1 C  px              0.8       5.1       2.3       0.0       2.6       2.9
 1 C  py              3.5       0.6       4.1      10.8       3.3       0.0
 1 C  dz2             0.0       0.0       0.1       0.2       0.0       0.0
 1 C  dxz             0.1       0.0       0.0       0.3       0.1       0.2
 1 C  dyz             0.1       0.0       0.7       0.2       0.0       0.2
 1 C  dx2y2           0.1       0.0       0.2       0.0       0.2       0.1
 1 C  dxy             1.2       0.0       0.1       0.0       0.7       0.0
 2 H  s               0.0       0.1       3.0       4.2       0.1       1.2
 2 H  pz              0.0       0.0       1.3       1.1       0.0       0.5
 2 H  px              0.1       0.1       0.0       0.1       0.2       0.2
 2 H  py              0.0       0.0       0.7       0.1       0.2       0.0
 3 C  s               0.1       1.0       2.1       0.3       3.4       2.1
 3 C  pz              7.8       9.6       8.3       2.7      11.3       4.0
 3 C  px              0.9      11.5       0.1       2.9       1.3       7.1
 3 C  py              7.3      22.6       2.7       3.2       0.7       1.0
 3 C  dz2             0.3       0.2       0.0       0.9       0.1       0.8
 3 C  dxz             0.3       0.0       0.2       0.3       0.1       0.3
 3 C  dyz             0.1       0.6       0.0       0.1       0.3       0.3
 3 C  dx2y2           0.0       0.0       0.0       0.1       0.0       0.0
 3 C  dxy             0.2       0.0       0.0       0.0       0.0       0.2
 4 Cl s               0.1       1.0       0.5       0.4       0.7       0.5
 4 Cl pz              0.8       0.2       0.3       0.2       0.4       0.9
 4 Cl px              0.1       0.1       1.8       0.2       0.2       0.3
 4 Cl py              0.2       0.5       1.1       0.5       1.3       0.2
 4 Cl dz2             0.6       0.7       0.0       0.4       0.4       1.3
 4 Cl dxz             1.8       0.6       1.0       2.6       0.6       1.5
 4 Cl dyz             0.2       2.9       0.0       0.4       0.1       0.7
 4 Cl dx2y2           0.0       2.2       0.4       1.8       0.2       1.3
 4 Cl dxy             0.2       0.2       0.3       3.2       0.0       0.1
 5 Cl s               0.1       5.7       0.3       0.1       0.0       0.2
 5 Cl pz              0.3       0.4       0.0       0.1       0.1       0.4
 5 Cl px              0.5       3.6       0.3       0.1       0.6       0.1
 5 Cl py              0.0       0.9       1.1       0.1       0.3       0.1
 5 Cl dz2             0.2       0.1       0.3       0.5       0.4       2.4
 5 Cl dxz             0.4       0.2       2.0       0.9       0.5       0.7
 5 Cl dyz             0.6       0.0       2.3       0.2       6.5       0.0
 5 Cl dx2y2           3.3       0.4       1.5       0.0       2.6       0.1
 5 Cl dxy             0.5       0.6       1.6       0.1       0.2       0.1
 6 H  s               0.3       0.0       4.0       4.0      16.9       1.2
 6 H  pz              0.2       0.0       0.2       0.3       4.2       0.8
 6 H  px              1.4       0.3       0.2       0.1       0.4       0.0
 6 H  py              0.2       0.0       0.1       0.4       0.0       0.5
 7 H  s              11.8       1.5       6.3       2.4       3.7       0.0
 7 H  pz              0.2       0.0       0.1       0.5       1.1       0.3
 7 H  px              1.5       0.1       1.3       1.3       1.7       0.0
 7 H  py              1.5       0.0       0.0       0.1       0.1       0.1
 8 H  s              16.3       1.0       3.7       0.1       1.9       1.7
 8 H  pz              2.5       0.0       0.1       0.3       0.1       0.4
 8 H  px              0.8       0.0       2.6       0.0       1.3       0.2
 8 H  py              1.7       0.1       0.2       0.8       0.0       0.9
 9 H  s               0.8       0.9       2.6       6.4       0.5       5.5
 9 H  pz              0.0       0.0       0.9       1.7       0.3       1.0
 9 H  px              0.2       0.0       0.1       0.1       0.1       0.4
 9 H  py              0.0       0.4       0.0       0.0       0.3       0.2
10 H  s               0.3       0.9       0.1       2.1       3.1       1.7
10 H  pz              0.3       0.3       0.0       0.2       0.3       0.9
10 H  py              0.2       0.8       0.1       0.8       1.0       0.6

                     42        43        44        45        46        47   
                   0.24061   0.24358   0.27061   0.28129   0.29677   0.30942
                   0.00000   0.00000   0.00000   0.00000   0.00000   0.00000
                  --------  --------  --------  --------  --------  --------
 0 C  s               0.0       3.6       0.6       0.1       0.2       0.6
 0 C  pz              1.0       8.1       0.4       6.0       1.4       0.7
 0 C  px             24.0       8.3       1.4       1.3       0.9       5.5
 0 C  py              0.1      19.0       0.7       2.4       1.0       1.4
 0 C  dz2             0.0       0.5       0.3       0.0       0.1       0.0
 0 C  dxz             0.1       0.0       0.0       0.3       0.2       0.2
 0 C  dyz             0.6       0.2       0.0       0.0       0.0       0.0
 0 C  dx2y2           0.1       0.3       0.1       0.1       0.2       0.0
 0 C  dxy             0.0       0.0       0.0       0.3       0.0       0.6
 1 C  s               0.2       0.4       1.1       0.6       3.5       8.0
 1 C  pz              8.9       6.3       6.8       0.2      10.1       1.4
 1 C  px              4.7       3.6      14.5       8.0       0.0       0.8
 1 C  py              2.3       6.0       0.1       0.3       4.2       0.4
 1 C  dz2             1.2       1.4       0.2       0.0       0.1       0.8
 1 C  dxz             0.3       0.4       0.0       0.1       0.0       0.1
 1 C  dyz             0.4       0.2       0.1       0.1       0.0       0.0
 1 C  dx2y2           0.1       1.1       0.0       0.4       0.0       0.8
 1 C  dxy             0.1       0.0       0.0       0.2       0.0       0.5
 2 H  s               3.7       4.8       0.4       0.0       0.3       3.5
 2 H  pz              0.1       0.6       0.4       0.0       0.5       0.5
 2 H  px              0.0       0.4       0.1       0.4       0.0       0.2
 2 H  py              0.2       0.2       0.0       0.1       0.0       0.0
 3 C  s               3.3       0.5       2.1       7.3       2.6       0.9
 3 C  pz              3.1       0.2      12.3       3.2       1.4       2.8
 3 C  px             11.3       0.2       3.6       6.5       0.9       1.3
 3 C  py              0.6       2.2       2.4       3.6      10.9       1.4
 3 C  dz2             0.4       0.1       0.3       0.0       0.6       0.3
 3 C  dxz             0.0       0.4       0.1       0.3       0.0       0.0
 3 C  dyz             0.0       0.1       0.0       0.3       0.2       0.1
 3 C  dx2y2           0.0       0.3       0.5       1.0       0.1       0.3
 3 C  dxy             0.2       0.1       1.2       0.2       0.7       0.0
 4 Cl s               2.1       0.0       0.8       2.3       3.6       0.1
 4 Cl pz              0.4       0.1       0.1       3.8       0.8       0.2
 4 Cl px              1.5       0.4       1.8      10.7      19.9       3.2
 4 Cl py              1.2       0.1       1.7       2.9       0.4       0.5
 4 Cl dz2             2.8       1.5       0.8       1.5       3.4       2.9
 4 Cl dxz             4.2       0.7       1.7       0.5       1.9       8.2
 4 Cl dyz             0.0       0.2       0.8       0.4       0.0       3.6
 4 Cl dx2y2           0.5       0.0       8.6       1.5       1.1       0.3
 4 Cl dxy             1.2       0.2      12.7       0.5       6.3       6.0
 5 Cl s               0.2       0.1       1.5       0.2       2.3       2.1
 5 Cl pz              0.4       1.3       0.5       1.8       0.5       0.1
 5 Cl px              0.2       0.1       3.1       1.2       4.4      21.0
 5 Cl py              0.7       1.0       0.2       0.3       0.4       8.1
 5 Cl dz2             2.6       0.6       2.1       3.1       1.8       0.3
 5 Cl dxz             2.8       6.8       3.4       1.6       2.1       1.9
 5 Cl dyz             3.6       0.6       0.0       2.1       0.6       0.0
 5 Cl dx2y2           1.8       0.1       1.1       3.9       0.9       1.2
 5 Cl dxy             0.7       8.5       0.1       4.1       0.2       1.6
 6 H  s               0.3       0.8       1.1       0.0       0.6       0.1
 6 H  pz              0.0       0.2       0.4       0.2       0.3       0.0
 6 H  px              0.1       0.1       0.0       0.2       0.2       0.3
 6 H  py              0.7       0.1       0.1       0.0       0.1       0.0
 7 H  s               1.2       2.0       0.3       0.1       0.1       0.7
 7 H  pz              0.0       0.1       0.0       0.1       0.2       0.1
 7 H  px              0.5       0.0       0.3       0.1       0.1       0.4
 7 H  py              0.5       0.3       0.0       0.3       0.1       0.3
 8 H  s               1.5       2.0       0.3       2.9       1.5       2.3
 8 H  pz              0.0       0.1       0.6       0.1       0.4       0.0
 8 H  px              0.5       0.5       0.0       0.3       0.5       0.1
 9 H  s               0.4       0.1       0.3       2.1       2.3       0.7
 9 H  pz              0.1       0.0       0.3       1.0       0.3       0.0
 9 H  px              0.1       0.3       0.1       0.5       0.0       0.0
 9 H  py              0.0       0.2       0.0       0.6       0.6       0.1
10 H  s               0.1       1.1       3.6       4.8       1.2       0.6
10 H  pz              0.1       0.0       0.1       0.3       0.0       0.0
10 H  px              0.0       0.3       1.1       0.2       0.2       0.0
10 H  py              0.1       0.0       0.5       0.3       0.1       0.1

                     48        49        50        51        52        53   
                   0.33877   0.36306   0.36640   0.37692   0.38547   0.40743
                   0.00000   0.00000   0.00000   0.00000   0.00000   0.00000
                  --------  --------  --------  --------  --------  --------
 0 C  s               0.2       1.6       3.8       7.7       0.4       2.4
 0 C  pz              0.4       0.7       0.1       0.0       0.7       0.6
 0 C  px              1.0       0.9       0.1       0.2       0.6       0.2
 0 C  py              4.0       3.2       0.2       0.9       2.7       4.0
 0 C  dxz             0.1       0.1       0.0       0.0       0.1       0.0
 0 C  dyz             0.3       0.0       0.1       0.1       0.1       0.3
 0 C  dx2y2           0.1       0.3       0.0       0.0       0.3       0.4
 1 C  s               3.8       0.5       0.3       2.1       0.5       0.7
 1 C  pz              4.1       0.0       0.3       1.6       1.0       2.1
 1 C  px              3.1       0.6       0.1       0.9       0.4       0.6
 1 C  py              1.4       4.5       0.1       1.3       0.7       1.3
 1 C  dz2             0.1       0.0       0.0       0.0       0.2       0.0
 1 C  dxz             0.6       0.0       0.3       0.0       0.1       0.0
 1 C  dyz             0.1       0.0       0.2       0.0       0.0       0.1
 1 C  dx2y2           0.1       0.3       0.1       0.0       0.1       0.0
 1 C  dxy             0.3       0.2       0.0       0.0       0.3       0.1
 2 H  s               1.0       0.1       0.3       3.2       0.0       0.4
 2 H  pz              0.1       0.0       0.0       0.8       0.0       0.0
 2 H  px              0.4       0.0       0.0       0.2       0.0       0.0
 2 H  py              0.2       0.0       0.1       0.1       0.1       0.3
 3 C  s               3.3       0.1       0.2       1.4       0.6       1.1
 3 C  pz              1.2       0.2       0.6       1.0       0.7       0.3
 3 C  px              3.6       0.6       0.2       0.8       0.0       0.3
 3 C  py              5.7       0.2       0.1       0.4       1.4       0.8
 3 C  dz2             0.0       0.0       0.0       0.0       0.2       0.0
 3 C  dxz             0.8       0.0       0.0       0.1       0.2       0.1
 3 C  dx2y2           0.0       0.2       0.0       0.0       0.1       0.0
 3 C  dxy             0.3       0.0       0.1       0.0       0.2       0.0
 4 Cl s               0.1       0.0       0.0       0.1       0.0       0.0
 4 Cl pz              4.6       0.7      26.5       1.3      15.1      13.0
 4 Cl px              4.3       1.9       1.1       3.1       5.9       8.8
 4 Cl py              6.2       9.0       0.2       2.3      22.7       0.1
 4 Cl dz2             8.6       1.2       2.0       0.7       0.3      23.2
 4 Cl dxz             4.7       1.0       1.5       0.1       8.6       3.4
 4 Cl dyz             4.1       0.9       0.9       6.6       0.1       0.2
 4 Cl dx2y2           0.8       0.4       0.6       1.6       0.0       3.8
 4 Cl dxy             2.7       1.7       0.2       0.2       8.3       1.4
 5 Cl s               0.2       0.0       0.1       0.2       0.0       0.0
 5 Cl pz              0.0       0.7      19.8      33.7       6.9       0.2
 5 Cl px              7.5       6.7       2.3       8.1       0.0       0.1
 5 Cl py              0.2      27.4       0.7       0.4       3.8       6.6
 5 Cl dz2             6.7       1.0      19.4       1.4       1.7       1.0
 5 Cl dxz             3.0       1.8       6.6       4.0       6.3       4.4
 5 Cl dyz             4.0       5.0       5.5       0.4       0.0       5.7
 5 Cl dx2y2           0.0      16.4       0.3       0.8       1.8       0.0
 5 Cl dxy             1.0       5.4       1.4       0.1       1.6       2.1
 6 H  s               0.1       0.1       0.1       2.4       0.0       1.1
 6 H  pz              0.1       0.0       0.1       0.8       0.0       0.4
 6 H  px              0.0       0.1       0.1       0.1       0.1       0.2
 6 H  py              0.5       0.0       0.0       0.1       0.1       0.2
 7 H  s               0.0       0.6       1.0       2.7       0.0       1.4
 7 H  pz              0.0       0.0       0.0       0.0       0.0       0.2
 7 H  px              0.0       0.2       0.2       0.7       0.0       0.5
 8 H  s               2.0       0.9       0.8       1.2       0.2       0.5
 8 H  pz              0.3       0.1       0.0       0.1       0.1       0.1
 8 H  px              0.2       0.0       0.1       0.4       0.0       0.0
 8 H  py              0.6       0.4       0.1       0.1       0.0       0.0
 9 H  s               0.4       0.2       0.2       1.3       0.1       3.4
 9 H  pz              0.1       0.0       0.0       0.3       0.0       1.2
 9 H  px              0.3       0.0       0.1       0.0       0.0       0.3
 9 H  py              0.0       0.0       0.0       0.0       0.1       0.0
10 H  s               0.3       0.8       0.2       1.0       3.2       0.0
10 H  pz              0.0       0.0       0.1       0.1       0.0       0.0
10 H  px              0.0       0.3       0.1       0.2       0.1       0.0
[...]
 4 Cl dx2y2           0.0       0.2       0.0       0.4       0.1       0.0
 4 Cl dxy             0.0       0.1       0.0       0.2       0.0       0.0
 5 Cl s               0.1       1.5       1.3       1.6       0.0       0.0
 5 Cl pz              0.0       0.8       0.4       0.3       0.0       0.0
 5 Cl px              2.0      15.7       8.0       7.9       0.0       0.3
 5 Cl py              0.8       3.1       1.3       1.3       0.0       0.1
 5 Cl dz2             0.0       0.1       0.1       0.1       0.0       0.0
 5 Cl dxz             0.0       0.1       0.0       0.1       0.0       0.0
 5 Cl dx2y2           0.0       0.3       0.2       0.2       0.0       0.1
 5 Cl dxy             0.0       0.2       0.1       0.2       0.0       0.1
 6 H  s               0.0       0.0       0.7       0.1       1.7       0.8
 6 H  pz              0.0       0.1       7.5       0.9       8.8       3.2
 6 H  px              8.5       1.1       0.3       0.1       0.3       0.4
 6 H  py              2.7       0.5       0.5       0.0       0.2       0.2
 7 H  s               0.4       0.2       0.7       0.0       0.5       1.8
 7 H  pz              1.4       1.6       0.1       0.2       0.5       0.8
 7 H  px              2.3       0.2       6.4       0.5       2.3       6.2
 7 H  py              6.5       0.0       3.1       0.2       0.7       0.2
 8 H  s               0.0       0.3       0.8       0.2       0.7       0.2
 8 H  pz              5.4       0.2       1.3       0.7       2.2       0.6
 8 H  px              5.8       0.0       4.0       0.4       1.4       0.7
 8 H  py              0.4       0.0       5.3       0.1       1.4       0.0
 9 H  s               0.1       0.5       0.3       0.5       2.6       1.5
 9 H  pz              0.0       2.1       3.4       4.2      11.9       4.9
 9 H  px              1.0       1.5       0.2       1.3       0.1       0.1
 9 H  py              0.3       3.4       0.0       0.3       0.7       0.4
10 H  s               0.0       0.1       0.6       0.5       1.4       1.2
10 H  pz              1.8       2.0       0.2       0.5       1.5       1.0
10 H  px              0.1       1.6       0.5       0.8       0.0       0.1
10 H  py              0.7       3.6       4.2       3.6       6.8       3.5

                    132       133       134       135       136       137   
                   3.49881   3.54619   3.56404   3.58430  21.76304  21.92089
                   0.00000   0.00000   0.00000   0.00000   0.00000   0.00000
                  --------  --------  --------  --------  --------  --------
 0 C  s               0.5       0.0       0.1       0.5      14.3       8.2
 0 C  pz              4.8       0.8       3.7       2.4       0.0       0.0
 0 C  px              0.1       8.9       3.2       1.4       0.0       0.0
 0 C  py              3.8       0.1       0.3       1.1       0.0       0.0
 0 C  dz2             5.6       6.1       2.2       8.4       0.0       0.0
 0 C  dxz             3.1       1.8       4.2       0.1       0.0       0.0
 0 C  dyz             5.3       0.1       0.9       0.5       0.0       0.0
 0 C  dx2y2           2.1       2.6       0.2       0.1       0.0       0.0
 0 C  dxy             1.4       9.8       3.9       0.6       0.0       0.0
 1 C  s               0.4       0.2       0.1       1.4      23.6      55.4
 1 C  pz              3.1       0.4       1.1       6.3       0.0       0.0
 1 C  py              0.3       0.1       0.0       0.3       0.0       0.0
 1 C  dz2             4.4       0.2       1.3      13.9       0.0       0.0
 1 C  dxz             0.1       1.0       0.6       1.6       0.0       0.0
 1 C  dyz             0.1       0.2       0.2       0.0       0.0       0.0
 1 C  dx2y2           0.8       0.1       0.0       0.7       0.0       0.0
 1 C  dxy             0.2       0.2       0.6       0.1       0.0       0.0
 2 H  s               2.3       0.2       0.9       6.0       0.0       0.0
 2 H  pz              5.5       0.8       2.3      16.7       0.0       0.0
 2 H  px              0.4       0.1       0.1       0.2       0.0       0.0
 3 C  s               0.3       0.1       0.2       0.2      61.5      36.0
 3 C  pz              0.4       3.0       2.2       2.6       0.0       0.0
 3 C  px              0.1       0.1       0.0       0.3       0.0       0.0
 3 C  py              2.6       0.3       5.5       0.2       0.0       0.0
 3 C  dz2             1.5       7.2       5.6       5.3       0.0       0.0
 3 C  dxz             0.1       0.4       0.0       0.8       0.0       0.0
 3 C  dyz             1.2       0.0       1.2       0.2       0.0       0.0
 3 C  dx2y2           3.2       0.6       3.8       0.5       0.0       0.0
 3 C  dxy             0.5       0.1       1.1       0.1       0.0       0.0
 4 Cl s               0.0       0.0       0.0       0.0       0.2       0.0
 4 Cl px              0.0       0.1       0.2       0.0       0.0       0.0
 5 Cl s               0.0       0.0       0.0       0.0       0.1       0.1
 5 Cl px              0.0       0.0       0.0       0.2       0.0       0.0
 5 Cl py              0.0       0.1       0.0       0.1       0.0       0.0
 6 H  s               3.5       1.7       2.3       3.0       0.0       0.0
 6 H  pz              6.5       4.4       5.3       8.3       0.0       0.0
 6 H  px              0.4       0.0       1.1       0.1       0.0       0.0
 6 H  py              0.0       0.0       0.2       0.1       0.0       0.0
 7 H  s               0.7       7.8       1.0       1.0       0.0       0.0
 7 H  pz              0.0       0.4       0.6       0.1       0.0       0.0
 7 H  px              3.0      16.2       1.7       1.2       0.0       0.0
 7 H  py              0.1       2.8       0.8       1.0       0.0       0.0
 8 H  s               5.0       2.1       4.6       0.1       0.0       0.0
 8 H  pz              2.5       2.1       2.3       0.3       0.0       0.0
 8 H  px              9.1       1.0       4.5       0.2       0.0       0.0
 8 H  py              3.0       2.3       3.8       0.0       0.0       0.0
 9 H  s               0.4       2.8       2.6       2.4       0.0       0.0
 9 H  pz              0.5       7.2       5.8       6.6       0.0       0.0
 9 H  px              0.1       0.1       0.1       0.0       0.0       0.0
 9 H  py              0.0       0.1       0.1       0.0       0.0       0.0
10 H  s               2.8       1.0       5.0       0.7       0.0       0.0
10 H  pz              0.5       0.0       0.6       0.0       0.0       0.0
10 H  px              0.5       0.0       0.3       0.0       0.0       0.0
10 H  py              7.0       2.3      11.2       1.8       0.0       0.0

                    138       139       140   
                  21.93861  25.07850  25.25718
                   0.00000   0.00000   0.00000
                  --------  --------  --------
 0 C  s              77.2       0.0       0.0
 1 C  s              20.5       0.4       0.2
 3 C  s               2.0       0.4       0.2
 4 Cl s               0.0      54.4      44.7
 5 Cl s               0.1      44.5      54.6


                      *****************************
                      * MAYER POPULATION ANALYSIS *
                      *****************************

  NA   - Mulliken gross atomic population
  ZA   - Total nuclear charge
  QA   - Mulliken gross atomic charge
  VA   - Mayer's total valence
  BVA  - Mayer's bonded valence
  FA   - Mayer's free valence

  ATOM       NA         ZA         QA         VA         BVA        FA
  0 C      6.4687     6.0000    -0.4687     3.8253     3.8253    -0.0000
  1 C      5.9754     6.0000     0.0246     3.7049     3.7049     0.0000
  2 H      0.8224     1.0000     0.1776     0.9442     0.9442     0.0000
  3 C      6.1784     6.0000    -0.1784     3.8155     3.8155     0.0000
  4 Cl    17.1901    17.0000    -0.1901     1.0472     1.0472    -0.0000
  5 Cl    17.1991    17.0000    -0.1991     1.0338     1.0338    -0.0000
  6 H      0.8432     1.0000     0.1568     0.9645     0.9645    -0.0000
  7 H      0.8332     1.0000     0.1668     0.9602     0.9602     0.0000
  8 H      0.8372     1.0000     0.1628     0.9604     0.9604     0.0000
  9 H      0.8322     1.0000     0.1678     0.9573     0.9573     0.0000
 10 H      0.8200     1.0000     0.1800     0.9480     0.9480    -0.0000

  Mayer bond orders larger than 0.100000
B(  0-C ,  1-C ) :   0.9360 B(  0-C ,  6-H ) :   0.9738 B(  0-C ,  7-H ) :   0.9512 
B(  0-C ,  8-H ) :   0.9642 B(  1-C ,  2-H ) :   0.9383 B(  1-C ,  3-C ) :   0.9316 
B(  1-C ,  5-Cl) :   0.9233 B(  3-C ,  4-Cl) :   0.9571 B(  3-C ,  9-H ) :   0.9585 
B(  3-C , 10-H ) :   0.9487 

-------
TIMINGS
-------

Total SCF time: 0 days 0 hours 0 min 13 sec 

Total time                  ....      13.337 sec
Sum of individual times     ....      12.651 sec  ( 94.9%)

SCF preparation             ....       0.166 sec  (  1.2%)
Fock matrix formation       ....      11.648 sec  ( 87.3%)
  Startup                   ....       0.046 sec  (  0.4% of F)
  Split-RI-J                ....       1.328 sec  ( 11.4% of F)
  XC integration            ....       9.858 sec  ( 84.6% of F)
    XC Preparation          ....       0.000 sec  (  0.0% of XC)
    Basis function eval.    ....       1.309 sec  ( 13.3% of XC)
    Density eval.           ....       2.229 sec  ( 22.6% of XC)
    XC-Functional eval.     ....       1.205 sec  ( 12.2% of XC)
    XC-Potential eval.      ....       2.293 sec  ( 23.3% of XC)
Diagonalization             ....       0.000 sec  (  0.0%)
Density matrix formation    ....       0.165 sec  (  1.2%)
Total Energy calculation    ....       0.028 sec  (  0.2%)
Population analysis         ....       0.064 sec  (  0.5%)
Orbital Transformation      ....       0.053 sec  (  0.4%)
Orbital Orthonormalization  ....       0.000 sec  (  0.0%)
DIIS solution               ....       0.487 sec  (  3.7%)
  MO trafo                  ....       0.000 sec  (  0.0 % of DIIS)
  Orb grad                  ....       0.000 sec  (  0.0 % of DIIS)
  Energy W gradient         ....       0.000 sec  (  0.0 % of DIIS)
  DIIS error                ....       0.004 sec  (  0.9 % of DIIS)
  DIIS work                 ....       0.432 sec  ( 88.8 % of DIIS)
  Form Q                    ....       0.000 sec  (  0.0 % of DIIS)
  Form QpQm                 ....       0.000 sec  (  0.0 % of DIIS)
  Exp/Cayley                ....       0.000 sec  (  0.0 % of DIIS)
  Orb update                ....       0.000 sec  (  0.0 % of DIIS)
  Wake-sleep                ....       0.017 sec  (  3.5 % of DIIS)
SOSCF solution              ....       0.040 sec  (  0.3%)
  MO trafo                  ....       0.028 sec  ( 71.6 % of SOSCF)
  Orb grad                  ....       0.001 sec  (  1.3 % of SOSCF)
  Rot update                ....       0.000 sec  (  0.1 % of SOSCF)
  Step                      ....       0.011 sec  ( 26.8 % of SOSCF)
Finished LeanSCF after  13.5 sec

Maximum memory used throughout the entire LEANSCF-calculation: 14.3 MB


-------------------------------------------------------------------------------
                          DFT DISPERSION CORRECTION                            
                                                                               
                                DFTD4 V3.4.0                                   
-------------------------------------------------------------------------------
The R2SCAN3C composite method is recognized
Using three-body term ABC
Active option DFTDOPT                   ...         5   

-------------------------   ----------------
Dispersion correction           -0.002977686
-------------------------   ----------------

------------------   -----------------
gCP correction             0.009620049
------------------   -----------------

-------------------------   --------------------
FINAL SINGLE POINT ENERGY     -1038.253672299626
-------------------------   --------------------


------------------------------------------------------------------------------
                              ORCA PROPERTY CALCULATIONS
------------------------------------------------------------------------------

GBWName                                 ... sp_gas.gbw
Number of atoms                         ...     11
Number of basis functions               ...    141
Max core memory                         ...   1024 MB

Electric properties:
Dipole moment                           ... YES
Quadrupole moment                       ...  NO
Static polarizability (Dipole/Dipole)   ...  NO
Static polarizability (Dipole/Quad.)    ...  NO
Static polarizability (Quad./Quad.)     ...  NO
Static polarizability (Velocity)        ...  NO

Atomic electric properties:
Dipole moment                           ...  NO
Quadrupole moment                       ...  NO
Static polarizability                   ...  NO

Choice of electric origin               ... Center of mass
Position of electric origin             ...     0.000002     0.000010    -0.000002

General magnetic properties:
Magnetizability                         ...  NO

EPR properties:
g-Tensor (aka g-matrix)                 ...  NO
Zero-Field splitting spin-orbit         ...  NO
Zero-field splitting spin-spin          ...  NO
Hyperfine couplings                     ...  NO (   0 nuclei)
Quadrupole couplings                    ...  NO (   0 nuclei)
Contact density                         ...  NO (   0 nuclei)

NMR properties:
Chemical shifts                         ...  NO (   0 nuclei)
Spin-rotation constants                 ...  NO (   0 nuclei)
Spin-spin couplings                     ...  NO (   0 nuclei,    0 pairs)

Choice of magnetic origin               ... GIAO
Position of magnetic origin             ...     0.000000     0.000000     0.000000

Properties with geometric perturbations:
SCF Hessian                             ...  NO
IR spectrum                             ...  NO
VCD spectrum                            ...  NO
X-ray spectroscopy properties:
SCF XES/XAS/RIXS spectra                ...  NO


-------------
DIPOLE MOMENT
-------------

Method             : SCF
Type of density    : Electron Density
Multiplicity       :   1
Irrep              :   0
Energy             : -1038.2603146628227933 Eh
Relativity type    : 
Basis              : AO
                                X                 Y                 Z
Electronic contribution:     -0.748779409      -4.530379408       0.972607258
Nuclear contribution   :      0.740898588       4.764414123      -1.036435173
                        -----------------------------------------
Total Dipole Moment    :     -0.007880821       0.234034716      -0.063827915
                        -----------------------------------------
Magnitude (a.u.)       :      0.242710441
Magnitude (Debye)      :      0.616920914



--------------------
Rotational spectrum 
--------------------
 
Rotational constants in cm-1:             0.228908             0.048370             0.041794 
Rotational constants in MHz :          6862.481181          1450.097432          1252.949274 

Dipole components along the rotational axes: 
x,y,z [a.u.] :    -0.007880    -0.234035    -0.063828 
x,y,z [Debye]:    -0.020030    -0.594869    -0.162238 

 

Dipole moment calculation done in   0.0 sec 

Maximum memory used throughout the entire PROP-calculation: 8.1 MB

--------------------------------
SUGGESTED CITATIONS FOR THIS RUN
--------------------------------

Below you find a list of papers that are relevant to this ORCA run
We neither can nor want to force you to cite these papers, but we appreciate if you do
You receive ORCA, which is the product of decades of hard work by many enthusiastic individuals, for free
The only thing we kindly ask in return is that you cite our papers,
We deeply appreciate it, if you show your appreciation for ORCA by not just citing the generic ORCA reference.

Please note that relegating all ORCA citations to the supporting information does *not* help us.
SI sections are not indexed - citations you put there will not count into any citation statistics
But we need these citations in order to attract the funding resources that allow us to do what we are doing

Therefore, if you are a happy ORCA user, please consider citing a few of the papers listed below in the main body of your paper

In addition to the list printed below, the program has created the file sp_gas.bibtex that contains the list in bibtex format
You can import this file easily into all common literature databanks and citation aid programs


List of essential papers. We consider these as the minimum necessary citations

  1. Neese,F.
     Software update: the ORCA program system, version 5.0
     WIRES Comput. Molec. Sci., 2022 12(1)e1606
     doi.org/10.1002/wcms.1606
  2. Grimme,S.; Hansen,A.; Ehlert,S.; Mewes,J.
     r2SCAN-3c: A 'Swiss army knife' composite electronic-structure method
     J. Chem. Phys., 2021 154 064103
     doi.org/10.1063/5.0040021

List of papers to cite with high priority. The work reported in these papers was absolutely
necessary for this run to complete.
Our perspective: the developers of density functionals and basis sets usually get cited in chemistry papers
Good! But without the algorithms to do something with them, the functionals or basis sets would not do anything.
Hence, in our opinion, the algorithm design and method developments papers are equally worthy of getting cited

  1. Neese,F.
     An improvement of the resolution of the identity approximation for the formation of the Coulomb matrix
     J. Comp. Chem., 2003 24(14)1740-1747
     doi.org/10.1002/jcc.10318
  2. Neese,F.
     The SHARK Integral Generation and Digestion System
     J. Comp. Chem., 2022  1-16
     doi.org/10.1002/jcc.26942
  3. Lehtola,S.; Steigemann,C.; Oliveira,M.; Marques,M.
     Recent developments in Libxc - A comprehensive library of functionals for density functional theory
     Software X, 2018 7 
     doi.org/10.1016/j.softx.2017.11.002
  4. Caldeweyher,E.; Bannwarth,C.; Grimme,S.
     Extension of the D3 dispersion coefficient model
     J. Chem. Phys., 2017 147 034112-XXXX
     doi.org/10.1063/1.4993215
  5. Caldeweyher,E.; Ehlert,S.; Hansen,A.; Neugebauer,H.; Spicher,S.; Bannwarth,C.; Grimme,S.
     A generally applicable atomic-charge dependent London dispersion correction
     J. Chem. Phys., 2019 150 154122-XXXX
     doi.org/10.1063/1.5090222
  6. Caldeweyher,E.; Mewes,J.; Ehlert,S.; Grimme,S.
     Extension and evaluation of the D4 London-dispersion model for periodic systems
     Phys. Chem. Chem. Phys., 2020 22(16)8499-8512
     doi.org/10.1039/D0CP00502A

List of suggested additional citations. These are papers that are important in the 'surrounding' of 
of this run, or papers that preceded the highly important papers. If you like your results we are grateful for a citation.

  1. Neese,F.
     The ORCA program system
     WIRES Comput. Molec. Sci., 2012 2(1)73-78
     doi.org/10.1002/wcms.81
  2. Neese,F.
     Software update: the ORCA program system, version 4.0
     WIRES Comput. Molec. Sci., 2018 8(1)1-6
     doi.org/10.1002/wcms.1327
  3. Neese,F.; Wennmohs,F.; Becker,U.; Riplinger,C.
     The ORCA quantum chemistry program package
     J. Chem. Phys., 2020 152 Art. No. L224108
     doi.org/10.1063/5.0004608

List of optional additional citations

  1. Neese,F.
     Approximate second-order SCF convergence for spin unrestricted wavefunctions
     Chem. Phys. Lett., 2000 325(1-3)93-98
     doi.org/10.1016/s0009-2614(00)00662-x

Timings for individual modules:

Sum of individual times          ...       14.545 sec (=   0.242 min)
Startup calculation              ...        0.726 sec (=   0.012 min)   5.0 %
SCF iterations                   ...       13.720 sec (=   0.229 min)  94.3 %
Property calculations            ...        0.098 sec (=   0.002 min)   0.7 %
                             ****ORCA TERMINATED NORMALLY****
TOTAL RUN TIME: 0 days 0 hours 0 minutes 15 seconds 129 msec
