
                                 *****************
                                 * O   R   C   A *
                                 *****************

                                            #,                                       
                                            ###                                      
                                            ####                                     
                                            #####                                    
                                            ######                                   
                                           ########,                                 
                                     ,,################,,,,,                         
                               ,,#################################,,                 
                          ,,##########################################,,             
                       ,#########################################, ''#####,          
                    ,#############################################,,   '####,        
                  ,##################################################,,,,####,       
                ,###########''''           ''''###############################       
              ,#####''   ,,,,##########,,,,          '''####'''          '####       
            ,##' ,,,,###########################,,,                        '##       
           ' ,,###''''                  '''############,,,                           
         ,,##''                                '''############,,,,        ,,,,,,###''
      ,#''                                            '''#######################'''  
     '                                                          ''''####''''         
             ,#######,   #######,   ,#######,      ##                                
            ,#'     '#,  ##    ##  ,#'     '#,    #''#        ,####,   ,####,        
            ##       ##  ##   ,#'  ##            #'  '#       #'       #'  '#        
            ##       ##  #######   ##           ,######,      #####,   #    #        
            '#,     ,#'  ##    ##  '#,     ,#' ,#      #,     #,   #   #,  ,#        
             '#######'   ##     ##  '#######'  #'      '#     '####' # '####'        



                #########################################################
                #                        -***-                          #
                #          Department of theory and spectroscopy        #
                #                                                       #
                #                      Frank Neese                      #
                #                                                       #
                #     Directorship, Architecture, Infrastructure        #
                #                    SHARK, DRIVERS                     #
                #        Core code/Algorithms in most modules           #
                #                                                       #
                #        Max Planck Institute fuer Kohlenforschung      #
                #                Kaiser Wilhelm Platz 1                 #
                #                 D-45470 Muelheim/Ruhr                 #
                #                      Germany                          #
                #                                                       #
                #                  All rights reserved                  #
                #                        -***-                          #
                #########################################################


                         Program Version 6.0.0  -   RELEASE  -


 With contributions from (in alphabetic order):
   Daniel Aravena         : Magnetic Suceptibility
   Michael Atanasov       : Ab Initio Ligand Field Theory (pilot matlab implementation)
   Alexander A. Auer      : GIAO ZORA, VPT2 properties, NMR spectrum
   Ute Becker             : All parallelization in ORCA, NUMFREQ, NUMCALC
   Giovanni Bistoni       : ED, misc. LED, open-shell LED, HFLD
   Martin Brehm           : Molecular dynamics
   Dmytro Bykov           : pre 5.0 version of the SCF Hessian
   Marcos Casanova-Páez   : Triplet and SCS-CIS(D). UHF-(DLPNO)-IP/EA/STEOM-CCSD. UHF-CVS-IP/STEOM-CCSD
   Vijay G. Chilkuri      : MRCI spin determinant printing, contributions to CSF-ICE
   Pauline Colinet        : FMM embedding
   Dipayan Datta          : RHF DLPNO-CCSD density
   Achintya Kumar Dutta   : EOM-CC, STEOM-CC
   Nicolas Foglia         : Exact transition moments, OPA infrastructure, MCD improvements
   Dmitry Ganyushin       : Spin-Orbit,Spin-Spin,Magnetic field MRCI
   Miquel Garcia          : C-PCM and meta-GGA Hessian, CCSD/C-PCM, Gaussian charge scheme
   Tiago L. C. Gouveia    : GS-ROHF, GS-ROCIS
   Yang Guo               : DLPNO-NEVPT2, F12-NEVPT2, CIM, IAO-localization
   Andreas Hansen         : Spin unrestricted coupled pair/coupled cluster methods
   Ingolf Harden          : AUTO-CI MPn and infrastructure 
   Benjamin Helmich-Paris : MC-RPA, TRAH-(SCF,CASSCF), AVAS, COSX integrals, SCF dyn. polar.
   Lee Huntington         : MR-EOM, pCC
   Robert Izsak           : Overlap fitted RIJCOSX, COSX-SCS-MP3, EOM
   Riya Kayal             : Wick's Theorem for AUTO-CI, AUTO-CI UHF-CCSDT
   Emily Kempfer          : AUTO-CI, RHF CISDT and CCSDT
   Christian Kollmar      : KDIIS, OOCD, Brueckner-CCSD(T), CCSD density, CASPT2, CASPT2-K, improved NEVPT2
   Axel Koslowski         : Symmetry handling
   Simone Kossmann        : Meta GGA functionals, TD-DFT gradient, OOMP2, (MP2 Hessian; deprecated post 5.0)
   Lucas Lang             : DCDCAS
   Marvin Lechner         : AUTO-CI (C++ implementation), FIC-MRCC
   Spencer Leger          : CASSCF response
   Dagmar Lenk            : GEPOL surface, SMD, ORCA-2-JSON
   Dimitrios Liakos       : Extrapolation schemes; Compound Job, initial MDCI parallelization
   Dimitrios Manganas     : Further ROCIS development; embedding schemes. LFT, Crystal Embedding
   Dimitrios Pantazis     : SARC Basis sets
   Anastasios Papadopoulos: AUTO-CI, single reference methods and gradients
   Taras Petrenko         : pre 6.0 DFT Hessian and TD-DFT gradient, (ASA, deprecated), ECA, 1-Electron XAS/XES, NRVS
   Peter Pinski           : DLPNO-MP2, DLPNO-MP2 Gradient
   Christoph Reimann      : Effective Core Potentials
   Marius Retegan         : Local ZFS, SOC
   Christoph Riplinger    : Optimizer, TS searches, QM/MM, DLPNO-CCSD(T), (RO)-DLPNO pert. Triples
   Michael Roemelt        : Original ROCIS implementation
   Masaaki Saitow         : Open-shell DLPNO-CCSD energy and density
   Barbara Sandhoefer     : DKH picture change effects
   Kantharuban Sivalingam : CASSCF convergence/infrastructure, NEVPT2 and variants, FIC-MRCI
   Bernardo de Souza      : ESD, SOC TD-DFT
   Georgi Stoychev        : AutoAux, RI-MP2 NMR, DLPNO-MP2 response, X2C
   Van Anh Tran           : RI-MP2 g-tensors
   Willem Van den Heuvel  : Paramagnetic NMR
   Zikuan Wang            : NOTCH, Electric field optimization 
   Frank Wennmohs         : Technical directorship and infrastructure
   Hang Xu                : AUTO-CI-Response properties 


 We gratefully acknowledge several colleagues who have allowed us to
 interface, adapt or use parts of their codes:
   Stefan Grimme, W. Hujo, H. Kruse, P. Pracht,  : VdW corrections, initial TS optimization,
                  C. Bannwarth, S. Ehlert,         DFT functionals, gCP, sTDA/sTD-DF
                  L. Wittmann, M. Mueller
   Ed Valeev, F. Pavosevic, A. Kumar             : LibInt (2-el integral package), F12 methods
   Garnet Chan, S. Sharma, J. Yang, R. Olivares  : DMRG
   Ulf Ekstrom                                   : XCFun DFT Library
   Mihaly Kallay                                 : mrcc  (arbitrary order and MRCC methods)
   Frank Weinhold                                : gennbo (NPA and NBO analysis)
   Simon Mueller                                 : openCOSMO-RS
   Christopher J. Cramer and Donald G. Truhlar   : smd solvation model
   Lars Goerigk                                  : TD-DFT with DH, B97 family of functionals
   V. Asgeirsson, H. Jonsson                     : NEB implementation
   FAccTs GmbH                                   : IRC, NEB, NEB-TS, DLPNO-Multilevel, CI-OPT
                                                   MM, QMMM, 2- and 3-layer-ONIOM, Crystal-QMMM,
                                                   LR-CPCM, SF, NACMEs, symmetry and pop. for TD-DFT,
                                                   nearIR, NL-DFT gradient (VV10), updates on ESD,
                                                   ML-optimized integration grids, MBIS, APM,
                                                   GOAT, DOCKER, SOLVATOR, interface openCOSMO-RS
   S Lehtola, MJT Oliveira, MAL Marques          : LibXC Library
   Liviu Ungur et al                             : ANISO software


 Your calculation uses the libint2 library for the computation of 2-el integrals
 For citations please refer to: http://libint.valeyev.net

 Your ORCA version has been built with support for libXC version: 6.2.2
 For citations please refer to: https://libxc.gitlab.io

 This ORCA versions uses:
   CBLAS   interface :  Fast vector & matrix operations
   LAPACKE interface :  Fast linear algebra routines
   SCALAPACK package :  Parallel linear algebra routines
   Shared memory     :  Shared parallel matrices
   BLAS/LAPACK       :  OpenBLAS 0.3.27  USE64BITINT DYNAMIC_ARCH NO_AFFINITY SkylakeX SINGLE_THREADED
        Core in use  :  SkylakeX
   Copyright (c) 2011-2014, The OpenBLAS Project


Your calculation utilizes the geometrical counterpoise correction gCP
Please cite in your paper:
H.Kruse, S. Grimme J.Chem.Phys., 136, (2012), 154101 
   

Your calculation utilizes the DFT-NL dispersion correction.
Cite in your paper:
Vydrov, O. A.; Van Voorhis, T. J. Chem. Phys. 2010, 133, 244103
Hujo, W.; Grimme, S. J. Chem. Theory Comput. 2011, 7, 3866 
   

Your calculation utilizes the SMD solvation module
Please cite in your paper:
A.V. Marenich, C.J. Cramer, D.G. Truhlar J. Phys. Chem. B, 113, (2009), 6378 

================================================================================

----- Orbital basis set information -----
Your calculation utilizes the basis: def2-TZVP
   F. Weigend and R. Ahlrichs, Phys. Chem. Chem. Phys. 7, 3297 (2005).

----- AuxJ basis set information -----
Your calculation utilizes the auxiliary basis: def2/J
   F. Weigend, Phys. Chem. Chem. Phys. 8, 1057 (2006).

================================================================================
                                        WARNINGS
                       Please study these warnings very carefully!
================================================================================


================================================================================
                                       INPUT FILE
================================================================================
NAME = sp_solv.inp
|  1> ! wb97x-v def2-tzvp def2/J RIJCOSX DEFGRID2 scfconv7 GCP(DFT/TZ) printgap
|  2> %output
|  3>     printlevel normal
|  4> end
|  5> %cpcm
|  6>     smd true
|  7>     smdsolvent "water"
|  8> end
|  9> * xyz 0 1
| 10> C 1.5271739143596783 1.2873929648231301 -1.451900616986924
| 11> C 2.8981570622066632 1.4258362815959704 -1.6023025319711346
| 12> C 3.7515985277045014 0.8330579781325362 -0.6819135613196652
| 13> C 3.2442596217880073 0.10830597501563591 0.4015752262224599
| 14> C 1.8571882694363433 -0.017474480775382037 0.5382098205267456
| 15> C 0.9885119887418878 0.5595944680380137 -0.39255258843281765
| 16> C -0.4832778221240349 0.43796125791811713 -0.2613204958354641
| 17> C -1.2172847973038807 1.5391355553457677 0.16618902326068757
| 18> C -2.596651808577907 1.463877148922644 0.28800929204500003
| 19> C -3.276130363138947 0.28263502228196785 -0.016986212696669594
| 20> C -2.5466277007321003 -0.8286890533317958 -0.4611401811982183
| 21> C -1.1570376221611032 -0.7431820565772939 -0.585133978196729
| 22> Cl -0.252415396489249 -2.106926059500204 -1.1706393153871693
| 23> Cl -3.370419394702784 -2.297665570783181 -0.8609746273365733
| 24> Cl -4.996656122656122 0.18989350544671196 0.14450591051703385
| 25> Cl -3.465456981188714 2.870307443509711 0.8307203112837808
| 26> Cl 1.1964220530675809 -0.880577516120034 1.8978220457548651
| 27> Cl 4.313975583076691 -0.6136274121420235 1.558095280746267
| 28> Cl 5.47241404144913 1.010860796673396 -0.8938425203935484
| 29> H 0.8579468147167134 1.7441211937572394 -2.172531507228056
| 30> H 3.3060086366349175 1.9897228981727069 -2.4327569899868347
| 31> H -0.7011280747224437 2.4594904882983966 0.41308939007299594
| 32> *
| 33> 
| 34>                          ****END OF INPUT****
================================================================================

                       ****************************
                       * Single Point Calculation *
                       ****************************

---------------------------------
CARTESIAN COORDINATES (ANGSTROEM)
---------------------------------
  C      1.527174    1.287393   -1.451901
  C      2.898157    1.425836   -1.602303
  C      3.751599    0.833058   -0.681914
  C      3.244260    0.108306    0.401575
  C      1.857188   -0.017474    0.538210
  C      0.988512    0.559594   -0.392553
  C     -0.483278    0.437961   -0.261320
  C     -1.217285    1.539136    0.166189
  C     -2.596652    1.463877    0.288009
  C     -3.276130    0.282635   -0.016986
  C     -2.546628   -0.828689   -0.461140
  C     -1.157038   -0.743182   -0.585134
  Cl    -0.252415   -2.106926   -1.170639
  Cl    -3.370419   -2.297666   -0.860975
  Cl    -4.996656    0.189894    0.144506
  Cl    -3.465457    2.870307    0.830720
  Cl     1.196422   -0.880578    1.897822
  Cl     4.313976   -0.613627    1.558095
  Cl     5.472414    1.010861   -0.893843
  H      0.857947    1.744121   -2.172532
  H      3.306009    1.989723   -2.432757
  H     -0.701128    2.459490    0.413089

----------------------------
CARTESIAN COORDINATES (A.U.)
----------------------------
  NO LB      ZA    FRAG     MASS         X           Y           Z
   0 C     6.0000    0    12.011    2.885940    2.432820   -2.743695
   1 C     6.0000    0    12.011    5.476723    2.694440   -3.027913
   2 C     6.0000    0    12.011    7.089494    1.574251   -1.288630
   3 C     6.0000    0    12.011    6.130762    0.204669    0.758867
   4 C     6.0000    0    12.011    3.509577   -0.033022    1.017069
   5 C     6.0000    0    12.011    1.868017    1.057480   -0.741817
   6 C     6.0000    0    12.011   -0.913263    0.827627   -0.493824
   7 C     6.0000    0    12.011   -2.300335    2.908545    0.314052
   8 C     6.0000    0    12.011   -4.906961    2.766327    0.544259
   9 C     6.0000    0    12.011   -6.190989    0.534103   -0.032099
  10 C     6.0000    0    12.011   -4.812429   -1.565995   -0.871429
  11 C     6.0000    0    12.011   -2.186484   -1.404411   -1.105743
  12 Cl   17.0000    0    35.453   -0.476996   -3.981513   -2.212188
  13 Cl   17.0000    0    35.453   -6.369170   -4.341959   -1.627006
  14 Cl   17.0000    0    35.453   -9.442312    0.358847    0.273077
  15 Cl   17.0000    0    35.453   -6.548765    5.424095    1.569834
  16 Cl   17.0000    0    35.453    2.260910   -1.664050    3.586364
  17 Cl   17.0000    0    35.453    8.152232   -1.159588    2.944373
  18 Cl   17.0000    0    35.453   10.341364    1.910250   -1.689118
  19 H     1.0000    0     1.008    1.621285    3.295911   -4.105490
  20 H     1.0000    0     1.008    6.247451    3.760031   -4.597244
  21 H     1.0000    0     1.008   -1.324940    4.647763    0.780626

--------------------------------
INTERNAL COORDINATES (ANGSTROEM)
--------------------------------
 C      0   0   0     0.000000000000     0.00000000     0.00000000
 C      1   0   0     1.386139271383     0.00000000     0.00000000
 C      2   1   0     1.388115380430   119.57107809     0.00000000
 C      3   2   1     1.398787397787   120.78769579   359.41809356
 C      4   3   2     1.399448702859   118.79562786     0.42176145
 C      1   2   3     1.393580126019   121.12763942   359.85407465
 C      6   1   2     1.482626637863   119.59297167   179.75531813
 C      7   6   1     1.390724797307   119.08983047   286.50909326
 C      8   7   6     1.386779491273   120.59723414   179.39677142
 C      9   8   7     1.396440591565   120.71030734   359.93743404
 C     10   9   8     1.401601970330   119.12159634   359.44537542
 C     11  10   9     1.397729049083   119.80520094     0.35212647
 Cl    12  11  10     1.738089634215   119.95519153   181.41832750
 Cl    11  10   9     1.731009054915   119.89223553   180.65387854
 Cl    10   9   8     1.730574928735   120.57751903   179.66531773
 Cl     9   8   7     1.739943634688   118.69806988   179.85946901
 Cl     5   4   3     1.740719461977   119.80567103   181.48929125
 Cl     4   3   2     1.732922009164   120.59120251   180.73618941
 Cl     3   2   1     1.742909566879   118.87097080   179.64240247
 H      1   2   3     1.084331345102   119.75234612   180.37250549
 H      2   1   3     1.083496945061   120.49403965   179.82706542
 H      8   7   6     1.083711564951   119.41300011   358.88210395

---------------------------
INTERNAL COORDINATES (A.U.)
---------------------------
 C      0   0   0     0.000000000000     0.00000000     0.00000000
 C      1   0   0     2.619423606387     0.00000000     0.00000000
 C      2   1   0     2.623157911296   119.57107809     0.00000000
 C      3   2   1     2.643325101398   120.78769579   359.41809356
 C      4   3   2     2.644574786875   118.79562786     0.42176145
 C      1   2   3     2.633484783851   121.12763942   359.85407465
 C      6   1   2     2.801758304417   119.59297167   179.75531813
 C      7   6   1     2.628088994564   119.08983047   286.50909326
 C      8   7   6     2.620633446644   120.59723414   179.39677142
 C      9   8   7     2.638890280350   120.71030734   359.93743404
 C     10   9   8     2.648643872688   119.12159634   359.44537542
 C     11  10   9     2.641325112193   119.80520094     0.35212647
 Cl    12  11  10     3.284513404874   119.95519153   181.41832750
 Cl    11  10   9     3.271133049127   119.89223553   180.65387854
 Cl    10   9   8     3.270312669540   120.57751903   179.66531773
 Cl     9   8   7     3.288016958020   118.69806988   179.85946901
 Cl     5   4   3     3.289483059123   119.80567103   181.48929125
 Cl     4   3   2     3.274748008764   120.59120251   180.73618941
 Cl     3   2   1     3.293621757593   118.87097080   179.64240247
 H      1   2   3     2.049089280670   119.75234612   180.37250549
 H      2   1   3     2.047512493105   120.49403965   179.82706542
 H      8   7   6     2.047918065920   119.41300011   358.88210395

---------------------
BASIS SET INFORMATION
---------------------
There are 3 groups of distinct atoms

 Group   1 Type C   : 11s6p2d1f contracted to 5s3p2d1f pattern {62111/411/11/1}
 Group   2 Type Cl  : 14s9p3d1f contracted to 5s5p2d1f pattern {73211/51111/21/1}
 Group   3 Type H   : 5s1p contracted to 3s1p pattern {311/1}

Atom   0C    basis set group =>   1
Atom   1C    basis set group =>   1
Atom   2C    basis set group =>   1
Atom   3C    basis set group =>   1
Atom   4C    basis set group =>   1
Atom   5C    basis set group =>   1
Atom   6C    basis set group =>   1
Atom   7C    basis set group =>   1
Atom   8C    basis set group =>   1
Atom   9C    basis set group =>   1
Atom  10C    basis set group =>   1
Atom  11C    basis set group =>   1
Atom  12Cl   basis set group =>   2
Atom  13Cl   basis set group =>   2
Atom  14Cl   basis set group =>   2
Atom  15Cl   basis set group =>   2
Atom  16Cl   basis set group =>   2
Atom  17Cl   basis set group =>   2
Atom  18Cl   basis set group =>   2
Atom  19H    basis set group =>   3
Atom  20H    basis set group =>   3
Atom  21H    basis set group =>   3
---------------------------------
AUXILIARY/J BASIS SET INFORMATION
---------------------------------
There are 3 groups of distinct atoms

 Group   1 Type C   : 12s5p4d2f1g contracted to 6s4p3d1f1g pattern {711111/2111/211/2/1}
 Group   2 Type Cl  : 14s5p5d2f1g contracted to 8s4p3d1f1g pattern {71111111/2111/311/2/1}
 Group   3 Type H   : 5s2p1d contracted to 3s1p1d pattern {311/2/1}

Atom   0C    basis set group =>   1
Atom   1C    basis set group =>   1
Atom   2C    basis set group =>   1
Atom   3C    basis set group =>   1
Atom   4C    basis set group =>   1
Atom   5C    basis set group =>   1
Atom   6C    basis set group =>   1
Atom   7C    basis set group =>   1
Atom   8C    basis set group =>   1
Atom   9C    basis set group =>   1
Atom  10C    basis set group =>   1
Atom  11C    basis set group =>   1
Atom  12Cl   basis set group =>   2
Atom  13Cl   basis set group =>   2
Atom  14Cl   basis set group =>   2
Atom  15Cl   basis set group =>   2
Atom  16Cl   basis set group =>   2
Atom  17Cl   basis set group =>   2
Atom  18Cl   basis set group =>   2
Atom  19H    basis set group =>   3
Atom  20H    basis set group =>   3
Atom  21H    basis set group =>   3

Checking for AutoStart:
The File: sp_solv.gbw exists
Trying to determine its content:
     ... Fine, the file contains calculation information
     ... Fine, the calculation information was read
     ... Fine, the file contains a basis set
     ... Fine, the basis set was read
     ... Fine, the file contains a geometry
     ... Fine, the geometry was read
     ... Fine, the file contains a set of orbitals
     ... Fine, the orbitals can be read
     => possible old guess file was deleted
     => GBW file was renamed to GES file
     => GES file is set as startup file
     => Guess is set to MORead
     ... now leaving AutoStart

------------------------------------------------------------------------------
                             ORCA STARTUP CALCULATIONS
                           -- RI-GTO INTEGRALS CHOSEN --
------------------------------------------------------------------------------
------------------------------------------------------------------------------
                   ___                                                        
                  /   \      - P O W E R E D   B Y -                         
                 /     \                                                     
                 |  |  |   _    _      __       _____    __    __             
                 |  |  |  | |  | |    /  \     |  _  \  |  |  /  |          
                  \  \/   | |  | |   /    \    | | | |  |  | /  /          
                 / \  \   | |__| |  /  /\  \   | |_| |  |  |/  /          
                |  |  |   |  __  | /  /__\  \  |    /   |      \           
                |  |  |   | |  | | |   __   |  |    \   |  |\   \          
                \     /   | |  | | |  |  |  |  | |\  \  |  | \   \       
                 \___/    |_|  |_| |__|  |__|  |_| \__\ |__|  \__/        
                                                                              
                      - O R C A' S   B I G   F R I E N D -                    
                                      &                                       
                       - I N T E G R A L  F E E D E R -                       
                                                                              
 v1 FN, 2020, v2 2021, v3 2022-2024                                           
------------------------------------------------------------------------------


----------------------
SHARK INTEGRAL PACKAGE
----------------------

Number of atoms                             ...     22
Number of basis functions                   ...    649
Number of shells                            ...    235
Maximum angular momentum                    ...      3
Integral batch strategy                     ... SHARK/LIBINT Hybrid
RI-J (if used) integral strategy            ... SPLIT-RIJ (Revised 2003 algorithm where possible)
Printlevel                                  ...      1
Contraction scheme used                     ... SEGMENTED contraction
Prescreening option                         ... SCHWARTZ
   Thresh                                   ... 3.000e-11
   Tcut                                     ... 1.000e-12
   Tpresel                                  ... 1.000e-12 
Coulomb Range Separation                    ... NOT USED
Exchange Range Separation                   ... Long Range
   Mu parameter                             ... 3.000e-01
   Scaling (regular/separated)              ... 1.670e-01 8.330e-01
Multipole approximations                    ... NOT USED
Finite Nucleus Model                        ... NOT USED
CABS basis                                  ... NOT available
Auxiliary Coulomb fitting basis             ... AVAILABLE
   # of basis functions in Aux-J            ...    978
   # of shells in Aux-J                     ...    314
   Maximum angular momentum in Aux-J        ...      4
Auxiliary J/K fitting basis                 ... NOT available
Auxiliary Correlation fitting basis         ... NOT available
Auxiliary 'external' fitting basis          ... NOT available

Checking pre-screening integrals            ... done (  0.0 sec) Dimension = 235
Check shell pair data                       ... done (  0.0 sec)
Shell pair information
Shell pair cut-off parameter TPreSel        ...   1.0e-12
Total number of shell pairs                 ...     27730
Shell pairs after pre-screening             ...     19855
Total number of primitive shell pairs       ...    100653
Primitive shell pairs kept                  ...     45636
          la=0 lb=0:   3619 shell pairs
          la=1 lb=0:   5521 shell pairs
          la=1 lb=1:   2100 shell pairs
          la=2 lb=0:   2849 shell pairs
          la=2 lb=1:   2135 shell pairs
          la=2 lb=2:    576 shell pairs
          la=3 lb=0:   1341 shell pairs
          la=3 lb=1:   1025 shell pairs
          la=3 lb=2:    550 shell pairs
          la=3 lb=3:    139 shell pairs

Calculating one electron integrals          ... done (  0.1 sec)
Calculating RI/J V-Matrix + Cholesky decomp.... done (  0.1 sec)
Calculating Nuclear repulsion               ... done (  0.0 sec) ENN=   2338.787216423606 Eh

Diagonalization of the overlap matrix:
Smallest eigenvalue                        ... 7.346e-06
Time for diagonalization                   ...    0.058 sec
Threshold for overlap eigenvalues          ... 1.000e-07
Number of eigenvalues below threshold      ... 0
Time for construction of square roots      ...    0.064 sec
Total time needed                          ...    0.133 sec

-------------------
DFT GRID GENERATION
-------------------

General Integration Accuracy     IntAcc      ... 4.388
Radial Grid Type                 RadialGrid  ... OptM3 with GC (2021)
Angular Grid (max. ang.)         AngularGrid ... 4 (Lebedev-302)
Angular grid pruning method      GridPruning ... 4 (adaptive)
Weight generation scheme         WeightScheme... mBecke (2022)
Basis function cutoff            BFCut       ... 1.0000e-11
Integration weight cutoff        WCut        ... 1.0000e-14
Partially contracted basis set               ... off
Rotationally invariant grid construction     ... off
Angular grids for H and He will be reduced by one unit

Total number of grid points                  ...   132319
Total number of batches                      ...     2080
Average number of points per batch           ...       63
Average number of grid points per atom       ...     6014

--------------------
COSX GRID GENERATION
--------------------

GRIDX 1
-------
General Integration Accuracy     IntAcc      ... 3.816
Radial Grid Type                 RadialGrid  ... OptM3 with GC (2021)
Angular Grid (max. ang.)         AngularGrid ... 1 (Lebedev-50)
Angular grid pruning method      GridPruning ... 4 (adaptive)
Weight generation scheme         WeightScheme... mBecke (2022)
Basis function cutoff            BFCut       ... 1.0000e-11
Integration weight cutoff        WCut        ... 1.0000e-14
Partially contracted basis set               ... on
Rotationally invariant grid construction     ... off
Angular grids for H and He will be reduced by one unit

Total number of grid points                  ...    23925
Total number of batches                      ...      198
Average number of points per batch           ...      120
Average number of grid points per atom       ...     1088
UseSFitting                                  ... on

GRIDX 2
-------
General Integration Accuracy     IntAcc      ... 4.020
Radial Grid Type                 RadialGrid  ... OptM3 with GC (2021)
Angular Grid (max. ang.)         AngularGrid ... 2 (Lebedev-110)
Angular grid pruning method      GridPruning ... 4 (adaptive)
Weight generation scheme         WeightScheme... mBecke (2022)
Basis function cutoff            BFCut       ... 1.0000e-11
Integration weight cutoff        WCut        ... 1.0000e-14
Partially contracted basis set               ... on
Rotationally invariant grid construction     ... off
Angular grids for H and He will be reduced by one unit

Total number of grid points                  ...    37058
Total number of batches                      ...      302
Average number of points per batch           ...      122
Average number of grid points per atom       ...     1684
UseSFitting                                  ... on

GRIDX 3
-------
General Integration Accuracy     IntAcc      ... 4.338
Radial Grid Type                 RadialGrid  ... OptM3 with GC (2021)
Angular Grid (max. ang.)         AngularGrid ... 3 (Lebedev-194)
Angular grid pruning method      GridPruning ... 4 (adaptive)
Weight generation scheme         WeightScheme... mBecke (2022)
Basis function cutoff            BFCut       ... 1.0000e-11
Integration weight cutoff        WCut        ... 1.0000e-14
Partially contracted basis set               ... on
Rotationally invariant grid construction     ... off
Angular grids for H and He will be reduced by one unit

Total number of grid points                  ...    85636
Total number of batches                      ...      677
Average number of points per batch           ...      126
Average number of grid points per atom       ...     3893
UseSFitting                                  ... on
Initializing property integral containers    ... done (  0.0 sec)

SHARK setup successfully completed in   5.6 seconds

Maximum memory used throughout the entire STARTUP-calculation: 108.5 MB
-------------------------------------------------------------------------------
                                 ORCA GUESS
                   Start orbitals & Density for SCF / CASSCF
-------------------------------------------------------------------------------

------------
SCF SETTINGS
------------
Hamiltonian:
 Density Functional     Method          .... DFT(GTOs)
 Exchange Functional    Exchange        .... WB97X-V
 Correlation Functional Correlation     .... WB97X-V
 Gradients option       PostSCFGGA      .... off
 Hybrid DFT is turned on
   Fraction HF Exchange ScalHFX         ....  0.167000
   Scaling of DF-GGA-X  ScalDFX         ....  0.000000
   Scaling of DF-GGA-C  ScalDFC         ....  1.000000
   Scaling of DF-LDA-C  ScalLDAC        ....  1.000000
   Perturbative correction              ....  0.000000
 Long-range corrected/Screened/Range-Separated Hybrid DFT is turned on
   Amount of maximum screened exact exchange              ....  0.833000
   Range separation parameter mu (erf(mu*r12)/r12)        ....  0.300000
   NL short-range parameter             ....  6.000000
   NL long-range parameter              ....  0.010000
 RI-approximation to the Coulomb term is turned on
   Number of AuxJ basis functions       .... 978
   RIJ-COSX (HFX calculated with COS-X)).... on


General Settings:
 Integral files         IntName         .... sp_solv
 Hartree-Fock type      HFTyp           .... RHF
 Total Charge           Charge          ....    0
 Multiplicity           Mult            ....    1
 Number of Electrons    NEL             ....  194
 Basis Dimension        Dim             ....  649
 Nuclear Repulsion      ENuc            ....   2338.7872164236 Eh

Convergence Acceleration:
 AO-DIIS                CNVDIIS         .... on
   Start iteration      DIISMaxIt       ....    12
   Startup error        DIISStart       ....  0.200000
   # of expansion vecs  DIISMaxEq       ....     5
   Bias factor          DIISBfac        ....   1.050
   Max. coefficient     DIISMaxC        ....  10.000
 MO-DIIS                CNVKDIIS        .... off
 Trust-Rad. Augm. Hess. CNVTRAH         .... auto
   Auto Start mean grad. ratio tolernc. ....  1.125000
   Auto Start start iteration           ....     1
   Auto Start num. interpolation iter.  ....    10
   Max. Number of Micro iterations      ....    24
   Max. Number of Macro iterations      .... Maxiter - #DIIS iter
   Number of Davidson start vectors     ....     2
   Converg. threshold    (grad. norm)   ....   1.000e-04
   Grad. Scal. Fac. for Micro threshold ....   0.100
   Minimum threshold for Micro iter.    ....   1.000e-02
   NR start threshold (gradient norm)   ....   1.000e-04
   Initial trust radius                 ....   0.400
   Minimum AH scaling param. (alpha)    ....   1.000
   Maximum AH scaling param. (alpha)    .... 1000.000
   Quad. conv. algorithm                .... NR
   White noise on init. David. guess    .... on
   Maximum white noise                  ....   0.010
   Pseudo random numbers                .... off
   Inactive MOs                         .... canonical
   Orbital update algorithm             .... Taylor
   Preconditioner                       .... Diag
   Full preconditioner red. dimension   ....   250
 SOSCF                  CNVSOSCF        .... on
   Start iteration      SOSCFMaxIt      ....   150
   Startup grad/error   SOSCFStart      ....  0.003300
   Hessian update       SOSCFHessUp     .... L-BFGS
 Level Shifting         CNVShift        .... on
   Level shift para.    LevelShift      ....    0.2500
   Turn off err/grad.   ShiftErr        ....    0.0010
 Zerner damping         CNVZerner       .... off
 Static damping         CNVDamp         .... on
   Fraction old density DampFac         ....    0.7000
   Max. Damping (<1)    DampMax         ....    0.9800
   Min. Damping (>=0)   DampMin         ....    0.0000
   Turn off err/grad.   DampErr         ....    0.1000

SCF Procedure:
 Maximum # iterations   MaxIter         ....   125
 SCF integral mode      SCFMode         .... Direct
   Integral package                     .... SHARK and LIBINT hybrid scheme
 Reset frequency        DirectResetFreq ....    20
 Integral Threshold     Thresh          ....  3.000e-11 Eh
 Primitive CutOff       TCut            ....  1.000e-12 Eh

Convergence Tolerance:
 Convergence Check Mode ConvCheckMode   .... Total+1el-Energy
 Convergence forced     ConvForced      .... 0
 Energy Change          TolE            ....  1.000e-07 Eh
 1-El. energy change                    ....  1.000e-04 Eh
 Orbital Gradient       TolG            ....  1.000e-04
 Orbital Rotation angle TolX            ....  1.000e-04
 DIIS Error             TolErr          ....  1.000e-07

---------------------
INITIAL GUESS: MOREAD
---------------------
Guess MOs are being read from file: sp_solv.ges
Input Geometry matches current geometry (good)
Atom 0: N(Shells)= 11 and 9 - projection required
Input basis set needs projection
NBasis(read)= 432
NBasis(calc)= 649
Basis set overlap was calculated
Using GuessMode=FMatrix for the initial guess
C*T matrix was formed
Effective Fockian was calculated
Effective Fockian was diagonalized
Initial density was built
                      ------------------
                      INITIAL GUESS DONE (   0.2 sec)
                      ------------------
             **** ENERGY FILE WAS UPDATED (sp_solv.en.tmp) ****
Finished Guess after   0.7 sec
Maximum memory used throughout the entire GUESS-calculation: 93.2 MB

-------------------------------------------------------------------------------------------
                                      ORCA LEAN-SCF
                              memory conserving SCF solver
-------------------------------------------------------------------------------------------

--------------------
CPCM SOLVATION MODEL
--------------------
CPCM parameters:
  Epsilon                                         ...      78.3550
  Refrac                                          ...       1.3328
  Rsolv                                           ...       1.3000
  Surface type                                    ... GAUSSIAN VDW
  Discretization scheme                           ... Constant charge density
    Threshold for H atoms                         ...       5.0000 (charges/Ang^2)
    Threshold for non-H atoms                     ...       5.0000 (charges/Ang^2)
  Epsilon function type                           ...         CPCM
Solvent:                                          ... WATER
SMD-CDS solvent descriptors:
  Soln                                            ...       1.3328
  Soln25                                          ...       1.3323
  Sola                                            ...       0.0000
  Solb                                            ...       0.0000
  Solg                                            ...       0.0000
  Solc                                            ...       0.0000
  Solh                                            ...       0.0000
Radii:
  Scheme                                          ... Element-dependent radii
  Radius for C  used is    3.4960 Bohr (=   1.8500 Ang.)
  Radius for Cl used is    4.4975 Bohr (=   2.3800 Ang.)
  Radius for H  used is    2.2677 Bohr (=   1.2000 Ang.)
Calculating surface                               ...        done! (  0.0s)
Cavity surface points                             ...         2296
Cavity Volume                                     ...    2806.2017
Cavity Surface-area                               ...    1340.1820
Calculating surface distance matrix               ...        done! (  0.0s)
Performing Cholesky decomposition & store         ...        done! (  0.2s)
Overall time for CPCM initialization              ...                 0.2s

----------------------------------------D-I-I-S--------------------------------------------
Iteration    Energy (Eh)           Delta-E    RMSDP     MaxDP     DIISErr   Damp  Time(sec)
-------------------------------------------------------------------------------------------
               ***  Starting incremental Fock matrix formation  ***
    1    -3680.8366683567660402     0.00e+00  1.59e-03  8.68e-02  4.66e-02  0.700  81.8
    2    -3680.8545224703389067    -1.79e-02  1.32e-03  5.42e-02  3.44e-02  0.700  47.4
                               ***Turning on AO-DIIS***
    3    -3680.8678706394352957    -1.33e-02  1.05e-03  4.46e-02  2.48e-02  0.700  46.6
    4    -3680.8776519840916990    -9.78e-03  2.59e-03  1.10e-01  1.75e-02  0.000  46.2
                              *** Initializing SOSCF ***
---------------------------------------S-O-S-C-F--------------------------------------
Iteration    Energy (Eh)           Delta-E    RMSDP     MaxDP     MaxGrad    Time(sec)
--------------------------------------------------------------------------------------
    5    -3680.9024385434981923    -2.48e-02  1.44e-04  7.16e-03  1.42e-03    49.1
               *** Restarting incremental Fock matrix formation ***
    6    -3680.9025547378519150    -1.16e-04  7.59e-05  3.91e-03  5.34e-04    81.7
    7    -3680.9025908670969329    -3.61e-05  4.44e-05  2.10e-03  2.02e-04    59.8
    8    -3680.9025966411304580    -5.77e-06  4.58e-06  1.47e-04  5.79e-05    56.5
    9    -3680.9025969615636313    -3.20e-07  3.16e-06  1.52e-04  5.26e-05    48.7
   10    -3680.9025971920323173    -2.30e-07  3.34e-06  2.43e-04  6.19e-06    45.3
                  *** Gradient check signals convergence ***

               *****************************************************
               *                     SUCCESS                       *
               *           SCF CONVERGED AFTER  10 CYCLES          *
               *****************************************************


------------------
NL GRID GENERATION
------------------

General Integration Accuracy     IntAcc      ... 4.004
Radial Grid Type                 RadialGrid  ... OptM3 with GC (2021)
Angular Grid (max. ang.)         AngularGrid ... 2 (Lebedev-110)
Angular grid pruning method      GridPruning ... 4 (adaptive)
Weight generation scheme         WeightScheme... mBecke (2022)
Basis function cutoff            BFCut       ... 1.0000e-10
Integration weight cutoff        WCut        ... 1.0000e-14
Partially contracted basis set               ... off
Rotationally invariant grid construction     ... off
Angular grids for H and He will be reduced by one unit

Total number of grid points                  ...    43614
Total number of batches                      ...      692
Average number of points per batch           ...       63
Average number of grid points per atom       ...     1982
Final grid set up in    0.4 sec

-------------------------------------------------------------------------------
                    post-SCF DFT-NL dispersion correction                      
-------------------------------------------------------------------------------

SCF Energy:    -3680.902597192 
NL    Energy:      0.752318071 
SC+NL Energy:  -3680.150279121 
NL done in  :              8.1 sec
-------------------------------------------------------------------------------
Recomputing exchange energy using gridx3       ... done (  153.715 sec)
Old exchange energy                            :    -68.493118101 Eh
New exchange energy                            :    -68.493092590 Eh
Exchange energy change after final integration :      0.000025511 Eh
Total energy after final integration           :  -3680.150253610 Eh

SMD CDS free energy correction energy :                 4.77501     Kcal/mol
Total Energy after SMD CDS correction =             -3680.142644150 Eh
             **** ENERGY FILE WAS UPDATED (sp_solv.en.tmp) ****

----------------
TOTAL SCF ENERGY
----------------

Total Energy       :      -3680.14264414978015 Eh         -100141.77246 eV

Components:
Nuclear Repulsion  :       2338.78721642360551 Eh           63641.63564 eV
Electronic Energy  :      -6019.67806379046579 Eh         -163803.76774 eV
One Electron Energy:      -9728.19730307087957 Eh         -264717.70660 eV
Two Electron Energy:       3708.51923928041379 Eh          100913.93887 eV
CPCM Dielectric    :         -0.01174982517192 Eh              -0.31973 eV
SMD CDS (Gcds)     :          0.00760946068550 Eh               0.20706 eV

Virial components:
Potential Energy   :      -7353.69893731747925 Eh         -200104.32119 eV
Kinetic Energy     :       3673.55629316769910 Eh           99962.54873 eV
Virial Ratio       :          2.00179290868479

DFT components:
N(Alpha)           :       97.000050213101 electrons
N(Beta)            :       97.000050213101 electrons
N(Total)           :      194.000100426202 electrons
E(X)               :     -186.356136598888 Eh       
E(C)               :       -9.483734836769 Eh       
NL Energy, E(C,NL) :        0.752318070779 Eh       
E(XC)              :     -195.087553364877 Eh       

CPCM Solvation Model Properties:
Surface-charge          :         -0.01406159394373
Corrected charge        :          0.00000000000000
Outlying charge corr.   :          0.00000994363290 Eh               0.00027 eV
Free-energy (cav+disp)  :          0.00760946068550 Eh               0.20706 eV

---------------
SCF CONVERGENCE
---------------

  Last Energy change         ...    2.3047e-07  Tolerance :   1.0000e-07
  Last MAX-Density change    ...    2.4257e-04  Tolerance :   1.0000e-05
  Last RMS-Density change    ...    3.3402e-06  Tolerance :   1.0000e-06
  Last DIIS Error            ...    1.4152e-03  Tolerance :   1.0000e-07
  Last Orbital Gradient      ...    6.1890e-06  Tolerance :   1.0000e-04
  Last Orbital Rotation      ...    1.2127e-05  Tolerance :   1.0000e-04


----------------
ORBITAL ENERGIES
----------------

  NO   OCC          E(Eh)            E(eV) 
   0   2.0000    -107.167200     -2916.1678 
   1   2.0000    -107.167067     -2916.1642 
   2   2.0000    -107.164040     -2916.0818 
   3   2.0000    -107.163988     -2916.0804 
   4   2.0000    -107.162966     -2916.0526 
   5   2.0000    -107.162171     -2916.0309 
   6   2.0000    -107.160075     -2915.9739 
   7   2.0000     -12.151804      -330.6674 
   8   2.0000     -12.149732      -330.6110 
   9   2.0000     -12.145387      -330.4928 
  10   2.0000     -12.144815      -330.4772 
  11   2.0000     -12.143090      -330.4303 
  12   2.0000     -12.142410      -330.4118 
  13   2.0000     -12.139059      -330.3206 
  14   2.0000     -12.101916      -329.3099 
  15   2.0000     -12.095864      -329.1452 
  16   2.0000     -12.085207      -328.8552 
  17   2.0000     -12.077536      -328.6465 
  18   2.0000     -12.075390      -328.5881 
  19   2.0000     -11.320257      -308.0399 
  20   2.0000     -11.320135      -308.0365 
  21   2.0000     -11.317147      -307.9552 
  22   2.0000     -11.317049      -307.9525 
  23   2.0000     -11.316049      -307.9254 
  24   2.0000     -11.315303      -307.9051 
  25   2.0000     -11.313197      -307.8477 
  26   2.0000      -9.112226      -247.9563 
  27   2.0000      -9.111620      -247.9398 
  28   2.0000      -9.109526      -247.8828 
  29   2.0000      -9.109093      -247.8710 
  30   2.0000      -9.108951      -247.8672 
  31   2.0000      -9.108823      -247.8637 
  32   2.0000      -9.108777      -247.8624 
  33   2.0000      -9.108504      -247.8550 
  34   2.0000      -9.107613      -247.8307 
  35   2.0000      -9.106945      -247.8126 
  36   2.0000      -9.106094      -247.7894 
  37   2.0000      -9.105995      -247.7867 
  38   2.0000      -9.105894      -247.7840 
  39   2.0000      -9.105843      -247.7826 
  40   2.0000      -9.104875      -247.7562 
  41   2.0000      -9.104822      -247.7548 
  42   2.0000      -9.104740      -247.7526 
  43   2.0000      -9.104141      -247.7363 
  44   2.0000      -9.103978      -247.7318 
  45   2.0000      -9.102060      -247.6797 
  46   2.0000      -9.101968      -247.6771 
  47   2.0000      -1.491767       -40.5930 
  48   2.0000      -1.480159       -40.2772 
  49   2.0000      -1.456659       -39.6377 
  50   2.0000      -1.444778       -39.3144 
  51   2.0000      -1.439749       -39.1776 
  52   2.0000      -1.426719       -38.8230 
  53   2.0000      -1.425165       -38.7807 
  54   2.0000      -1.397260       -38.0214 
  55   2.0000      -1.378581       -37.5131 
  56   2.0000      -1.322962       -35.9996 
  57   2.0000      -1.291188       -35.1350 
  58   2.0000      -1.290076       -35.1047 
  59   2.0000      -1.275314       -34.7031 
  60   2.0000      -1.172144       -31.8957 
  61   2.0000      -1.146596       -31.2005 
  62   2.0000      -1.139611       -31.0104 
  63   2.0000      -1.120444       -30.4888 
  64   2.0000      -1.035267       -28.1710 
  65   2.0000      -1.022761       -27.8307 
  66   2.0000      -1.013406       -27.5762 
  67   2.0000      -0.997103       -27.1325 
  68   2.0000      -0.982527       -26.7359 
  69   2.0000      -0.965378       -26.2693 
  70   2.0000      -0.951752       -25.8985 
  71   2.0000      -0.947343       -25.7785 
  72   2.0000      -0.934066       -25.4172 
  73   2.0000      -0.919821       -25.0296 
  74   2.0000      -0.890857       -24.2415 
  75   2.0000      -0.883175       -24.0324 
  76   2.0000      -0.881719       -23.9928 
  77   2.0000      -0.870567       -23.6893 
  78   2.0000      -0.865614       -23.5546 
  79   2.0000      -0.843831       -22.9618 
  80   2.0000      -0.832600       -22.6562 
  81   2.0000      -0.829777       -22.5794 
  82   2.0000      -0.822928       -22.3930 
  83   2.0000      -0.821258       -22.3476 
  84   2.0000      -0.820591       -22.3294 
  85   2.0000      -0.818801       -22.2807 
  86   2.0000      -0.817283       -22.2394 
  87   2.0000      -0.811280       -22.0760 
  88   2.0000      -0.810077       -22.0433 
  89   2.0000      -0.805062       -21.9068 
  90   2.0000      -0.803030       -21.8516 
  91   2.0000      -0.779793       -21.2192 
  92   2.0000      -0.774554       -21.0767 
  93   2.0000      -0.690716       -18.7953 
  94   2.0000      -0.680585       -18.5197 
  95   2.0000      -0.673525       -18.3275 
  96   2.0000      -0.672516       -18.3001 
  97   0.0000      -0.339693        -9.2435 
  98   0.0000      -0.324857        -8.8398 
  99   0.0000      -0.313780        -8.5384 
 100   0.0000      -0.301607        -8.2072 
 101   0.0000      -0.293185        -7.9780 
 102   0.0000      -0.286949        -7.8083 
 103   0.0000      -0.280227        -7.6254 
 104   0.0000      -0.255838        -6.9617 
 105   0.0000      -0.252251        -6.8641 
 106   0.0000      -0.248385        -6.7589 
 107   0.0000      -0.238605        -6.4928 
*Only the first 10 virtual orbitals were printed.

                    ********************************
                    * MULLIKEN POPULATION ANALYSIS *
                    ********************************

-----------------------
MULLIKEN ATOMIC CHARGES
-----------------------
   0 C :   -0.198159
   1 C :   -0.227744
   2 C :    0.109215
   3 C :   -0.001501
   4 C :    0.040250
   5 C :    0.100931
   6 C :    0.095199
   7 C :   -0.266850
   8 C :    0.101016
   9 C :    0.023715
  10 C :    0.015641
  11 C :    0.020939
  12 Cl:   -0.046657
  13 Cl:   -0.039355
  14 Cl:   -0.040632
  15 Cl:   -0.062825
  16 Cl:   -0.054450
  17 Cl:   -0.047210
  18 Cl:   -0.072445
  19 H :    0.183368
  20 H :    0.180385
  21 H :    0.187168
Sum of atomic charges:   -0.0000000

--------------------------------
MULLIKEN REDUCED ORBITAL CHARGES
--------------------------------
  0 C s       :     3.231155  s :     3.231155
      pz      :     0.957251  p :     2.867636
      px      :     0.963520
      py      :     0.946865
      dz2     :     0.015510  d :     0.091721
      dxz     :     0.029702
      dyz     :     0.009369
      dx2y2   :     0.014324
      dxy     :     0.022816
      f0      :     0.001251  f :     0.007647
      f+1     :     0.000702
      f-1     :     0.000835
      f+2     :     0.001843
      f-2     :     0.000828
      f+3     :     0.000688
      f-3     :     0.001501

  1 C s       :     3.249401  s :     3.249401
      pz      :     0.957437  p :     2.878171
      px      :     0.966391
      py      :     0.954343
      dz2     :     0.014240  d :     0.092476
      dxz     :     0.030198
      dyz     :     0.009417
      dx2y2   :     0.014271
      dxy     :     0.024350
      f0      :     0.000895  f :     0.007696
      f+1     :     0.000987
      f-1     :     0.000881
      f+2     :     0.001779
      f-2     :     0.000830
      f+3     :     0.000916
      f-3     :     0.001406

  2 C s       :     3.101255  s :     3.101255
      pz      :     0.881822  p :     2.603448
      px      :     0.779790
      py      :     0.941835
      dz2     :     0.038870  d :     0.175021
      dxz     :     0.044147
      dyz     :     0.020983
      dx2y2   :     0.035393
      dxy     :     0.035627
      f0      :     0.001693  f :     0.011062
      f+1     :     0.001522
      f-1     :     0.001246
      f+2     :     0.002529
      f-2     :     0.001107
      f+3     :     0.001483
      f-3     :     0.001483

  3 C s       :     3.157703  s :     3.157703
      pz      :     0.868881  p :     2.649368
      px      :     0.823808
      py      :     0.956679
      dz2     :     0.039989  d :     0.183248
      dxz     :     0.049227
      dyz     :     0.022638
      dx2y2   :     0.033881
      dxy     :     0.037513
      f0      :     0.001797  f :     0.011182
      f+1     :     0.001329
      f-1     :     0.001199
      f+2     :     0.002571
      f-2     :     0.001440
      f+3     :     0.000991
      f-3     :     0.001856

  4 C s       :     3.167967  s :     3.167967
      pz      :     0.822910  p :     2.598029
      px      :     0.841927
      py      :     0.933192
      dz2     :     0.041461  d :     0.182678
      dxz     :     0.047571
      dyz     :     0.023261
      dx2y2   :     0.033668
      dxy     :     0.036717
      f0      :     0.001647  f :     0.011077
      f+1     :     0.001394
      f-1     :     0.001407
      f+2     :     0.002548
      f-2     :     0.001151
      f+3     :     0.001136
      f-3     :     0.001792

  5 C s       :     3.259130  s :     3.259130
      pz      :     0.880987  p :     2.483434
      px      :     0.635794
      py      :     0.966653
      dz2     :     0.030859  d :     0.146131
      dxz     :     0.041226
      dyz     :     0.018563
      dx2y2   :     0.024760
      dxy     :     0.030723
      f0      :     0.001629  f :     0.010374
      f+1     :     0.001385
      f-1     :     0.001194
      f+2     :     0.002402
      f-2     :     0.001130
      f+3     :     0.001227
      f-3     :     0.001406

  6 C s       :     3.258826  s :     3.258826
      pz      :     0.925216  p :     2.489520
      px      :     0.646026
      py      :     0.918279
      dz2     :     0.012228  d :     0.145988
      dxz     :     0.026648
      dyz     :     0.023214
      dx2y2   :     0.041284
      dxy     :     0.042614
      f0      :     0.001249  f :     0.010467
      f+1     :     0.001012
      f-1     :     0.001483
      f+2     :     0.001197
      f-2     :     0.001165
      f+3     :     0.001471
      f-3     :     0.002890

  7 C s       :     3.277350  s :     3.277350
      pz      :     0.947004  p :     2.886792
      px      :     0.954928
      py      :     0.984860
      dz2     :     0.008901  d :     0.094847
      dxz     :     0.020821
      dyz     :     0.009137
      dx2y2   :     0.027804
      dxy     :     0.028184
      f0      :     0.001237  f :     0.007861
      f+1     :     0.000790
      f-1     :     0.001079
      f+2     :     0.001130
      f-2     :     0.000593
      f+3     :     0.001134
      f-3     :     0.001898

  8 C s       :     3.095477  s :     3.095477
      pz      :     0.970580  p :     2.616842
      px      :     0.857687
      py      :     0.788575
      dz2     :     0.014294  d :     0.175523
      dxz     :     0.029938
      dyz     :     0.026714
      dx2y2   :     0.047590
      dxy     :     0.056987
      f0      :     0.001646  f :     0.011142
      f+1     :     0.000872
      f-1     :     0.001467
      f+2     :     0.001386
      f-2     :     0.001223
      f+3     :     0.001356
      f-3     :     0.003192

  9 C s       :     3.156945  s :     3.156945
      pz      :     0.990587  p :     2.624003
      px      :     0.757754
      py      :     0.875663
      dz2     :     0.014753  d :     0.184107
      dxz     :     0.033633
      dyz     :     0.025303
      dx2y2   :     0.054262
      dxy     :     0.056156
      f0      :     0.001474  f :     0.011230
      f+1     :     0.001244
      f-1     :     0.001489
      f+2     :     0.001370
      f-2     :     0.001136
      f+3     :     0.001523
      f-3     :     0.002993

 10 C s       :     3.157275  s :     3.157275
      pz      :     0.982940  p :     2.629995
      px      :     0.840141
      py      :     0.806915
      dz2     :     0.015616  d :     0.185772
      dxz     :     0.031191
      dyz     :     0.028168
      dx2y2   :     0.055528
      dxy     :     0.055269
      f0      :     0.001575  f :     0.011317
      f+1     :     0.000988
      f-1     :     0.001611
      f+2     :     0.001487
      f-2     :     0.001152
      f+3     :     0.001504
      f-3     :     0.002999

 11 C s       :     3.170292  s :     3.170292
      pz      :     0.971328  p :     2.615005
      px      :     0.842372
      py      :     0.801305
      dz2     :     0.015473  d :     0.182686
      dxz     :     0.031381
      dyz     :     0.026004
      dx2y2   :     0.056547
      dxy     :     0.053280
      f0      :     0.001573  f :     0.011079
      f+1     :     0.000948
      f-1     :     0.001435
      f+2     :     0.001444
      f-2     :     0.001204
      f+3     :     0.001397
      f-3     :     0.003078

 12 Cls       :     5.869952  s :     5.869952
      pz      :     3.841118  p :    11.108464
      px      :     3.753099
      py      :     3.514247
      dz2     :     0.009198  d :     0.062402
      dxz     :     0.007394
      dyz     :     0.014116
      dx2y2   :     0.011143
      dxy     :     0.020551
      f0      :     0.000618  f :     0.005839
      f+1     :     0.000359
      f-1     :     0.000771
      f+2     :     0.000455
      f-2     :     0.001217
      f+3     :     0.001515
      f-3     :     0.000905

 13 Cls       :     5.870459  s :     5.870459
      pz      :     3.883766  p :    11.098446
      px      :     3.790248
      py      :     3.424432
      dz2     :     0.008794  d :     0.064403
      dxz     :     0.005906
      dyz     :     0.014183
      dx2y2   :     0.014766
      dxy     :     0.020755
      f0      :     0.000607  f :     0.006047
      f+1     :     0.000298
      f-1     :     0.000871
      f+2     :     0.000435
      f-2     :     0.000943
      f+3     :     0.001833
      f-3     :     0.001060

 14 Cls       :     5.871505  s :     5.871505
      pz      :     3.916012  p :    11.098755
      px      :     3.232422
      py      :     3.950321
      dz2     :     0.008621  d :     0.064332
      dxz     :     0.017123
      dyz     :     0.001048
      dx2y2   :     0.026745
      dxy     :     0.010794
      f0      :     0.000575  f :     0.006040
      f+1     :     0.001152
      f-1     :     0.000084
      f+2     :     0.000969
      f-2     :     0.000078
      f+3     :     0.002005
      f-3     :     0.001176

 15 Cls       :     5.865494  s :     5.865494
      pz      :     3.858863  p :    11.130549
      px      :     3.792007
      py      :     3.479679
      dz2     :     0.008664  d :     0.061037
      dxz     :     0.006691
      dyz     :     0.014187
      dx2y2   :     0.011780
      dxy     :     0.019716
      f0      :     0.000602  f :     0.005745
      f+1     :     0.000314
      f-1     :     0.000786
      f+2     :     0.000473
      f-2     :     0.001094
      f+3     :     0.001585
      f-3     :     0.000890

 16 Cls       :     5.870413  s :     5.870413
      pz      :     3.509671  p :    11.116261
      px      :     3.847636
      py      :     3.758953
      dz2     :     0.016428  d :     0.061993
      dxz     :     0.013674
      dyz     :     0.018317
      dx2y2   :     0.006529
      dxy     :     0.007045
      f0      :     0.000850  f :     0.005783
      f+1     :     0.001038
      f-1     :     0.001362
      f+2     :     0.000818
      f-2     :     0.001252
      f+3     :     0.000273
      f-3     :     0.000191

 17 Cls       :     5.868444  s :     5.868444
      pz      :     3.623349  p :    11.108831
      px      :     3.679040
      py      :     3.806442
      dz2     :     0.011524  d :     0.063950
      dxz     :     0.020749
      dyz     :     0.011720
      dx2y2   :     0.007505
      dxy     :     0.012451
      f0      :     0.000658  f :     0.005985
      f+1     :     0.001267
      f-1     :     0.000579
      f+2     :     0.000958
      f-2     :     0.001577
      f+3     :     0.000430
      f-3     :     0.000516

 18 Cls       :     5.866144  s :     5.866144
      pz      :     3.943365  p :    11.140062
      px      :     3.265339
      py      :     3.931357
      dz2     :     0.008489  d :     0.060559
      dxz     :     0.012720
      dyz     :     0.001153
      dx2y2   :     0.023046
      dxy     :     0.015151
      f0      :     0.000491  f :     0.005680
      f+1     :     0.001088
      f-1     :     0.000113
      f+2     :     0.000869
      f-2     :     0.000107
      f+3     :     0.001724
      f-3     :     0.001288

 19 H s       :     0.794421  s :     0.794421
      pz      :     0.008645  p :     0.022212
      px      :     0.007652
      py      :     0.005914

 20 H s       :     0.797289  s :     0.797289
      pz      :     0.010384  p :     0.022327
      px      :     0.004884
      py      :     0.007058

 21 H s       :     0.790361  s :     0.790361
      pz      :     0.004659  p :     0.022471
      px      :     0.005972
      py      :     0.011840


------------------------
MULLIKEN OVERLAP CHARGES
------------------------
B(  0-C ,  1-C ) :   0.6739 B(  0-C ,  2-C ) :   0.2413 B(  0-C ,  3-C ) :  -0.3215 
B(  0-C ,  4-C ) :   0.1739 B(  0-C ,  5-C ) :   0.6530 B(  0-C ,  6-C ) :  -0.2955 
B(  0-C , 19-H ) :   0.9106 B(  0-C , 20-H ) :  -0.0976 B(  1-C ,  2-C ) :   0.5103 
B(  1-C ,  3-C ) :   0.2628 B(  1-C ,  4-C ) :  -0.3219 B(  1-C ,  5-C ) :   0.2111 
B(  1-C , 18-Cl) :  -0.0541 B(  1-C , 19-H ) :  -0.1171 B(  1-C , 20-H ) :   0.9028 
B(  2-C ,  3-C ) :   0.4763 B(  2-C ,  4-C ) :   0.2582 B(  2-C ,  5-C ) :  -0.3556 
B(  2-C , 17-Cl) :  -0.1181 B(  2-C , 18-Cl) :   0.6481 B(  2-C , 20-H ) :  -0.1463 
B(  3-C ,  4-C ) :   0.3666 B(  3-C ,  5-C ) :   0.2029 B(  3-C , 16-Cl) :  -0.1171 
B(  3-C , 17-Cl) :   0.7772 B(  3-C , 18-Cl) :  -0.1266 B(  4-C ,  5-C ) :   0.4688 
B(  4-C ,  6-C ) :  -0.2902 B(  4-C , 11-C ) :   0.0595 B(  4-C , 16-Cl) :   0.7902 
B(  4-C , 17-Cl) :  -0.1258 B(  5-C ,  6-C ) :   0.0762 B(  5-C ,  7-C ) :  -0.2926 
B(  5-C , 11-C ) :  -0.2949 B(  5-C , 16-Cl) :  -0.2272 B(  5-C , 19-H ) :  -0.1234 
B(  6-C ,  7-C ) :   0.5830 B(  6-C ,  8-C ) :   0.3288 B(  6-C ,  9-C ) :  -0.3999 
B(  6-C , 10-C ) :   0.2501 B(  6-C , 11-C ) :   0.3326 B(  6-C , 12-Cl) :  -0.2227 
B(  6-C , 21-H ) :  -0.1052 B(  7-C ,  8-C ) :   0.3704 B(  7-C ,  9-C ) :   0.2955 
B(  7-C , 10-C ) :  -0.3842 B(  7-C , 11-C ) :   0.2480 B(  7-C , 15-Cl) :  -0.0559 
B(  7-C , 21-H ) :   0.9123 B(  8-C ,  9-C ) :   0.5032 B(  8-C , 10-C ) :   0.2783 
B(  8-C , 11-C ) :  -0.3736 B(  8-C , 14-Cl) :  -0.1189 B(  8-C , 15-Cl) :   0.6584 
B(  8-C , 21-H ) :  -0.1724 B(  9-C , 10-C ) :   0.4210 B(  9-C , 11-C ) :   0.2841 
B(  9-C , 13-Cl) :  -0.1062 B(  9-C , 14-Cl) :   0.7737 B(  9-C , 15-Cl) :  -0.1286 
B( 10-C , 11-C ) :   0.4064 B( 10-C , 12-Cl) :  -0.1310 B( 10-C , 13-Cl) :   0.7787 
B( 10-C , 14-Cl) :  -0.1197 B( 11-C , 12-Cl) :   0.8101 B( 11-C , 13-Cl) :  -0.1285 



                     *******************************
                     * LOEWDIN POPULATION ANALYSIS *
                     *******************************

----------------------
LOEWDIN ATOMIC CHARGES
----------------------
   0 C :   -0.068086
   1 C :   -0.120531
   2 C :   -0.423313
   3 C :   -0.441336
   4 C :   -0.389979
   5 C :   -0.118939
   6 C :   -0.113678
   7 C :   -0.073951
   8 C :   -0.422884
   9 C :   -0.439085
  10 C :   -0.436505
  11 C :   -0.391697
  12 Cl:    0.433910
  13 Cl:    0.425519
  14 Cl:    0.424989
  15 Cl:    0.407049
  16 Cl:    0.426845
  17 Cl:    0.415213
  18 Cl:    0.396972
  19 H :    0.170708
  20 H :    0.164865
  21 H :    0.173915

-------------------------------
LOEWDIN REDUCED ORBITAL CHARGES
-------------------------------
  0 C s       :     2.753011  s :     2.753011
      pz      :     0.957260  p :     2.889746
      px      :     1.030084
      py      :     0.902402
      dz2     :     0.062486  d :     0.382015
      dxz     :     0.125403
      dyz     :     0.040856
      dx2y2   :     0.066266
      dxy     :     0.087004
      f0      :     0.007606  f :     0.043314
      f+1     :     0.005140
      f-1     :     0.004939
      f+2     :     0.008132
      f-2     :     0.004661
      f+3     :     0.004922
      f-3     :     0.007914

  1 C s       :     2.763438  s :     2.763438
      pz      :     0.960447  p :     2.933100
      px      :     1.061732
      py      :     0.910921
      dz2     :     0.059603  d :     0.380314
      dxz     :     0.116508
      dyz     :     0.040421
      dx2y2   :     0.074012
      dxy     :     0.089770
      f0      :     0.005735  f :     0.043679
      f+1     :     0.007147
      f-1     :     0.003985
      f+2     :     0.007867
      f-2     :     0.005439
      f+3     :     0.006449
      f-3     :     0.007057

  2 C s       :     2.779481  s :     2.779481
      pz      :     1.040796  p :     2.970717
      px      :     0.958240
      py      :     0.971680
      dz2     :     0.132465  d :     0.609881
      dxz     :     0.148618
      dyz     :     0.072615
      dx2y2   :     0.140102
      dxy     :     0.116082
      f0      :     0.009100  f :     0.063234
      f+1     :     0.010216
      f-1     :     0.007024
      f+2     :     0.011782
      f-2     :     0.007478
      f+3     :     0.008356
      f-3     :     0.009279

  3 C s       :     2.781645  s :     2.781645
      pz      :     0.988855  p :     2.991859
      px      :     1.040527
      py      :     0.962478
      dz2     :     0.124530  d :     0.605118
      dxz     :     0.168751
      dyz     :     0.082899
      dx2y2   :     0.107065
      dxy     :     0.121873
      f0      :     0.010200  f :     0.062713
      f+1     :     0.009446
      f-1     :     0.007021
      f+2     :     0.011439
      f-2     :     0.008089
      f+3     :     0.007136
      f-3     :     0.009381

  4 C s       :     2.772869  s :     2.772869
      pz      :     0.961466  p :     2.950622
      px      :     1.052375
      py      :     0.936780
      dz2     :     0.132781  d :     0.604007
      dxz     :     0.157121
      dyz     :     0.093134
      dx2y2   :     0.106045
      dxy     :     0.114926
      f0      :     0.010082  f :     0.062482
      f+1     :     0.009779
      f-1     :     0.007372
      f+2     :     0.011473
      f-2     :     0.007764
      f+3     :     0.007343
      f-3     :     0.008668

  5 C s       :     2.696201  s :     2.696201
      pz      :     0.987085  p :     2.854777
      px      :     0.951452
      py      :     0.916239
      dz2     :     0.110614  d :     0.510170
      dxz     :     0.133777
      dyz     :     0.070910
      dx2y2   :     0.100531
      dxy     :     0.094337
      f0      :     0.008199  f :     0.057791
      f+1     :     0.009124
      f-1     :     0.006726
      f+2     :     0.011033
      f-2     :     0.007604
      f+3     :     0.006745
      f-3     :     0.008359

  6 C s       :     2.695929  s :     2.695929
      pz      :     0.864011  p :     2.845564
      px      :     0.957232
      py      :     1.024321
      dz2     :     0.049158  d :     0.513966
      dxz     :     0.075892
      dyz     :     0.079453
      dx2y2   :     0.160693
      dxy     :     0.148769
      f0      :     0.004509  f :     0.058220
      f+1     :     0.005146
      f-1     :     0.004835
      f+2     :     0.007827
      f-2     :     0.007900
      f+3     :     0.009352
      f-3     :     0.018650

  7 C s       :     2.754154  s :     2.754154
      pz      :     0.880256  p :     2.897535
      px      :     1.022084
      py      :     0.995195
      dz2     :     0.033299  d :     0.378766
      dxz     :     0.072829
      dyz     :     0.031813
      dx2y2   :     0.116052
      dxy     :     0.124774
      f0      :     0.003848  f :     0.043496
      f+1     :     0.004243
      f-1     :     0.003655
      f+2     :     0.007135
      f-2     :     0.004052
      f+3     :     0.007945
      f-3     :     0.012619

  8 C s       :     2.776858  s :     2.776858
      pz      :     0.923682  p :     2.971739
      px      :     1.067209
      py      :     0.980848
      dz2     :     0.054346  d :     0.610684
      dxz     :     0.096316
      dyz     :     0.093157
      dx2y2   :     0.168520
      dxy     :     0.198346
      f0      :     0.004873  f :     0.063603
      f+1     :     0.005447
      f-1     :     0.005846
      f+2     :     0.009110
      f-2     :     0.007420
      f+3     :     0.010138
      f-3     :     0.020769

  9 C s       :     2.781464  s :     2.781464
      pz      :     0.947479  p :     2.985841
      px      :     0.964129
      py      :     1.074233
      dz2     :     0.058394  d :     0.608661
      dxz     :     0.104032
      dyz     :     0.079050
      dx2y2   :     0.194580
      dxy     :     0.172605
      f0      :     0.005085  f :     0.063119
      f+1     :     0.006310
      f-1     :     0.005041
      f+2     :     0.008695
      f-2     :     0.007957
      f+3     :     0.010662
      f-3     :     0.019367

 10 C s       :     2.781041  s :     2.781041
      pz      :     0.941983  p :     2.983832
      px      :     1.060047
      py      :     0.981802
      dz2     :     0.057706  d :     0.608605
      dxz     :     0.097453
      dyz     :     0.091058
      dx2y2   :     0.175522
      dxy     :     0.186866
      f0      :     0.005100  f :     0.063027
      f+1     :     0.005430
      f-1     :     0.005975
      f+2     :     0.009146
      f-2     :     0.007655
      f+3     :     0.010552
      f-3     :     0.019170

 11 C s       :     2.771909  s :     2.771909
      pz      :     0.931854  p :     2.953241
      px      :     1.035222
      py      :     0.986166
      dz2     :     0.056949  d :     0.603867
      dxz     :     0.098782
      dyz     :     0.090637
      dx2y2   :     0.174190
      dxy     :     0.183309
      f0      :     0.004929  f :     0.062680
      f+1     :     0.005675
      f-1     :     0.005628
      f+2     :     0.009473
      f-2     :     0.007226
      f+3     :     0.010019
      f-3     :     0.019730

 12 Cls       :     5.531278  s :     5.531278
      pz      :     3.772667  p :    10.920150
      px      :     3.674578
      py      :     3.472905
      dz2     :     0.014649  d :     0.102532
      dxz     :     0.011766
      dyz     :     0.023017
      dx2y2   :     0.020075
      dxy     :     0.033024
      f0      :     0.001117  f :     0.012131
      f+1     :     0.000778
      f-1     :     0.001665
      f+2     :     0.001022
      f-2     :     0.002400
      f+3     :     0.002899
      f-3     :     0.002251

 13 Cls       :     5.533004  s :     5.533004
      pz      :     3.807768  p :    10.924166
      px      :     3.713853
      py      :     3.402545
      dz2     :     0.013623  d :     0.104808
      dxz     :     0.009543
      dyz     :     0.022996
      dx2y2   :     0.025149
      dxy     :     0.033497
      f0      :     0.001201  f :     0.012503
      f+1     :     0.000616
      f-1     :     0.001733
      f+2     :     0.000938
      f-2     :     0.001986
      f+3     :     0.003425
      f-3     :     0.002605

 14 Cls       :     5.533113  s :     5.533113
      pz      :     3.835346  p :    10.924818
      px      :     3.237049
      py      :     3.852424
      dz2     :     0.013001  d :     0.104593
      dxz     :     0.028397
      dyz     :     0.001561
      dx2y2   :     0.041920
      dxy     :     0.019714
      f0      :     0.001255  f :     0.012487
      f+1     :     0.002106
      f-1     :     0.000180
      f+2     :     0.002227
      f-2     :     0.000131
      f+3     :     0.003724
      f-3     :     0.002862

 15 Cls       :     5.538150  s :     5.538150
      pz      :     3.788347  p :    10.943238
      px      :     3.708773
      py      :     3.446117
      dz2     :     0.013753  d :     0.099758
      dxz     :     0.010983
      dyz     :     0.022541
      dx2y2   :     0.020545
      dxy     :     0.031936
      f0      :     0.001106  f :     0.011805
      f+1     :     0.000673
      f-1     :     0.001646
      f+2     :     0.001007
      f-2     :     0.002187
      f+3     :     0.002947
      f-3     :     0.002238

 16 Cls       :     5.532749  s :     5.532749
      pz      :     3.474993  p :    10.926539
      px      :     3.753478
      py      :     3.698069
      dz2     :     0.027785  d :     0.101857
      dxz     :     0.022286
      dyz     :     0.028784
      dx2y2   :     0.011414
      dxy     :     0.011588
      f0      :     0.002004  f :     0.012011
      f+1     :     0.002046
      f-1     :     0.002602
      f+2     :     0.001916
      f-2     :     0.002422
      f+3     :     0.000567
      f-3     :     0.000453

 17 Cls       :     5.534150  s :     5.534150
      pz      :     3.576011  p :    10.933873
      px      :     3.618742
      py      :     3.739120
      dz2     :     0.019768  d :     0.104372
      dxz     :     0.032865
      dyz     :     0.018767
      dx2y2   :     0.012983
      dxy     :     0.019989
      f0      :     0.001419  f :     0.012391
      f+1     :     0.002642
      f-1     :     0.001187
      f+2     :     0.002133
      f-2     :     0.002987
      f+3     :     0.000993
      f-3     :     0.001030

 18 Cls       :     5.540242  s :     5.540242
      pz      :     3.846047  p :    10.951967
      px      :     3.260369
      py      :     3.845552
      dz2     :     0.013324  d :     0.099148
      dxz     :     0.022459
      dyz     :     0.001858
      dx2y2   :     0.035909
      dxy     :     0.025599
      f0      :     0.001141  f :     0.011671
      f+1     :     0.002046
      f-1     :     0.000250
      f+2     :     0.001961
      f-2     :     0.000196
      f+3     :     0.003180
      f-3     :     0.002896

 19 H s       :     0.769149  s :     0.769149
      pz      :     0.023011  p :     0.060143
      px      :     0.020598
      py      :     0.016534

 20 H s       :     0.774393  s :     0.774393
      pz      :     0.027554  p :     0.060743
      px      :     0.013723
      py      :     0.019465

 21 H s       :     0.764915  s :     0.764915
      pz      :     0.013736  p :     0.061170
      px      :     0.016467
      py      :     0.030968


---------------------------------
LOEWDIN BOND ORDERS (THRESH 0.050000)
---------------------------------
B(  0-C ,  1-C ) :   1.5708 B(  0-C ,  2-C ) :   0.2494 B(  0-C ,  3-C ) :   0.0995 
B(  0-C ,  4-C ) :   0.2299 B(  0-C ,  5-C ) :   1.4524 B(  0-C ,  6-C ) :   0.1743 
B(  0-C , 19-H ) :   0.8054 B(  0-C , 20-H ) :   0.0965 B(  1-C ,  2-C ) :   1.5427 
B(  1-C ,  3-C ) :   0.2322 B(  1-C ,  4-C ) :   0.1007 B(  1-C ,  5-C ) :   0.2372 
B(  1-C , 18-Cl) :   0.1687 B(  1-C , 19-H ) :   0.0963 B(  1-C , 20-H ) :   0.8128 
B(  2-C ,  3-C ) :   1.4926 B(  2-C ,  4-C ) :   0.2350 B(  2-C ,  5-C ) :   0.0949 
B(  2-C , 17-Cl) :   0.1594 B(  2-C , 18-Cl) :   1.6238 B(  2-C , 20-H ) :   0.0982 
B(  3-C ,  4-C ) :   1.4931 B(  3-C ,  5-C ) :   0.2244 B(  3-C , 16-Cl) :   0.1604 
B(  3-C , 17-Cl) :   1.6478 B(  3-C , 18-Cl) :   0.1589 B(  4-C ,  5-C ) :   1.4291 
B(  4-C ,  6-C ) :   0.1673 B(  4-C , 16-Cl) :   1.6112 B(  4-C , 17-Cl) :   0.1601 
B(  5-C ,  6-C ) :   1.0475 B(  5-C ,  7-C ) :   0.1763 B(  5-C , 11-C ) :   0.1655 
B(  5-C , 16-Cl) :   0.1560 B(  5-C , 19-H ) :   0.0943 B(  6-C ,  7-C ) :   1.4559 
B(  6-C ,  8-C ) :   0.2388 B(  6-C ,  9-C ) :   0.0915 B(  6-C , 10-C ) :   0.2261 
B(  6-C , 11-C ) :   1.4217 B(  6-C , 12-Cl) :   0.1556 B(  6-C , 21-H ) :   0.0941 
B(  7-C ,  8-C ) :   1.5355 B(  7-C ,  9-C ) :   0.2344 B(  7-C , 10-C ) :   0.0976 
B(  7-C , 11-C ) :   0.2292 B(  7-C , 15-Cl) :   0.1709 B(  7-C , 21-H ) :   0.7992 
B(  8-C ,  9-C ) :   1.4949 B(  8-C , 10-C ) :   0.2322 B(  8-C , 11-C ) :   0.0959 
B(  8-C , 14-Cl) :   0.1607 B(  8-C , 15-Cl) :   1.6290 B(  8-C , 21-H ) :   0.0969 
B(  9-C , 10-C ) :   1.4834 B(  9-C , 11-C ) :   0.2301 B(  9-C , 13-Cl) :   0.1618 
B(  9-C , 14-Cl) :   1.6535 B(  9-C , 15-Cl) :   0.1594 B( 10-C , 11-C ) :   1.4954 
B( 10-C , 12-Cl) :   0.1614 B( 10-C , 13-Cl) :   1.6505 B( 10-C , 14-Cl) :   0.1607 
B( 11-C , 12-Cl) :   1.6174 B( 11-C , 13-Cl) :   0.1620 

------------------------------------------
LOEWDIN REDUCED ORBITAL POPULATIONS PER MO
-------------------------------------------
THRESHOLD FOR PRINTING IS 0.1%%
                      0         1         2         3         4         5   
                 -107.16720 -107.16707 -107.16404 -107.16399 -107.16297 -107.16217
                   2.00000   2.00000   2.00000   2.00000   2.00000   2.00000
                  --------  --------  --------  --------  --------  --------
12 Cl s               0.0       0.0      99.9       0.0       0.0       0.0
13 Cl s               1.6      98.4       0.0       0.0       0.0       0.0
14 Cl s              98.4       1.6       0.0       0.0       0.0       0.0
15 Cl s               0.0       0.0       0.0       0.0     100.0       0.0
16 Cl s               0.0       0.0       0.0       0.0       0.0     100.0
17 Cl s               0.0       0.0       0.0      99.9       0.0       0.0

                      6         7         8         9        10        11   
                 -107.16008 -12.15180 -12.14973 -12.14539 -12.14481 -12.14309
                   2.00000   2.00000   2.00000   2.00000   2.00000   2.00000
                  --------  --------  --------  --------  --------  --------
 2 C  s               0.0       0.0       0.0       0.0       2.3       0.0
 2 C  dyz             0.0       0.0       0.0       0.0       0.1       0.0
 3 C  s               0.0       0.0       0.0       0.0      74.9       0.0
 4 C  s               0.0       0.0       0.0       0.0      21.7       0.1
 4 C  dx2y2           0.0       0.0       0.0       0.0       0.2       0.0
 6 C  dxy             0.0       0.0       0.0       0.1       0.0       0.0
 7 C  dx2y2           0.0       0.0       0.0       0.0       0.0       0.2
 8 C  s               0.0       0.2       2.4       0.0       0.0      96.1
 9 C  s               0.0      30.8      65.1       0.7       0.0       2.5
 9 C  dxy             0.0       0.1       0.1       0.0       0.0       0.1
10 C  s               0.0      66.5      28.1       4.2       0.0       0.2
10 C  dx2y2           0.0       0.0       0.0       0.2       0.0       0.0
11 C  s               0.0       1.5       3.4      94.0       0.0       0.0
11 C  dx2y2           0.0       0.1       0.1       0.0       0.0       0.0
18 Cl s             100.0       0.0       0.0       0.0       0.0       0.0

                     12        13        14        15        16        17   
                 -12.14241 -12.13906 -12.10192 -12.09586 -12.08521 -12.07754
                   2.00000   2.00000   2.00000   2.00000   2.00000   2.00000
                  --------  --------  --------  --------  --------  --------
 0 C  s               0.0       0.0       0.0       0.3       0.0      33.9
 0 C  dyz             0.0       0.0       0.0       0.1       0.0       0.0
 0 C  dx2y2           0.0       0.0       0.0       0.0       0.0       0.1
 1 C  s               0.0       0.0       0.0       0.0       0.0      64.9
 1 C  dxz             0.0       0.1       0.0       0.0       0.0       0.0
 2 C  s               4.5      92.1       0.0       0.0       0.0       0.0
 3 C  s              18.6       5.4       0.0       0.0       0.0       0.0
 3 C  dyz             0.0       0.1       0.0       0.0       0.0       0.0
 3 C  dx2y2           0.1       0.0       0.0       0.0       0.0       0.0
 4 C  s              75.7       1.4       0.0       0.1       0.0       0.0
 4 C  dxz             0.0       0.0       0.0       0.1       0.0       0.0
 5 C  s               0.1       0.0       1.7      96.8       0.1       0.1
 5 C  dxz             0.1       0.0       0.0       0.0       0.0       0.0
 5 C  dx2y2           0.0       0.0       0.1       0.0       0.0       0.0
 6 C  s               0.0       0.0      96.7       1.6       0.4       0.0
 6 C  dx2y2           0.0       0.0       0.0       0.1       0.0       0.0
[...]
 6 C  dxy             0.1       0.2       0.0       0.0       0.0       0.0
 7 C  s              22.5      32.3       1.4      12.4       5.4       5.9
 7 C  px              0.0       0.0       0.0       0.2       0.1       0.0
 8 C  s               2.9       2.6       5.9      13.3       1.7       1.2
 8 C  px              0.2       0.1       0.0       0.1       0.0       0.0
 9 C  s               8.0       3.4       9.2       1.7       7.5       2.3
10 C  s               0.4       0.8       8.0      19.8       2.5       1.7
11 C  s               3.7      21.9       0.8       0.8       5.2       9.2
11 C  px              0.0       0.0       0.0       0.3       0.1       0.0
11 C  py              0.0       0.0       0.0       0.1       0.0       0.0
11 C  dx2y2           0.0       0.0       0.0       0.1       0.0       0.0
11 C  dxy             0.0       0.0       0.0       0.0       0.1       0.1
12 Cl s               0.0       0.3       0.0       0.0       0.2       0.2
13 Cl s               0.0       0.0       0.1       0.3       0.0       0.0
14 Cl s               0.1       0.0       0.1       0.0       0.3       0.1
15 Cl s               0.1       0.1       0.0       0.1       0.0       0.0
16 Cl s               0.2       0.2       0.0       0.0       0.1       0.2
17 Cl s               0.0       0.0       0.2       0.1       0.0       0.0
18 Cl s               0.0       0.0       0.0       0.0       0.2       0.1

                    642       643       644       645       646       647   
                  24.37867  24.56032  24.78488  24.85285  24.93681  25.21198
                   0.00000   0.00000   0.00000   0.00000   0.00000   0.00000
                  --------  --------  --------  --------  --------  --------
 2 C  s               0.0       0.1       0.0       0.4       0.0       0.2
 2 C  px              0.1       0.2       0.0       0.4       0.0       0.1
 2 C  dz2             0.0       0.0       0.0       0.1       0.0       0.1
 2 C  dx2y2           0.0       0.0       0.0       0.2       0.0       0.2
 3 C  s               0.0       0.1       0.0       0.0       0.0       0.6
 3 C  pz              0.1       0.1       0.0       0.2       0.0       0.1
 3 C  px              0.1       0.2       0.0       0.1       0.0       0.1
 3 C  dxz             0.0       0.0       0.0       0.0       0.0       0.5
 3 C  dxy             0.0       0.0       0.0       0.0       0.0       0.2
 4 C  s               0.0       0.0       0.0       0.4       0.0       0.4
 4 C  pz              0.0       0.1       0.0       0.3       0.0       0.1
 4 C  py              0.0       0.0       0.0       0.1       0.0       0.1
 4 C  dz2             0.0       0.0       0.0       0.0       0.0       0.1
 4 C  dxz             0.0       0.0       0.0       0.1       0.0       0.2
 4 C  dyz             0.0       0.0       0.0       0.1       0.0       0.1
 5 C  s               0.3       0.2       0.0       0.0       0.1       0.1
 5 C  px              0.0       0.3       0.0       0.0       0.0       0.0
 6 C  s               0.3       0.2       0.0       0.1       0.0       0.1
 6 C  px              0.1       0.3       0.0       0.0       0.0       0.0
 6 C  py              0.0       0.0       0.1       0.0       0.0       0.0
 7 C  s               0.1       0.0       0.0       0.0       0.0       0.0
 8 C  s               0.0       0.0       0.3       0.0       0.2       0.0
 8 C  px              0.2       0.1       0.1       0.0       0.0       0.0
 8 C  py              0.0       0.0       0.3       0.0       0.2       0.0
 8 C  dxy             0.0       0.0       0.1       0.0       0.2       0.0
 9 C  s               0.1       0.1       0.0       0.0       0.3       0.0
 9 C  px              0.2       0.1       0.1       0.0       0.3       0.0
 9 C  py              0.0       0.0       0.3       0.0       0.0       0.0
 9 C  dx2y2           0.0       0.0       0.0       0.0       0.2       0.0
10 C  s               0.0       0.0       0.3       0.0       0.1       0.0
10 C  px              0.1       0.1       0.0       0.0       0.2       0.0
10 C  py              0.1       0.0       0.4       0.0       0.0       0.0
10 C  dxy             0.0       0.0       0.1       0.0       0.0       0.0
11 C  s               0.0       0.0       0.3       0.0       0.3       0.0
11 C  px              0.0       0.0       0.0       0.0       0.2       0.0
11 C  py              0.1       0.0       0.2       0.0       0.2       0.0
11 C  dxy             0.0       0.0       0.0       0.0       0.2       0.0
12 Cl s               7.2       1.9      20.7       0.3      40.1       0.0
12 Cl py              0.0       0.0       0.0       0.0       0.1       0.0
13 Cl s              19.2       8.5      32.4       0.9       5.0       0.0
13 Cl py              0.0       0.0       0.1       0.0       0.0       0.0
14 Cl s              23.3      11.6       5.5       0.3      27.9       0.0
14 Cl px              0.1       0.0       0.0       0.0       0.1       0.0
15 Cl s              17.8       7.1      33.9       2.2      22.9       0.2
16 Cl s               5.5       7.1       2.0      45.5       0.1      35.7
16 Cl pz              0.0       0.0       0.0       0.1       0.0       0.1
17 Cl s              13.1      31.9       0.2       5.9       0.1      44.7
17 Cl pz              0.0       0.1       0.0       0.0       0.0       0.1
17 Cl px              0.0       0.0       0.0       0.0       0.0       0.1
18 Cl s              10.8      28.3       1.2      41.1       0.1      14.5
18 Cl px              0.0       0.1       0.0       0.2       0.0       0.1

                    648   
                  25.32883
                   0.00000
                  --------
 8 C  s               0.2
 8 C  dxy             0.2
 9 C  s               0.5
 9 C  px              0.2
 9 C  dx2y2           0.5
10 C  s               0.4
10 C  py              0.1
10 C  dx2y2           0.2
10 C  dxy             0.4
11 C  s               0.4
11 C  dxy             0.3
12 Cl s              25.5
13 Cl s              29.9
13 Cl py              0.1
14 Cl s              27.2
14 Cl px              0.2
15 Cl s              12.1


                      *****************************
                      * MAYER POPULATION ANALYSIS *
                      *****************************

  NA   - Mulliken gross atomic population
  ZA   - Total nuclear charge
  QA   - Mulliken gross atomic charge
  VA   - Mayer's total valence
  BVA  - Mayer's bonded valence
  FA   - Mayer's free valence

  ATOM       NA         ZA         QA         VA         BVA        FA
  0 C      6.1982     6.0000    -0.1982     3.9296     3.9296    -0.0000
  1 C      6.2277     6.0000    -0.2277     3.9726     3.9726    -0.0000
  2 C      5.8908     6.0000     0.1092     3.8646     3.8646     0.0000
  3 C      6.0015     6.0000    -0.0015     3.9754     3.9754     0.0000
  4 C      5.9598     6.0000     0.0402     3.8975     3.8975     0.0000
  5 C      5.8991     6.0000     0.1009     3.5011     3.5011     0.0000
  6 C      5.9048     6.0000     0.0952     3.5479     3.5479    -0.0000
  7 C      6.2669     6.0000    -0.2669     3.9774     3.9774    -0.0000
  8 C      5.8990     6.0000     0.1010     3.8839     3.8839    -0.0000
  9 C      5.9763     6.0000     0.0237     3.9779     3.9779    -0.0000
 10 C      5.9844     6.0000     0.0156     3.9694     3.9694    -0.0000
 11 C      5.9791     6.0000     0.0209     3.9274     3.9274     0.0000
 12 Cl    17.0467    17.0000    -0.0467     1.2806     1.2806     0.0000
 13 Cl    17.0394    17.0000    -0.0394     1.2836     1.2836     0.0000
 14 Cl    17.0406    17.0000    -0.0406     1.2794     1.2794    -0.0000
 15 Cl    17.0628    17.0000    -0.0628     1.2460     1.2460    -0.0000
 16 Cl    17.0544    17.0000    -0.0544     1.2734     1.2734    -0.0000
 17 Cl    17.0472    17.0000    -0.0472     1.2758     1.2758    -0.0000
 18 Cl    17.0724    17.0000    -0.0724     1.2360     1.2360     0.0000
 19 H      0.8166     1.0000     0.1834     0.9575     0.9575    -0.0000
 20 H      0.8196     1.0000     0.1804     0.9685     0.9685    -0.0000
 21 H      0.8128     1.0000     0.1872     0.9709     0.9709    -0.0000

  Mayer bond orders larger than 0.100000
B(  0-C ,  1-C ) :   1.4403 B(  0-C ,  5-C ) :   1.3777 B(  0-C , 19-H ) :   0.9728 
B(  1-C ,  2-C ) :   1.3711 B(  1-C , 20-H ) :   0.9645 B(  2-C ,  3-C ) :   1.3136 
B(  2-C , 18-Cl) :   1.0723 B(  3-C ,  4-C ) :   1.3322 B(  3-C , 17-Cl) :   1.1850 
B(  4-C ,  5-C ) :   1.3035 B(  4-C , 16-Cl) :   1.1759 B(  5-C ,  6-C ) :   0.8118 
B(  6-C ,  7-C ) :   1.4134 B(  6-C , 11-C ) :   1.3006 B(  7-C ,  8-C ) :   1.3838 
B(  7-C , 21-H ) :   0.9627 B(  8-C ,  9-C ) :   1.3262 B(  8-C , 15-Cl) :   1.0722 
B(  9-C , 10-C ) :   1.3203 B(  9-C , 14-Cl) :   1.1846 B( 10-C , 11-C ) :   1.3409 
B( 10-C , 13-Cl) :   1.1880 B( 11-C , 12-Cl) :   1.1869 

-------
TIMINGS
-------

Total SCF time: 0 days 0 hours 12 min 6 sec 

Total time                  ....     726.890 sec
Sum of individual times     ....     718.262 sec  ( 98.8%)

SCF preparation             ....       0.700 sec  (  0.1%)
Fock matrix formation       ....     713.320 sec  ( 98.1%)
  Startup                   ....       0.157 sec  (  0.0% of F)
  Split-RI-J                ....      33.393 sec  (  4.7% of F)
  Chain of spheres X        ....     608.793 sec  ( 85.3% of F)
  XC integration            ....      44.521 sec  (  6.2% of F)
    XC Preparation          ....       0.000 sec  (  0.0% of XC)
    Basis function eval.    ....       9.228 sec  ( 20.7% of XC)
    Density eval.           ....      10.253 sec  ( 23.0% of XC)
    XC-Functional eval.     ....       9.059 sec  ( 20.3% of XC)
    XC-Potential eval.      ....      14.959 sec  ( 33.6% of XC)
  CPCM terms                ....      32.785 sec  (  4.6% of F)
Diagonalization             ....       0.000 sec  (  0.0%)
Density matrix formation    ....       0.685 sec  (  0.1%)
Total Energy calculation    ....       0.145 sec  (  0.0%)
Population analysis         ....       0.577 sec  (  0.1%)
Orbital Transformation      ....       0.322 sec  (  0.0%)
Orbital Orthonormalization  ....       0.000 sec  (  0.0%)
DIIS solution               ....       1.145 sec  (  0.2%)
  MO trafo                  ....       0.000 sec  (  0.0 % of DIIS)
  Orb grad                  ....       0.000 sec  (  0.0 % of DIIS)
  Energy W gradient         ....       0.000 sec  (  0.0 % of DIIS)
  DIIS error                ....       0.112 sec  (  9.8 % of DIIS)
  DIIS work                 ....       0.850 sec  ( 74.2 % of DIIS)
  Form Q                    ....       0.000 sec  (  0.0 % of DIIS)
  Form QpQm                 ....       0.000 sec  (  0.0 % of DIIS)
  Exp/Cayley                ....       0.000 sec  (  0.0 % of DIIS)
  Orb update                ....       0.000 sec  (  0.0 % of DIIS)
  Wake-sleep                ....       0.016 sec  (  1.4 % of DIIS)
SOSCF solution              ....       0.922 sec  (  0.1%)
  MO trafo                  ....       0.402 sec  ( 43.6 % of SOSCF)
  Orb grad                  ....       0.010 sec  (  1.0 % of SOSCF)
  Rot update                ....       0.146 sec  ( 15.8 % of SOSCF)
  Step                      ....       0.365 sec  ( 39.5 % of SOSCF)
Grid generation             ....       0.446 sec  (  0.1%)
Finished LeanSCF after 727.1 sec

Maximum memory used throughout the entire LEANSCF-calculation: 119.6 MB
------------------   -----------------
gCP correction             0.011042958
------------------   -----------------

-------------------------   --------------------
FINAL SINGLE POINT ENERGY     -3680.131601191480
-------------------------   --------------------


------------------------------------------------------------------------------
                              ORCA PROPERTY CALCULATIONS
------------------------------------------------------------------------------

GBWName                                 ... sp_solv.gbw
Number of atoms                         ...     22
Number of basis functions               ...    649
Max core memory                         ...   1024 MB

Electric properties:
Dipole moment                           ... YES
Quadrupole moment                       ...  NO
Static polarizability (Dipole/Dipole)   ...  NO
Static polarizability (Dipole/Quad.)    ...  NO
Static polarizability (Quad./Quad.)     ...  NO
Static polarizability (Velocity)        ...  NO

Atomic electric properties:
Dipole moment                           ...  NO
Quadrupole moment                       ...  NO
Static polarizability                   ...  NO

Choice of electric origin               ... Center of mass
Position of electric origin             ...     0.001568     0.084587     0.001910

General magnetic properties:
Magnetizability                         ...  NO

EPR properties:
g-Tensor (aka g-matrix)                 ...  NO
Zero-Field splitting spin-orbit         ...  NO
Zero-field splitting spin-spin          ...  NO
Hyperfine couplings                     ...  NO (   0 nuclei)
Quadrupole couplings                    ...  NO (   0 nuclei)
Contact density                         ...  NO (   0 nuclei)

NMR properties:
Chemical shifts                         ...  NO (   0 nuclei)
Spin-rotation constants                 ...  NO (   0 nuclei)
Spin-spin couplings                     ...  NO (   0 nuclei,    0 pairs)

Choice of magnetic origin               ... GIAO
Position of magnetic origin             ...     0.000000     0.000000     0.000000

Properties with geometric perturbations:
SCF Hessian                             ...  NO
IR spectrum                             ...  NO
VCD spectrum                            ...  NO
X-ray spectroscopy properties:
SCF XES/XAS/RIXS spectra                ...  NO


-------------
DIPOLE MOMENT
-------------

Method             : SCF
Type of density    : Electron Density
Multiplicity       :   1
Irrep              :   0
Energy             : -3680.1426441497801534 Eh
Relativity type    : 
Basis              : AO
                                X                 Y                 Z
Electronic contribution:     -4.595688125      -7.296968810       5.016433687
Nuclear contribution   :      4.733497474       8.558211950      -5.947315799
                        -----------------------------------------
Total Dipole Moment    :      0.137809348       1.261243141      -0.930882111
                        -----------------------------------------
Magnitude (a.u.)       :      1.573615958
Magnitude (Debye)      :      3.999813894



--------------------
Rotational spectrum 
--------------------
 
Rotational constants in cm-1:             0.013111             0.003569             0.003261 
Rotational constants in MHz :           393.054460           106.985829            97.761211 

Dipole components along the rotational axes: 
x,y,z [a.u.] :     0.146902     1.102180    -1.113502 
x,y,z [Debye]:     0.373394     2.801518    -2.830298 

 

Dipole moment calculation done in   0.1 sec 

Maximum memory used throughout the entire PROP-calculation: 82.3 MB

--------------------------------
SUGGESTED CITATIONS FOR THIS RUN
--------------------------------

Below you find a list of papers that are relevant to this ORCA run
We neither can nor want to force you to cite these papers, but we appreciate if you do
You receive ORCA, which is the product of decades of hard work by many enthusiastic individuals, for free
The only thing we kindly ask in return is that you cite our papers,
We deeply appreciate it, if you show your appreciation for ORCA by not just citing the generic ORCA reference.

Please note that relegating all ORCA citations to the supporting information does *not* help us.
SI sections are not indexed - citations you put there will not count into any citation statistics
But we need these citations in order to attract the funding resources that allow us to do what we are doing

Therefore, if you are a happy ORCA user, please consider citing a few of the papers listed below in the main body of your paper

In addition to the list printed below, the program has created the file sp_solv.bibtex that contains the list in bibtex format
You can import this file easily into all common literature databanks and citation aid programs


List of essential papers. We consider these as the minimum necessary citations

  1. Neese,F.
     Software update: the ORCA program system, version 5.0
     WIRES Comput. Molec. Sci., 2022 12(1)e1606
     doi.org/10.1002/wcms.1606

List of papers to cite with high priority. The work reported in these papers was absolutely
necessary for this run to complete.
Our perspective: the developers of density functionals and basis sets usually get cited in chemistry papers
Good! But without the algorithms to do something with them, the functionals or basis sets would not do anything.
Hence, in our opinion, the algorithm design and method developments papers are equally worthy of getting cited

  1. Neese,F.
     An improvement of the resolution of the identity approximation for the formation of the Coulomb matrix
     J. Comp. Chem., 2003 24(14)1740-1747
     doi.org/10.1002/jcc.10318
  2. Neese,F.; Wennmohs,F.; Hansen,A.; Becker,U.
     Efficient, approximate and parallel Hartree-Fock and hybrid DFT calculations. A 'chain-of-spheres' algorithm for the Hartree-Fock exchange
     Chem. Phys., 2009 356(1-3)98-109
     doi.org/10.1016/j.chemphys.2008.10.036
  3. Garcia-Rates,M.; Neese,F.
     Effect of the Solute Cavity on the Solvation Energy and its Derivatives within the Framework of the Gaussian Charge Scheme
     J. Comput. Chem., 2020 41 922-939
     doi.org/10.1002/jcc.26139
  4. Helmich-Paris,B.; de Souza,B.; Neese,F.; Izsák,R.
     An improved chain of spheres for exchange algorithm
     J. Chem. Phys., 2021 155 104109
     doi.org/doi: 10.1063/5.0058766.
  5. Neese,F.
     The SHARK Integral Generation and Digestion System
     J. Comp. Chem., 2022  1-16
     doi.org/10.1002/jcc.26942

List of suggested additional citations. These are papers that are important in the 'surrounding' of 
of this run, or papers that preceded the highly important papers. If you like your results we are grateful for a citation.

  1. Izsak,R.; Neese,F.
     An overlap fitted chain of spheres exchange method
     J. Chem. Phys., 2011 135 144105
     doi.org/10.1063/1.3646921
  2. Izsak,R.; Hansen,A.; Neese,F.
     The resolution of identity and chain of spheres approximations for the LPNO-CCSD singles Fock term
     Molec. Phys., 2012 110 2413-2417
     doi.org/10.1080/00268976.2012.687466
  3. Neese,F.
     The ORCA program system
     WIRES Comput. Molec. Sci., 2012 2(1)73-78
     doi.org/10.1002/wcms.81
  4. Izsak,R.; Neese,F.; Klopper,W.
     Robust fitting techniques in the chain of spheres approximation to the Fock exchange: The role of the complementary space
     J. Chem. Phys., 2013 139 
     doi.org/10.1063/1.4819264
  5. Neese,F.
     Software update: the ORCA program system, version 4.0
     WIRES Comput. Molec. Sci., 2018 8(1)1-6
     doi.org/10.1002/wcms.1327
  6. Neese,F.; Wennmohs,F.; Becker,U.; Riplinger,C.
     The ORCA quantum chemistry program package
     J. Chem. Phys., 2020 152 Art. No. L224108
     doi.org/10.1063/5.0004608

List of optional additional citations

  1. Neese,F.
     Approximate second-order SCF convergence for spin unrestricted wavefunctions
     Chem. Phys. Lett., 2000 325(1-3)93-98
     doi.org/10.1016/s0009-2614(00)00662-x

Timings for individual modules:

Sum of individual times          ...      733.736 sec (=  12.229 min)
Startup calculation              ...        5.676 sec (=   0.095 min)   0.8 %
SCF iterations                   ...      727.831 sec (=  12.131 min)  99.2 %
Property calculations            ...        0.229 sec (=   0.004 min)   0.0 %
                             ****ORCA TERMINATED NORMALLY****
TOTAL RUN TIME: 0 days 0 hours 12 minutes 14 seconds 425 msec
