
                                 *****************
                                 * O   R   C   A *
                                 *****************

                                            #,                                       
                                            ###                                      
                                            ####                                     
                                            #####                                    
                                            ######                                   
                                           ########,                                 
                                     ,,################,,,,,                         
                               ,,#################################,,                 
                          ,,##########################################,,             
                       ,#########################################, ''#####,          
                    ,#############################################,,   '####,        
                  ,##################################################,,,,####,       
                ,###########''''           ''''###############################       
              ,#####''   ,,,,##########,,,,          '''####'''          '####       
            ,##' ,,,,###########################,,,                        '##       
           ' ,,###''''                  '''############,,,                           
         ,,##''                                '''############,,,,        ,,,,,,###''
      ,#''                                            '''#######################'''  
     '                                                          ''''####''''         
             ,#######,   #######,   ,#######,      ##                                
            ,#'     '#,  ##    ##  ,#'     '#,    #''#        ,####,   ,####,        
            ##       ##  ##   ,#'  ##            #'  '#       #'       #'  '#        
            ##       ##  #######   ##           ,######,      #####,   #    #        
            '#,     ,#'  ##    ##  '#,     ,#' ,#      #,     #,   #   #,  ,#        
             '#######'   ##     ##  '#######'  #'      '#     '####' # '####'        



                #########################################################
                #                        -***-                          #
                #          Department of theory and spectroscopy        #
                #                                                       #
                #                      Frank Neese                      #
                #                                                       #
                #     Directorship, Architecture, Infrastructure        #
                #                    SHARK, DRIVERS                     #
                #        Core code/Algorithms in most modules           #
                #                                                       #
                #        Max Planck Institute fuer Kohlenforschung      #
                #                Kaiser Wilhelm Platz 1                 #
                #                 D-45470 Muelheim/Ruhr                 #
                #                      Germany                          #
                #                                                       #
                #                  All rights reserved                  #
                #                        -***-                          #
                #########################################################


                         Program Version 6.0.0  -   RELEASE  -


 With contributions from (in alphabetic order):
   Daniel Aravena         : Magnetic Suceptibility
   Michael Atanasov       : Ab Initio Ligand Field Theory (pilot matlab implementation)
   Alexander A. Auer      : GIAO ZORA, VPT2 properties, NMR spectrum
   Ute Becker             : All parallelization in ORCA, NUMFREQ, NUMCALC
   Giovanni Bistoni       : ED, misc. LED, open-shell LED, HFLD
   Martin Brehm           : Molecular dynamics
   Dmytro Bykov           : pre 5.0 version of the SCF Hessian
   Marcos Casanova-Páez   : Triplet and SCS-CIS(D). UHF-(DLPNO)-IP/EA/STEOM-CCSD. UHF-CVS-IP/STEOM-CCSD
   Vijay G. Chilkuri      : MRCI spin determinant printing, contributions to CSF-ICE
   Pauline Colinet        : FMM embedding
   Dipayan Datta          : RHF DLPNO-CCSD density
   Achintya Kumar Dutta   : EOM-CC, STEOM-CC
   Nicolas Foglia         : Exact transition moments, OPA infrastructure, MCD improvements
   Dmitry Ganyushin       : Spin-Orbit,Spin-Spin,Magnetic field MRCI
   Miquel Garcia          : C-PCM and meta-GGA Hessian, CCSD/C-PCM, Gaussian charge scheme
   Tiago L. C. Gouveia    : GS-ROHF, GS-ROCIS
   Yang Guo               : DLPNO-NEVPT2, F12-NEVPT2, CIM, IAO-localization
   Andreas Hansen         : Spin unrestricted coupled pair/coupled cluster methods
   Ingolf Harden          : AUTO-CI MPn and infrastructure 
   Benjamin Helmich-Paris : MC-RPA, TRAH-(SCF,CASSCF), AVAS, COSX integrals, SCF dyn. polar.
   Lee Huntington         : MR-EOM, pCC
   Robert Izsak           : Overlap fitted RIJCOSX, COSX-SCS-MP3, EOM
   Riya Kayal             : Wick's Theorem for AUTO-CI, AUTO-CI UHF-CCSDT
   Emily Kempfer          : AUTO-CI, RHF CISDT and CCSDT
   Christian Kollmar      : KDIIS, OOCD, Brueckner-CCSD(T), CCSD density, CASPT2, CASPT2-K, improved NEVPT2
   Axel Koslowski         : Symmetry handling
   Simone Kossmann        : Meta GGA functionals, TD-DFT gradient, OOMP2, (MP2 Hessian; deprecated post 5.0)
   Lucas Lang             : DCDCAS
   Marvin Lechner         : AUTO-CI (C++ implementation), FIC-MRCC
   Spencer Leger          : CASSCF response
   Dagmar Lenk            : GEPOL surface, SMD, ORCA-2-JSON
   Dimitrios Liakos       : Extrapolation schemes; Compound Job, initial MDCI parallelization
   Dimitrios Manganas     : Further ROCIS development; embedding schemes. LFT, Crystal Embedding
   Dimitrios Pantazis     : SARC Basis sets
   Anastasios Papadopoulos: AUTO-CI, single reference methods and gradients
   Taras Petrenko         : pre 6.0 DFT Hessian and TD-DFT gradient, (ASA, deprecated), ECA, 1-Electron XAS/XES, NRVS
   Peter Pinski           : DLPNO-MP2, DLPNO-MP2 Gradient
   Christoph Reimann      : Effective Core Potentials
   Marius Retegan         : Local ZFS, SOC
   Christoph Riplinger    : Optimizer, TS searches, QM/MM, DLPNO-CCSD(T), (RO)-DLPNO pert. Triples
   Michael Roemelt        : Original ROCIS implementation
   Masaaki Saitow         : Open-shell DLPNO-CCSD energy and density
   Barbara Sandhoefer     : DKH picture change effects
   Kantharuban Sivalingam : CASSCF convergence/infrastructure, NEVPT2 and variants, FIC-MRCI
   Bernardo de Souza      : ESD, SOC TD-DFT
   Georgi Stoychev        : AutoAux, RI-MP2 NMR, DLPNO-MP2 response, X2C
   Van Anh Tran           : RI-MP2 g-tensors
   Willem Van den Heuvel  : Paramagnetic NMR
   Zikuan Wang            : NOTCH, Electric field optimization 
   Frank Wennmohs         : Technical directorship and infrastructure
   Hang Xu                : AUTO-CI-Response properties 


 We gratefully acknowledge several colleagues who have allowed us to
 interface, adapt or use parts of their codes:
   Stefan Grimme, W. Hujo, H. Kruse, P. Pracht,  : VdW corrections, initial TS optimization,
                  C. Bannwarth, S. Ehlert,         DFT functionals, gCP, sTDA/sTD-DF
                  L. Wittmann, M. Mueller
   Ed Valeev, F. Pavosevic, A. Kumar             : LibInt (2-el integral package), F12 methods
   Garnet Chan, S. Sharma, J. Yang, R. Olivares  : DMRG
   Ulf Ekstrom                                   : XCFun DFT Library
   Mihaly Kallay                                 : mrcc  (arbitrary order and MRCC methods)
   Frank Weinhold                                : gennbo (NPA and NBO analysis)
   Simon Mueller                                 : openCOSMO-RS
   Christopher J. Cramer and Donald G. Truhlar   : smd solvation model
   Lars Goerigk                                  : TD-DFT with DH, B97 family of functionals
   V. Asgeirsson, H. Jonsson                     : NEB implementation
   FAccTs GmbH                                   : IRC, NEB, NEB-TS, DLPNO-Multilevel, CI-OPT
                                                   MM, QMMM, 2- and 3-layer-ONIOM, Crystal-QMMM,
                                                   LR-CPCM, SF, NACMEs, symmetry and pop. for TD-DFT,
                                                   nearIR, NL-DFT gradient (VV10), updates on ESD,
                                                   ML-optimized integration grids, MBIS, APM,
                                                   GOAT, DOCKER, SOLVATOR, interface openCOSMO-RS
   S Lehtola, MJT Oliveira, MAL Marques          : LibXC Library
   Liviu Ungur et al                             : ANISO software


 Your calculation uses the libint2 library for the computation of 2-el integrals
 For citations please refer to: http://libint.valeyev.net

 Your ORCA version has been built with support for libXC version: 6.2.2
 For citations please refer to: https://libxc.gitlab.io

 This ORCA versions uses:
   CBLAS   interface :  Fast vector & matrix operations
   LAPACKE interface :  Fast linear algebra routines
   SCALAPACK package :  Parallel linear algebra routines
   Shared memory     :  Shared parallel matrices
   BLAS/LAPACK       :  OpenBLAS 0.3.27  USE64BITINT DYNAMIC_ARCH NO_AFFINITY SkylakeX SINGLE_THREADED
        Core in use  :  SkylakeX
   Copyright (c) 2011-2014, The OpenBLAS Project


Your calculation utilizes the geometrical counterpoise correction gCP
Please cite in your paper:
H.Kruse, S. Grimme J.Chem.Phys., 136, (2012), 154101 
   

Your calculation utilizes the DFT-NL dispersion correction.
Cite in your paper:
Vydrov, O. A.; Van Voorhis, T. J. Chem. Phys. 2010, 133, 244103
Hujo, W.; Grimme, S. J. Chem. Theory Comput. 2011, 7, 3866 
   

================================================================================

----- Orbital basis set information -----
Your calculation utilizes the basis: def2-TZVP
   F. Weigend and R. Ahlrichs, Phys. Chem. Chem. Phys. 7, 3297 (2005).

----- AuxJ basis set information -----
Your calculation utilizes the auxiliary basis: def2/J
   F. Weigend, Phys. Chem. Chem. Phys. 8, 1057 (2006).

================================================================================
                                        WARNINGS
                       Please study these warnings very carefully!
================================================================================


================================================================================
                                       INPUT FILE
================================================================================
NAME = sp_gas.inp
|  1> ! wb97x-v def2-tzvp def2/J RIJCOSX DEFGRID2 scfconv7 GCP(DFT/TZ) printgap
|  2> %output
|  3>     printlevel normal
|  4> end
|  5> * xyz 0 1
|  6> C -3.1858744116838236 -0.15873814819752 0.0020082476882202003
|  7> O -1.9628562432448455 -0.9093329894157925 0.0010073762106658684
|  8> C -0.7867545516737097 -0.1966175040243056 0.004843682851552061
|  9> C -0.7202728859829562 1.198579814289431 0.001859746842986867
| 10> C 0.5432681230062353 1.7938477324397237 0.0008933285853054548
| 11> C 1.7078732423328102 1.0423903608085612 0.006215079379063229
| 12> C 1.630476801364749 -0.36242410130288166 0.012784452129626412
| 13> C 0.37301643856633065 -0.9727907655296287 0.00860259569375509
| 14> N 2.78667676653685 -1.1303197157715952 0.0851833735441323
| 15> H -3.2663176085231758 0.46672066726755557 -0.8941270228396687
| 16> H -3.2657018152804334 0.4641472957846525 0.9000222936834218
| 17> H -3.9861660537275423 -0.8998257761295725 0.0011599540706613983
| 18> H -1.610677388428488 1.8132386766146118 -0.002728447456633876
| 19> H 0.6115362921822449 2.877663732201001 -0.006262610240318713
| 20> H 2.679685310523854 1.5269681412325298 0.005838060880122071
| 21> H 0.28701954971810767 -2.055571531733336 0.00953091368465178
| 22> H 3.6127300197141268 -0.6735367967843943 -0.2746007043047098
| 23> H 2.6892966873199597 -2.073204789122719 -0.264162045136138
| 24> *
| 25> 
| 26>                          ****END OF INPUT****
================================================================================

                       ****************************
                       * Single Point Calculation *
                       ****************************

---------------------------------
CARTESIAN COORDINATES (ANGSTROEM)
---------------------------------
  C     -3.185874   -0.158738    0.002008
  O     -1.962856   -0.909333    0.001007
  C     -0.786755   -0.196618    0.004844
  C     -0.720273    1.198580    0.001860
  C      0.543268    1.793848    0.000893
  C      1.707873    1.042390    0.006215
  C      1.630477   -0.362424    0.012784
  C      0.373016   -0.972791    0.008603
  N      2.786677   -1.130320    0.085183
  H     -3.266318    0.466721   -0.894127
  H     -3.265702    0.464147    0.900022
  H     -3.986166   -0.899826    0.001160
  H     -1.610677    1.813239   -0.002728
  H      0.611536    2.877664   -0.006263
  H      2.679685    1.526968    0.005838
  H      0.287020   -2.055572    0.009531
  H      3.612730   -0.673537   -0.274601
  H      2.689297   -2.073205   -0.264162

----------------------------
CARTESIAN COORDINATES (A.U.)
----------------------------
  NO LB      ZA    FRAG     MASS         X           Y           Z
   0 C     6.0000    0    12.011   -6.020430   -0.299972    0.003795
   1 O     8.0000    0    15.999   -3.709261   -1.718390    0.001904
   2 C     6.0000    0    12.011   -1.486751   -0.371553    0.009153
   3 C     6.0000    0    12.011   -1.361118    2.264988    0.003514
   4 C     6.0000    0    12.011    1.026628    3.389881    0.001688
   5 C     6.0000    0    12.011    3.227413    1.969832    0.011745
   6 C     6.0000    0    12.011    3.081155   -0.684882    0.024159
   7 C     6.0000    0    12.011    0.704899   -1.838308    0.016257
   8 N     7.0000    0    14.007    5.266056   -2.135995    0.160973
   9 H     1.0000    0     1.008   -6.172446    0.881974   -1.689655
  10 H     1.0000    0     1.008   -6.171282    0.877111    1.700796
  11 H     1.0000    0     1.008   -7.532762   -1.700424    0.002192
  12 H     1.0000    0     1.008   -3.043739    3.426525   -0.005156
  13 H     1.0000    0     1.008    1.155636    5.437996   -0.011835
  14 H     1.0000    0     1.008    5.063871    2.885552    0.011032
  15 H     1.0000    0     1.008    0.542388   -3.884467    0.018011
  16 H     1.0000    0     1.008    6.827070   -1.272800   -0.518920
  17 H     1.0000    0     1.008    5.082034   -3.917789   -0.499194

--------------------------------
INTERNAL COORDINATES (ANGSTROEM)
--------------------------------
 C      0   0   0     0.000000000000     0.00000000     0.00000000
 O      1   0   0     1.434979810917     0.00000000     0.00000000
 C      2   1   0     1.375206627850   117.24555229     0.00000000
 C      3   2   1     1.396783545427   123.94323863   359.61762180
 C      4   3   2     1.396739313451   117.95375559   180.25497597
 C      5   4   3     1.386009230262   121.94192508   359.83356430
 C      6   5   4     1.406960212192   119.67912533     0.00000000
 C      3   2   1     1.395538538022   114.99218921   179.77697966
 N      7   6   5     1.389857416430   120.40695764   183.20470466
 H      1   2   3     1.095777468670   111.13465030    61.48934708
 H      1   2   3     1.095804689484   111.09937681   298.78364026
 H      1   2   3     1.090723752469   105.66118151   180.14287547
 H      4   3   2     1.081964300029   121.88997720     0.06504653
 H      5   4   3     1.085987509929   118.82946633   179.70839292
 H      6   5   4     1.085925625126   120.66530164   180.03030625
 H      8   3   2     1.086190827768   119.25129337   359.92589971
 H      9   7   6     1.010177803576   114.32264620   334.03981157
 H      9   7   6     1.010226391919   114.67481999   202.45007471

---------------------------
INTERNAL COORDINATES (A.U.)
---------------------------
 C      0   0   0     0.000000000000     0.00000000     0.00000000
 O      1   0   0     2.711718850339     0.00000000     0.00000000
 C      2   1   0     2.598763904189   117.24555229     0.00000000
 C      3   2   1     2.639538369225   123.94323863   359.61762180
 C      4   3   2     2.639454782904   117.95375559   180.25497597
 C      5   4   3     2.619177864283   121.94192508   359.83356430
 C      6   5   4     2.658769482366   119.67912533     0.00000000
 C      3   2   1     2.637185646194   114.99218921   179.77697966
 N      7   6   5     2.626449882253   120.40695764   183.20470466
 H      1   2   3     2.070719319508   111.13465030    61.48934708
 H      1   2   3     2.070770759391   111.09937681   298.78364026
 H      1   2   3     2.061169179930   105.66118151   180.14287547
 H      4   3   2     2.044616213734   121.88997720     0.06504653
 H      5   4   3     2.052218978625   118.82946633   179.70839292
 H      6   5   4     2.052102033295   120.66530164   180.03030625
 H      8   3   2     2.052603193658   119.25129337   359.92589971
 H      9   7   6     1.908959395324   114.32264620   334.03981157
 H      9   7   6     1.909051213986   114.67481999   202.45007471

---------------------
BASIS SET INFORMATION
---------------------
There are 4 groups of distinct atoms

 Group   1 Type C   : 11s6p2d1f contracted to 5s3p2d1f pattern {62111/411/11/1}
 Group   2 Type O   : 11s6p2d1f contracted to 5s3p2d1f pattern {62111/411/11/1}
 Group   3 Type N   : 11s6p2d1f contracted to 5s3p2d1f pattern {62111/411/11/1}
 Group   4 Type H   : 5s1p contracted to 3s1p pattern {311/1}

Atom   0C    basis set group =>   1
Atom   1O    basis set group =>   2
Atom   2C    basis set group =>   1
Atom   3C    basis set group =>   1
Atom   4C    basis set group =>   1
Atom   5C    basis set group =>   1
Atom   6C    basis set group =>   1
Atom   7C    basis set group =>   1
Atom   8N    basis set group =>   3
Atom   9H    basis set group =>   4
Atom  10H    basis set group =>   4
Atom  11H    basis set group =>   4
Atom  12H    basis set group =>   4
Atom  13H    basis set group =>   4
Atom  14H    basis set group =>   4
Atom  15H    basis set group =>   4
Atom  16H    basis set group =>   4
Atom  17H    basis set group =>   4
---------------------------------
AUXILIARY/J BASIS SET INFORMATION
---------------------------------
There are 4 groups of distinct atoms

 Group   1 Type C   : 12s5p4d2f1g contracted to 6s4p3d1f1g pattern {711111/2111/211/2/1}
 Group   2 Type O   : 12s5p4d2f1g contracted to 6s4p3d1f1g pattern {711111/2111/211/2/1}
 Group   3 Type N   : 12s5p4d2f1g contracted to 6s4p3d1f1g pattern {711111/2111/211/2/1}
 Group   4 Type H   : 5s2p1d contracted to 3s1p1d pattern {311/2/1}

Atom   0C    basis set group =>   1
Atom   1O    basis set group =>   2
Atom   2C    basis set group =>   1
Atom   3C    basis set group =>   1
Atom   4C    basis set group =>   1
Atom   5C    basis set group =>   1
Atom   6C    basis set group =>   1
Atom   7C    basis set group =>   1
Atom   8N    basis set group =>   3
Atom   9H    basis set group =>   4
Atom  10H    basis set group =>   4
Atom  11H    basis set group =>   4
Atom  12H    basis set group =>   4
Atom  13H    basis set group =>   4
Atom  14H    basis set group =>   4
Atom  15H    basis set group =>   4
Atom  16H    basis set group =>   4
Atom  17H    basis set group =>   4

Checking for AutoStart:
The File: sp_gas.gbw exists
Trying to determine its content:
     ... Fine, the file contains calculation information
     ... Fine, the calculation information was read
     ... Fine, the file contains a basis set
     ... Fine, the basis set was read
     ... Fine, the file contains a geometry
     ... Fine, the geometry was read
     ... Fine, the file contains a set of orbitals
     ... Fine, the orbitals can be read
     => possible old guess file was deleted
     => GBW file was renamed to GES file
     => GES file is set as startup file
     => Guess is set to MORead
     ... now leaving AutoStart

------------------------------------------------------------------------------
                             ORCA STARTUP CALCULATIONS
                           -- RI-GTO INTEGRALS CHOSEN --
------------------------------------------------------------------------------
------------------------------------------------------------------------------
                   ___                                                        
                  /   \      - P O W E R E D   B Y -                         
                 /     \                                                     
                 |  |  |   _    _      __       _____    __    __             
                 |  |  |  | |  | |    /  \     |  _  \  |  |  /  |          
                  \  \/   | |  | |   /    \    | | | |  |  | /  /          
                 / \  \   | |__| |  /  /\  \   | |_| |  |  |/  /          
                |  |  |   |  __  | /  /__\  \  |    /   |      \           
                |  |  |   | |  | | |   __   |  |    \   |  |\   \          
                \     /   | |  | | |  |  |  |  | |\  \  |  | \   \       
                 \___/    |_|  |_| |__|  |__|  |_| \__\ |__|  \__/        
                                                                              
                      - O R C A' S   B I G   F R I E N D -                    
                                      &                                       
                       - I N T E G R A L  F E E D E R -                       
                                                                              
 v1 FN, 2020, v2 2021, v3 2022-2024                                           
------------------------------------------------------------------------------


----------------------
SHARK INTEGRAL PACKAGE
----------------------

Number of atoms                             ...     18
Number of basis functions                   ...    333
Number of shells                            ...    135
Maximum angular momentum                    ...      3
Integral batch strategy                     ... SHARK/LIBINT Hybrid
RI-J (if used) integral strategy            ... SPLIT-RIJ (Revised 2003 algorithm where possible)
Printlevel                                  ...      1
Contraction scheme used                     ... SEGMENTED contraction
Prescreening option                         ... SCHWARTZ
   Thresh                                   ... 3.000e-11
   Tcut                                     ... 1.000e-12
   Tpresel                                  ... 1.000e-12 
Coulomb Range Separation                    ... NOT USED
Exchange Range Separation                   ... Long Range
   Mu parameter                             ... 3.000e-01
   Scaling (regular/separated)              ... 1.670e-01 8.330e-01
Multipole approximations                    ... NOT USED
Finite Nucleus Model                        ... NOT USED
CABS basis                                  ... NOT available
Auxiliary Coulomb fitting basis             ... AVAILABLE
   # of basis functions in Aux-J            ...    540
   # of shells in Aux-J                     ...    180
   Maximum angular momentum in Aux-J        ...      4
Auxiliary J/K fitting basis                 ... NOT available
Auxiliary Correlation fitting basis         ... NOT available
Auxiliary 'external' fitting basis          ... NOT available

Checking pre-screening integrals            ... done (  0.0 sec) Dimension = 135
Check shell pair data                       ... done (  0.0 sec)
Shell pair information
Shell pair cut-off parameter TPreSel        ...   1.0e-12
Total number of shell pairs                 ...      9180
Shell pairs after pre-screening             ...      8156
Total number of primitive shell pairs       ...     27720
Primitive shell pairs kept                  ...     18363
          la=0 lb=0:   2233 shell pairs
          la=1 lb=0:   2305 shell pairs
          la=1 lb=1:    619 shell pairs
          la=2 lb=0:   1170 shell pairs
          la=2 lb=1:    603 shell pairs
          la=2 lb=2:    159 shell pairs
          la=3 lb=0:    574 shell pairs
          la=3 lb=1:    298 shell pairs
          la=3 lb=2:    152 shell pairs
          la=3 lb=3:     43 shell pairs

Calculating one electron integrals          ... done (  0.0 sec)
Calculating RI/J V-Matrix + Cholesky decomp.... done (  0.1 sec)
Calculating Nuclear repulsion               ... done (  0.0 sec) ENN=    425.516708965717 Eh

Diagonalization of the overlap matrix:
Smallest eigenvalue                        ... 9.361e-06
Time for diagonalization                   ...    0.012 sec
Threshold for overlap eigenvalues          ... 1.000e-07
Number of eigenvalues below threshold      ... 0
Time for construction of square roots      ...    0.022 sec
Total time needed                          ...    0.042 sec

-------------------
DFT GRID GENERATION
-------------------

General Integration Accuracy     IntAcc      ... 4.388
Radial Grid Type                 RadialGrid  ... OptM3 with GC (2021)
Angular Grid (max. ang.)         AngularGrid ... 4 (Lebedev-302)
Angular grid pruning method      GridPruning ... 4 (adaptive)
Weight generation scheme         WeightScheme... mBecke (2022)
Basis function cutoff            BFCut       ... 1.0000e-11
Integration weight cutoff        WCut        ... 1.0000e-14
Partially contracted basis set               ... off
Rotationally invariant grid construction     ... off
Angular grids for H and He will be reduced by one unit

Total number of grid points                  ...    83080
Total number of batches                      ...     1310
Average number of points per batch           ...       63
Average number of grid points per atom       ...     4616

--------------------
COSX GRID GENERATION
--------------------

GRIDX 1
-------
General Integration Accuracy     IntAcc      ... 3.816
Radial Grid Type                 RadialGrid  ... OptM3 with GC (2021)
Angular Grid (max. ang.)         AngularGrid ... 1 (Lebedev-50)
Angular grid pruning method      GridPruning ... 4 (adaptive)
Weight generation scheme         WeightScheme... mBecke (2022)
Basis function cutoff            BFCut       ... 1.0000e-11
Integration weight cutoff        WCut        ... 1.0000e-14
Partially contracted basis set               ... on
Rotationally invariant grid construction     ... off
Angular grids for H and He will be reduced by one unit

Total number of grid points                  ...    10639
Total number of batches                      ...       93
Average number of points per batch           ...      114
Average number of grid points per atom       ...      591
UseSFitting                                  ... on

GRIDX 2
-------
General Integration Accuracy     IntAcc      ... 4.020
Radial Grid Type                 RadialGrid  ... OptM3 with GC (2021)
Angular Grid (max. ang.)         AngularGrid ... 2 (Lebedev-110)
Angular grid pruning method      GridPruning ... 4 (adaptive)
Weight generation scheme         WeightScheme... mBecke (2022)
Basis function cutoff            BFCut       ... 1.0000e-11
Integration weight cutoff        WCut        ... 1.0000e-14
Partially contracted basis set               ... on
Rotationally invariant grid construction     ... off
Angular grids for H and He will be reduced by one unit

Total number of grid points                  ...    23006
Total number of batches                      ...      188
Average number of points per batch           ...      122
Average number of grid points per atom       ...     1278
UseSFitting                                  ... on

GRIDX 3
-------
General Integration Accuracy     IntAcc      ... 4.338
Radial Grid Type                 RadialGrid  ... OptM3 with GC (2021)
Angular Grid (max. ang.)         AngularGrid ... 3 (Lebedev-194)
Angular grid pruning method      GridPruning ... 4 (adaptive)
Weight generation scheme         WeightScheme... mBecke (2022)
Basis function cutoff            BFCut       ... 1.0000e-11
Integration weight cutoff        WCut        ... 1.0000e-14
Partially contracted basis set               ... on
Rotationally invariant grid construction     ... off
Angular grids for H and He will be reduced by one unit

Total number of grid points                  ...    50527
Total number of batches                      ...      402
Average number of points per batch           ...      125
Average number of grid points per atom       ...     2807
UseSFitting                                  ... on
Initializing property integral containers    ... done (  0.0 sec)

SHARK setup successfully completed in   2.7 seconds

Maximum memory used throughout the entire STARTUP-calculation: 50.4 MB
-------------------------------------------------------------------------------
                                 ORCA GUESS
                   Start orbitals & Density for SCF / CASSCF
-------------------------------------------------------------------------------

------------
SCF SETTINGS
------------
Hamiltonian:
 Density Functional     Method          .... DFT(GTOs)
 Exchange Functional    Exchange        .... WB97X-V
 Correlation Functional Correlation     .... WB97X-V
 Gradients option       PostSCFGGA      .... off
 Hybrid DFT is turned on
   Fraction HF Exchange ScalHFX         ....  0.167000
   Scaling of DF-GGA-X  ScalDFX         ....  0.000000
   Scaling of DF-GGA-C  ScalDFC         ....  1.000000
   Scaling of DF-LDA-C  ScalLDAC        ....  1.000000
   Perturbative correction              ....  0.000000
 Long-range corrected/Screened/Range-Separated Hybrid DFT is turned on
   Amount of maximum screened exact exchange              ....  0.833000
   Range separation parameter mu (erf(mu*r12)/r12)        ....  0.300000
   NL short-range parameter             ....  6.000000
   NL long-range parameter              ....  0.010000
 RI-approximation to the Coulomb term is turned on
   Number of AuxJ basis functions       .... 540
   RIJ-COSX (HFX calculated with COS-X)).... on


General Settings:
 Integral files         IntName         .... sp_gas
 Hartree-Fock type      HFTyp           .... RHF
 Total Charge           Charge          ....    0
 Multiplicity           Mult            ....    1
 Number of Electrons    NEL             ....   66
 Basis Dimension        Dim             ....  333
 Nuclear Repulsion      ENuc            ....    425.5167089657 Eh

Convergence Acceleration:
 AO-DIIS                CNVDIIS         .... on
   Start iteration      DIISMaxIt       ....    12
   Startup error        DIISStart       ....  0.200000
   # of expansion vecs  DIISMaxEq       ....     5
   Bias factor          DIISBfac        ....   1.050
   Max. coefficient     DIISMaxC        ....  10.000
 MO-DIIS                CNVKDIIS        .... off
 Trust-Rad. Augm. Hess. CNVTRAH         .... auto
   Auto Start mean grad. ratio tolernc. ....  1.125000
   Auto Start start iteration           ....     1
   Auto Start num. interpolation iter.  ....    10
   Max. Number of Micro iterations      ....    24
   Max. Number of Macro iterations      .... Maxiter - #DIIS iter
   Number of Davidson start vectors     ....     2
   Converg. threshold    (grad. norm)   ....   1.000e-04
   Grad. Scal. Fac. for Micro threshold ....   0.100
   Minimum threshold for Micro iter.    ....   1.000e-02
   NR start threshold (gradient norm)   ....   1.000e-04
   Initial trust radius                 ....   0.400
   Minimum AH scaling param. (alpha)    ....   1.000
   Maximum AH scaling param. (alpha)    .... 1000.000
   Quad. conv. algorithm                .... NR
   White noise on init. David. guess    .... on
   Maximum white noise                  ....   0.010
   Pseudo random numbers                .... off
   Inactive MOs                         .... canonical
   Orbital update algorithm             .... Taylor
   Preconditioner                       .... Diag
   Full preconditioner red. dimension   ....   250
 SOSCF                  CNVSOSCF        .... on
   Start iteration      SOSCFMaxIt      ....   150
   Startup grad/error   SOSCFStart      ....  0.003300
   Hessian update       SOSCFHessUp     .... L-BFGS
 Level Shifting         CNVShift        .... on
   Level shift para.    LevelShift      ....    0.2500
   Turn off err/grad.   ShiftErr        ....    0.0010
 Zerner damping         CNVZerner       .... off
 Static damping         CNVDamp         .... on
   Fraction old density DampFac         ....    0.7000
   Max. Damping (<1)    DampMax         ....    0.9800
   Min. Damping (>=0)   DampMin         ....    0.0000
   Turn off err/grad.   DampErr         ....    0.1000

SCF Procedure:
 Maximum # iterations   MaxIter         ....   125
 SCF integral mode      SCFMode         .... Direct
   Integral package                     .... SHARK and LIBINT hybrid scheme
 Reset frequency        DirectResetFreq ....    20
 Integral Threshold     Thresh          ....  3.000e-11 Eh
 Primitive CutOff       TCut            ....  1.000e-12 Eh

Convergence Tolerance:
 Convergence Check Mode ConvCheckMode   .... Total+1el-Energy
 Convergence forced     ConvForced      .... 0
 Energy Change          TolE            ....  1.000e-07 Eh
 1-El. energy change                    ....  1.000e-04 Eh
 Orbital Gradient       TolG            ....  1.000e-04
 Orbital Rotation angle TolX            ....  1.000e-04
 DIIS Error             TolErr          ....  1.000e-07

---------------------
INITIAL GUESS: MOREAD
---------------------
Guess MOs are being read from file: sp_gas.ges
Input Geometry matches current geometry (good)
Atom 0: N(Shells)= 11 and 9 - projection required
Input basis set needs projection
NBasis(read)= 226
NBasis(calc)= 333
Basis set overlap was calculated
Using GuessMode=FMatrix for the initial guess
C*T matrix was formed
Effective Fockian was calculated
Effective Fockian was diagonalized
Initial density was built
                      ------------------
                      INITIAL GUESS DONE (   0.1 sec)
                      ------------------
             **** ENERGY FILE WAS UPDATED (sp_gas.en.tmp) ****
Finished Guess after   0.3 sec
Maximum memory used throughout the entire GUESS-calculation: 31.5 MB

-------------------------------------------------------------------------------------------
                                      ORCA LEAN-SCF
                              memory conserving SCF solver
-------------------------------------------------------------------------------------------

----------------------------------------D-I-I-S--------------------------------------------
Iteration    Energy (Eh)           Delta-E    RMSDP     MaxDP     DIISErr   Damp  Time(sec)
-------------------------------------------------------------------------------------------
               ***  Starting incremental Fock matrix formation  ***
    1    -402.3858252951710597     0.00e+00  1.81e-03  1.10e-01  6.27e-02  0.700  23.6
    2    -402.3929477527609038    -7.12e-03  1.49e-03  8.02e-02  4.57e-02  0.700  11.6
                               ***Turning on AO-DIIS***
    3    -402.3982394202363935    -5.29e-03  1.17e-03  5.72e-02  3.28e-02  0.700  11.2
    4    -402.4020870439667874    -3.85e-03  2.86e-03  1.33e-01  2.30e-02  0.000  11.0
                              *** Initializing SOSCF ***
---------------------------------------S-O-S-C-F--------------------------------------
Iteration    Energy (Eh)           Delta-E    RMSDP     MaxDP     MaxGrad    Time(sec)
--------------------------------------------------------------------------------------
    5    -402.4118529080688518    -9.77e-03  1.02e-04  4.13e-03  2.30e-03    11.8
               *** Restarting incremental Fock matrix formation ***
    6    -402.4118917760951604    -3.89e-05  4.75e-05  2.29e-03  7.08e-04    23.5
    7    -402.4119040379460444    -1.23e-05  3.31e-05  1.13e-03  3.25e-04    18.2
    8    -402.4119060108242252    -1.97e-06  1.19e-05  3.19e-04  1.38e-04    17.8
    9    -402.4119067106708485    -7.00e-07  3.52e-06  1.39e-04  2.77e-05    16.5
   10    -402.4119067437248418    -3.31e-08  1.18e-06  3.30e-05  2.31e-05    15.1
                 **** Energy Check signals convergence ****

               *****************************************************
               *                     SUCCESS                       *
               *           SCF CONVERGED AFTER  10 CYCLES          *
               *****************************************************


------------------
NL GRID GENERATION
------------------

General Integration Accuracy     IntAcc      ... 4.004
Radial Grid Type                 RadialGrid  ... OptM3 with GC (2021)
Angular Grid (max. ang.)         AngularGrid ... 2 (Lebedev-110)
Angular grid pruning method      GridPruning ... 4 (adaptive)
Weight generation scheme         WeightScheme... mBecke (2022)
Basis function cutoff            BFCut       ... 1.0000e-10
Integration weight cutoff        WCut        ... 1.0000e-14
Partially contracted basis set               ... off
Rotationally invariant grid construction     ... off
Angular grids for H and He will be reduced by one unit

Total number of grid points                  ...    26120
Total number of batches                      ...      417
Average number of points per batch           ...       62
Average number of grid points per atom       ...     1451
Final grid set up in    0.2 sec

-------------------------------------------------------------------------------
                    post-SCF DFT-NL dispersion correction                      
-------------------------------------------------------------------------------

SCF Energy:     -402.411906744 
NL    Energy:      0.251470297 
SC+NL Energy:   -402.160436447 
NL done in  :              3.1 sec
-------------------------------------------------------------------------------
Recomputing exchange energy using gridx3       ... done (   43.669 sec)
Old exchange energy                            :    -17.683835706 Eh
New exchange energy                            :    -17.683794850 Eh
Exchange energy change after final integration :      0.000040856 Eh
Total energy after final integration           :   -402.160395591 Eh
             **** ENERGY FILE WAS UPDATED (sp_gas.en.tmp) ****

----------------
TOTAL SCF ENERGY
----------------

Total Energy       :       -402.16039559127023 Eh          -10943.34071 eV

Components:
Nuclear Repulsion  :        425.51670896571710 Eh           11578.89831 eV
Electronic Energy  :       -827.92861570944194 Eh          -22529.08299 eV
One Electron Energy:      -1387.65179464294647 Eh          -37759.92501 eV
Two Electron Energy:        559.72317893350453 Eh           15230.84202 eV

Virial components:
Potential Energy   :       -802.69414168881781 Eh          -21842.41804 eV
Kinetic Energy     :        400.53374609754758 Eh           10899.07733 eV
Virial Ratio       :          2.00406120460403

DFT components:
N(Alpha)           :       33.000034686590 electrons
N(Beta)            :       33.000034686590 electrons
N(Total)           :       66.000069373181 electrons
E(X)               :      -36.650609558939 Eh       
E(C)               :       -2.738986368696 Eh       
NL Energy, E(C,NL) :        0.251470296947 Eh       
E(XC)              :      -39.138125630688 Eh       

---------------
SCF CONVERGENCE
---------------

  Last Energy change         ...    3.3054e-08  Tolerance :   1.0000e-07
  Last MAX-Density change    ...    3.2951e-05  Tolerance :   1.0000e-05
  Last RMS-Density change    ...    1.1787e-06  Tolerance :   1.0000e-06
  Last DIIS Error            ...    2.3005e-03  Tolerance :   1.0000e-07
  Last Orbital Gradient      ...    2.3118e-05  Tolerance :   1.0000e-04
  Last Orbital Rotation      ...    4.0257e-05  Tolerance :   1.0000e-04


----------------
ORBITAL ENERGIES
----------------

  NO   OCC          E(Eh)            E(eV) 
   0   2.0000     -21.697103      -590.4082 
   1   2.0000     -16.529652      -449.7947 
   2   2.0000     -12.106883      -329.4450 
   3   2.0000     -12.097246      -329.1828 
   4   2.0000     -12.090212      -328.9914 
   5   2.0000     -12.050012      -327.8975 
   6   2.0000     -12.034294      -327.4698 
   7   2.0000     -12.033949      -327.4604 
   8   2.0000     -12.033086      -327.4369 
   9   2.0000      -1.708984       -46.5038 
  10   2.0000      -1.489287       -40.5255 
  11   2.0000      -1.368705       -37.2444 
  12   2.0000      -1.288373       -35.0584 
  13   2.0000      -1.258727       -34.2517 
  14   2.0000      -1.218864       -33.1670 
  15   2.0000      -1.117736       -30.4151 
  16   2.0000      -1.105679       -30.0870 
  17   2.0000      -1.047278       -28.4979 
  18   2.0000      -1.012478       -27.5509 
  19   2.0000      -0.975078       -26.5332 
  20   2.0000      -0.970749       -26.4154 
  21   2.0000      -0.970350       -26.4046 
  22   2.0000      -0.939791       -25.5730 
  23   2.0000      -0.915361       -24.9082 
  24   2.0000      -0.875342       -23.8193 
  25   2.0000      -0.839404       -22.8413 
  26   2.0000      -0.829375       -22.5685 
  27   2.0000      -0.824293       -22.4302 
  28   2.0000      -0.814926       -22.1753 
  29   2.0000      -0.809326       -22.0229 
  30   2.0000      -0.738975       -20.1085 
  31   2.0000      -0.631367       -17.1804 
  32   2.0000      -0.613804       -16.7025 
  33   0.0000      -0.238379        -6.4866 
  34   0.0000      -0.232266        -6.3203 
  35   0.0000      -0.176796        -4.8109 
  36   0.0000      -0.107650        -2.9293 
  37   0.0000      -0.065414        -1.7800 
  38   0.0000      -0.056489        -1.5372 
  39   0.0000      -0.030342        -0.8257 
  40   0.0000      -0.005281        -0.1437 
  41   0.0000      -0.002747        -0.0748 
  42   0.0000       0.012100         0.3293 
  43   0.0000       0.021523         0.5857 
*Only the first 10 virtual orbitals were printed.

                    ********************************
                    * MULLIKEN POPULATION ANALYSIS *
                    ********************************

-----------------------
MULLIKEN ATOMIC CHARGES
-----------------------
   0 C :   -0.210997
   1 O :   -0.251160
   2 C :    0.325534
   3 C :   -0.303363
   4 C :   -0.098432
   5 C :   -0.281388
   6 C :    0.339444
   7 C :   -0.347586
   8 N :   -0.443485
   9 H :    0.121010
  10 H :    0.122194
  11 H :    0.134513
  12 H :    0.120688
  13 H :    0.113346
  14 H :    0.102755
  15 H :    0.104746
  16 H :    0.225675
  17 H :    0.226506
Sum of atomic charges:    0.0000000

--------------------------------
MULLIKEN REDUCED ORBITAL CHARGES
--------------------------------
  0 C s       :     3.240636  s :     3.240636
      pz      :     1.061299  p :     2.865570
      px      :     0.803233
      py      :     1.001037
      dz2     :     0.007639  d :     0.097338
      dxz     :     0.022840
      dyz     :     0.024678
      dx2y2   :     0.018783
      dxy     :     0.023397
      f0      :     0.001025  f :     0.007453
      f+1     :     0.000393
      f-1     :     0.001290
      f+2     :     0.000463
      f-2     :     0.001161
      f+3     :     0.001837
      f-3     :     0.001283

  1 O s       :     3.728232  s :     3.728232
      pz      :     1.776615  p :     4.480795
      px      :     1.154388
      py      :     1.549791
      dz2     :     0.004734  d :     0.040116
      dxz     :     0.006201
      dyz     :     0.003717
      dx2y2   :     0.007801
      dxy     :     0.017663
      f0      :     0.000262  f :     0.002018
      f+1     :     0.000417
      f-1     :     0.000172
      f+2     :     0.000071
      f-2     :     0.000224
      f+3     :     0.000401
      f-3     :     0.000470

  2 C s       :     2.993771  s :     2.993771
      pz      :     0.890975  p :     2.490312
      px      :     0.726249
      py      :     0.873087
      dz2     :     0.004636  d :     0.174607
      dxz     :     0.043949
      dyz     :     0.036111
      dx2y2   :     0.049929
      dxy     :     0.039982
      f0      :     0.002583  f :     0.015777
      f+1     :     0.001137
      f-1     :     0.000908
      f+2     :     0.001443
      f-2     :     0.002538
      f+3     :     0.004996
      f-3     :     0.002172

  3 C s       :     3.229116  s :     3.229116
      pz      :     1.109320  p :     2.993252
      px      :     0.967701
      py      :     0.916231
      dz2     :     0.005347  d :     0.073701
      dxz     :     0.009377
      dyz     :     0.014873
      dx2y2   :     0.024978
      dxy     :     0.019126
      f0      :     0.001625  f :     0.007294
      f+1     :     0.000735
      f-1     :     0.000692
      f+2     :     0.000887
      f-2     :     0.000301
      f+3     :     0.001879
      f-3     :     0.001176

  4 C s       :     3.160228  s :     3.160228
      pz      :     0.928640  p :     2.836519
      px      :     0.948580
      py      :     0.959299
      dz2     :     0.003963  d :     0.093918
      dxz     :     0.033283
      dyz     :     0.005111
      dx2y2   :     0.029713
      dxy     :     0.021847
      f0      :     0.001669  f :     0.007768
      f+1     :     0.000612
      f-1     :     0.000686
      f+2     :     0.000252
      f-2     :     0.001404
      f+3     :     0.002046
      f-3     :     0.001099

  5 C s       :     3.230068  s :     3.230068
      pz      :     1.088259  p :     2.963468
      px      :     0.985468
      py      :     0.889741
      dz2     :     0.005342  d :     0.080413
      dxz     :     0.007571
      dyz     :     0.016930
      dx2y2   :     0.027636
      dxy     :     0.022935
      f0      :     0.001628  f :     0.007439
      f+1     :     0.000707
      f-1     :     0.000694
      f+2     :     0.000694
      f-2     :     0.000529
      f+3     :     0.002086
      f-3     :     0.001101

  6 C s       :     2.990397  s :     2.990397
      pz      :     0.854423  p :     2.499582
      px      :     0.794481
      py      :     0.850678
      dz2     :     0.005053  d :     0.157090
      dxz     :     0.041916
      dyz     :     0.032200
      dx2y2   :     0.040912
      dxy     :     0.037010
      f0      :     0.002293  f :     0.013487
      f+1     :     0.001022
      f-1     :     0.000852
      f+2     :     0.001339
      f-2     :     0.001995
      f+3     :     0.004185
      f-3     :     0.001799

  7 C s       :     3.288663  s :     3.288663
      pz      :     1.104541  p :     2.978628
      px      :     0.880591
      py      :     0.993496
      dz2     :     0.005155  d :     0.072660
      dxz     :     0.019427
      dyz     :     0.004945
      dx2y2   :     0.020728
      dxy     :     0.022406
      f0      :     0.001671  f :     0.007635
      f+1     :     0.000763
      f-1     :     0.000742
      f+2     :     0.000290
      f-2     :     0.000954
      f+3     :     0.002059
      f-3     :     0.001156

  8 N s       :     3.448962  s :     3.448962
      pz      :     1.704246  p :     3.952128
      px      :     1.122931
      py      :     1.124951
      dz2     :     0.003109  d :     0.039513
      dxz     :     0.009167
      dyz     :     0.007116
      dx2y2   :     0.011427
      dxy     :     0.008695
      f0      :     0.000714  f :     0.002882
      f+1     :     0.000390
      f-1     :     0.000298
      f+2     :     0.000197
      f-2     :     0.000211
      f+3     :     0.000467
      f-3     :     0.000604

  9 H s       :     0.859350  s :     0.859350
      pz      :     0.010022  p :     0.019639
      px      :     0.002931
      py      :     0.006687

 10 H s       :     0.858162  s :     0.858162
      pz      :     0.010056  p :     0.019644
      px      :     0.002928
      py      :     0.006660

 11 H s       :     0.845023  s :     0.845023
      pz      :     0.004215  p :     0.020464
      px      :     0.008486
      py      :     0.007762

 12 H s       :     0.856263  s :     0.856263
      pz      :     0.005622  p :     0.023049
      px      :     0.010668
      py      :     0.006759

 13 H s       :     0.864805  s :     0.864805
      pz      :     0.004368  p :     0.021849
      px      :     0.003604
      py      :     0.013877

 14 H s       :     0.875049  s :     0.875049
      pz      :     0.005331  p :     0.022195
      px      :     0.011364
      py      :     0.005500

 15 H s       :     0.873019  s :     0.873019
      pz      :     0.005292  p :     0.022235
      px      :     0.003268
      py      :     0.013675

 16 H s       :     0.737286  s :     0.737286
      pz      :     0.013267  p :     0.037039
      px      :     0.015803
      py      :     0.007969

 17 H s       :     0.736480  s :     0.736480
      pz      :     0.013168  p :     0.037014
      px      :     0.005649
      py      :     0.018198


------------------------
MULLIKEN OVERLAP CHARGES
------------------------
B(  0-C ,  1-O ) :   0.5235 B(  0-C ,  2-C ) :  -0.1602 B(  0-C ,  9-H ) :   0.8298 
B(  0-C , 10-H ) :   0.8320 B(  0-C , 11-H ) :   0.8066 B(  1-O ,  2-C ) :   0.8462 
B(  1-O ,  3-C ) :  -0.2020 B(  1-O ,  7-C ) :  -0.1439 B(  1-O ,  9-H ) :  -0.0835 
B(  1-O , 10-H ) :  -0.0836 B(  1-O , 11-H ) :  -0.0612 B(  2-C ,  3-C ) :   0.3302 
B(  2-C ,  4-C ) :   0.2844 B(  2-C ,  5-C ) :  -0.2516 B(  2-C ,  6-C ) :   0.0767 
B(  2-C ,  7-C ) :   0.7782 B(  2-C , 12-H ) :  -0.1313 B(  2-C , 15-H ) :  -0.0628 
B(  3-C ,  4-C ) :   0.5413 B(  3-C ,  5-C ) :   0.1612 B(  3-C ,  6-C ) :  -0.2578 
B(  3-C ,  7-C ) :   0.1492 B(  3-C , 12-H ) :   0.8810 B(  3-C , 13-H ) :  -0.0781 
B(  4-C ,  5-C ) :   0.9005 B(  4-C ,  6-C ) :   0.0592 B(  4-C ,  7-C ) :  -0.2114 
B(  4-C , 12-H ) :  -0.0732 B(  4-C , 13-H ) :   0.8336 B(  5-C ,  6-C ) :   0.8850 
B(  5-C ,  7-C ) :   0.0538 B(  5-C ,  8-N ) :  -0.0970 B(  5-C , 13-H ) :  -0.0868 
B(  5-C , 14-H ) :   0.8333 B(  6-C ,  7-C ) :   0.9342 B(  6-C ,  8-N ) :   0.6303 
B(  6-C , 14-H ) :  -0.1143 B(  6-C , 15-H ) :  -0.1280 B(  6-C , 16-H ) :  -0.0688 
B(  6-C , 17-H ) :  -0.0612 B(  7-C ,  8-N ) :  -0.1063 B(  7-C , 15-H ) :   0.8239 
B(  8-N , 16-H ) :   0.7537 B(  8-N , 17-H ) :   0.7541 B(  9-H , 10-H ) :  -0.1086 
B( 16-H , 17-H ) :  -0.0645 


                     *******************************
                     * LOEWDIN POPULATION ANALYSIS *
                     *******************************

----------------------
LOEWDIN ATOMIC CHARGES
----------------------
   0 C :   -0.314011
   1 O :    0.211511
   2 C :   -0.237851
   3 C :   -0.171966
   4 C :   -0.137605
   5 C :   -0.156455
   6 C :   -0.237622
   7 C :   -0.118408
   8 N :   -0.049148
   9 H :    0.105373
  10 H :    0.105769
  11 H :    0.111448
  12 H :    0.141731
  13 H :    0.142726
  14 H :    0.137605
  15 H :    0.144703
  16 H :    0.161051
  17 H :    0.161149

-------------------------------
LOEWDIN REDUCED ORBITAL CHARGES
-------------------------------
  0 C s       :     2.860640  s :     2.860640
      pz      :     1.102686  p :     3.020640
      px      :     0.875104
      py      :     1.042850
      dz2     :     0.047497  d :     0.380185
      dxz     :     0.059327
      dyz     :     0.091836
      dx2y2   :     0.063202
      dxy     :     0.118323
      f0      :     0.005832  f :     0.052546
      f+1     :     0.006126
      f-1     :     0.004664
      f+2     :     0.005783
      f-2     :     0.006348
      f+3     :     0.012963
      f-3     :     0.010830

  1 O s       :     3.256368  s :     3.256368
      pz      :     1.647092  p :     4.420174
      px      :     1.236178
      py      :     1.536904
      dz2     :     0.010192  d :     0.105687
      dxz     :     0.018770
      dyz     :     0.007203
      dx2y2   :     0.029069
      dxy     :     0.040453
      f0      :     0.000667  f :     0.006261
      f+1     :     0.000848
      f-1     :     0.000240
      f+2     :     0.000189
      f-2     :     0.000962
      f+3     :     0.002085
      f-3     :     0.001270

  2 C s       :     2.714650  s :     2.714650
      pz      :     0.835045  p :     2.746281
      px      :     0.876210
      py      :     1.035027
      dz2     :     0.044301  d :     0.682025
      dxz     :     0.120351
      dyz     :     0.111740
      dx2y2   :     0.180665
      dxy     :     0.224967
      f0      :     0.006533  f :     0.094894
      f+1     :     0.007393
      f-1     :     0.005893
      f+2     :     0.009762
      f-2     :     0.016051
      f+3     :     0.032842
      f-3     :     0.016421

  3 C s       :     2.754500  s :     2.754500
      pz      :     0.986921  p :     3.015778
      px      :     1.012910
      py      :     1.015948
      dz2     :     0.025536  d :     0.359669
      dxz     :     0.031266
      dyz     :     0.051118
      dx2y2   :     0.114120
      dxy     :     0.137629
      f0      :     0.003094  f :     0.042018
      f+1     :     0.003580
      f-1     :     0.004213
      f+2     :     0.006581
      f-2     :     0.002142
      f+3     :     0.014072
      f-3     :     0.008337

  4 C s       :     2.762217  s :     2.762217
      pz      :     0.861860  p :     2.922931
      px      :     1.072607
      py      :     0.988464
      dz2     :     0.024550  d :     0.408499
      dxz     :     0.107147
      dyz     :     0.012029
      dx2y2   :     0.164730
      dxy     :     0.100043
      f0      :     0.003140  f :     0.043958
      f+1     :     0.004297
      f-1     :     0.003103
      f+2     :     0.001604
      f-2     :     0.009084
      f+3     :     0.014700
      f-3     :     0.008029

  5 C s       :     2.755307  s :     2.755307
      pz      :     0.972589  p :     2.994885
      px      :     1.005448
      py      :     1.016848
      dz2     :     0.025535  d :     0.364481
      dxz     :     0.023734
      dyz     :     0.056303
      dx2y2   :     0.128031
      dxy     :     0.130877
      f0      :     0.003056  f :     0.041781
      f+1     :     0.003527
      f-1     :     0.004200
      f+2     :     0.004866
      f-2     :     0.003480
      f+3     :     0.014632
      f-3     :     0.008020

  6 C s       :     2.710387  s :     2.710387
      pz      :     0.812406  p :     2.801647
      px      :     0.965284
      py      :     1.023958
      dz2     :     0.037851  d :     0.646637
      dxz     :     0.134477
      dyz     :     0.105675
      dx2y2   :     0.173045
      dxy     :     0.195588
      f0      :     0.005879  f :     0.078950
      f+1     :     0.005723
      f-1     :     0.004899
      f+2     :     0.009204
      f-2     :     0.014050
      f+3     :     0.027008
      f-3     :     0.012187

  7 C s       :     2.751423  s :     2.751423
      pz      :     0.979606  p :     2.980687
      px      :     1.020480
      py      :     0.980601
      dz2     :     0.026061  d :     0.345233
      dxz     :     0.065706
      dyz     :     0.011854
      dx2y2   :     0.138892
      dxy     :     0.102720
      f0      :     0.003177  f :     0.041065
      f+1     :     0.004549
      f-1     :     0.003316
      f+2     :     0.001566
      f-2     :     0.006877
      f+3     :     0.013101
      f-3     :     0.008479

  8 N s       :     3.012677  s :     3.012677
      pz      :     1.567570  p :     3.885062
      px      :     1.167904
      py      :     1.149588
      dz2     :     0.006843  d :     0.140970
      dxz     :     0.024705
      dyz     :     0.018267
      dx2y2   :     0.054108
      dxy     :     0.037047
      f0      :     0.001190  f :     0.010438
      f+1     :     0.000945
      f-1     :     0.000602
      f+2     :     0.001495
      f-2     :     0.001762
      f+3     :     0.002564
      f-3     :     0.001881

  9 H s       :     0.833960  s :     0.833960
      pz      :     0.030437  p :     0.060667
      px      :     0.009542
      py      :     0.020688

 10 H s       :     0.833549  s :     0.833549
      pz      :     0.030538  p :     0.060682
      px      :     0.009531
      py      :     0.020613

 11 H s       :     0.828721  s :     0.828721
      pz      :     0.013235  p :     0.059831
      px      :     0.023012
      py      :     0.023583

 12 H s       :     0.796791  s :     0.796791
      pz      :     0.016557  p :     0.061478
      px      :     0.026797
      py      :     0.018124

 13 H s       :     0.800062  s :     0.800062
      pz      :     0.012564  p :     0.057212
      px      :     0.010828
      py      :     0.033820

 14 H s       :     0.803255  s :     0.803255
      pz      :     0.015608  p :     0.059140
      px      :     0.028207
      py      :     0.015325

 15 H s       :     0.795589  s :     0.795589
      pz      :     0.015664  p :     0.059708
      px      :     0.010259
      py      :     0.033785

 16 H s       :     0.730441  s :     0.730441
      pz      :     0.040337  p :     0.108509
      px      :     0.042305
      py      :     0.025866

 17 H s       :     0.730393  s :     0.730393
      pz      :     0.039947  p :     0.108458
      px      :     0.017591
      py      :     0.050919


---------------------------------
LOEWDIN BOND ORDERS (THRESH 0.050000)
---------------------------------
B(  0-C ,  1-O ) :   1.4336 B(  0-C ,  2-C ) :   0.1800 B(  0-C ,  3-C ) :   0.0558 
B(  0-C ,  9-H ) :   0.9352 B(  0-C , 10-H ) :   0.9350 B(  0-C , 11-H ) :   0.9373 
B(  1-O ,  2-C ) :   1.5348 B(  1-O ,  3-C ) :   0.1302 B(  1-O ,  7-C ) :   0.1578 
B(  1-O , 11-H ) :   0.0518 B(  2-C ,  3-C ) :   1.4902 B(  2-C ,  4-C ) :   0.2460 
B(  2-C ,  5-C ) :   0.0965 B(  2-C ,  6-C ) :   0.2365 B(  2-C ,  7-C ) :   1.4825 
B(  2-C , 12-H ) :   0.0914 B(  2-C , 15-H ) :   0.0966 B(  3-C ,  4-C ) :   1.5651 
B(  3-C ,  5-C ) :   0.2375 B(  3-C ,  6-C ) :   0.0928 B(  3-C ,  7-C ) :   0.2166 
B(  3-C , 12-H ) :   0.8205 B(  3-C , 13-H ) :   0.0958 B(  4-C ,  5-C ) :   1.6248 
B(  4-C ,  6-C ) :   0.2408 B(  4-C ,  7-C ) :   0.1037 B(  4-C , 12-H ) :   0.0951 
B(  4-C , 13-H ) :   0.8273 B(  4-C , 14-H ) :   0.0970 B(  5-C ,  6-C ) :   1.4406 
B(  5-C ,  7-C ) :   0.2179 B(  5-C ,  8-N ) :   0.1630 B(  5-C , 13-H ) :   0.0983 
B(  5-C , 14-H ) :   0.8294 B(  6-C ,  7-C ) :   1.4891 B(  6-C ,  8-N ) :   1.5212 
B(  6-C , 14-H ) :   0.0931 B(  6-C , 15-H ) :   0.0944 B(  6-C , 16-H ) :   0.0986 
B(  6-C , 17-H ) :   0.0979 B(  7-C ,  8-N ) :   0.1722 B(  7-C , 15-H ) :   0.8198 
B(  8-N , 16-H ) :   0.9338 B(  8-N , 17-H ) :   0.9341 

------------------------------------------
LOEWDIN REDUCED ORBITAL POPULATIONS PER MO
-------------------------------------------
THRESHOLD FOR PRINTING IS 0.1%%
                      0         1         2         3         4         5   
                 -21.69710 -16.52965 -12.10688 -12.09725 -12.09021 -12.05001
                   2.00000   2.00000   2.00000   2.00000   2.00000   2.00000
                  --------  --------  --------  --------  --------  --------
 0 C  s               0.0       0.0       0.0      99.7       0.0       0.0
 1 O  s              99.8       0.0       0.0       0.0       0.0       0.0
 2 C  s               0.0       0.0      98.8       0.0       0.0       0.0
 3 C  s               0.0       0.0       0.0       0.0       0.0       0.4
 3 C  dx2y2           0.0       0.0       0.2       0.0       0.0       0.1
 3 C  dxy             0.0       0.0       0.0       0.0       0.0       0.1
 4 C  s               0.0       0.0       0.0       0.0       0.0      98.1
 5 C  s               0.0       0.0       0.0       0.0       0.0       0.4
 5 C  dx2y2           0.0       0.0       0.0       0.0       0.2       0.0
 5 C  dxy             0.0       0.0       0.0       0.0       0.0       0.2
 6 C  s               0.0       0.0       0.0       0.0      98.8       0.0
 7 C  dxy             0.0       0.0       0.2       0.0       0.1       0.0
 8 N  s               0.0      99.6       0.0       0.0       0.0       0.0

                      6         7         8         9        10        11   
                 -12.03429 -12.03395 -12.03309  -1.70898  -1.48929  -1.36870
                   2.00000   2.00000   2.00000   2.00000   2.00000   2.00000
                  --------  --------  --------  --------  --------  --------
 0 C  s               0.0       0.0       0.0       4.9       0.0       1.0
 0 C  px              0.0       0.0       0.0       6.7       0.0       0.3
 0 C  py              0.0       0.0       0.0       2.1       0.0       0.2
 0 C  dz2             0.0       0.0       0.0       0.9       0.0       0.0
 0 C  dx2y2           0.0       0.0       0.0       0.7       0.0       0.0
 0 C  dxy             0.0       0.0       0.0       1.9       0.0       0.1
 0 C  f+1             0.0       0.0       0.0       0.2       0.0       0.0
 0 C  f-3             0.0       0.0       0.0       0.4       0.0       0.0
 1 O  s               0.0       0.0       0.0      53.5       0.0       0.6
 1 O  px              0.0       0.0       0.0       0.1       0.0       4.1
 1 O  py              0.0       0.0       0.0       1.2       0.0       0.2
 1 O  dz2             0.0       0.0       0.0       0.1       0.0       0.0
 1 O  dxy             0.0       0.0       0.0       0.0       0.0       0.2
 2 C  s               0.0       0.0       0.1       6.5       0.2      11.5
 2 C  px              0.0       0.0       0.1       7.5       0.4       3.6
 2 C  py              0.1       0.1       0.0       2.4       0.0       1.1
 2 C  dz2             0.0       0.0       0.1       1.2       0.0       0.4
 2 C  dx2y2           0.1       0.1       0.0       0.9       0.0       0.2
 2 C  dxy             0.0       0.0       0.2       2.4       0.0       0.1
 2 C  f+1             0.0       0.0       0.0       0.2       0.0       0.0
 2 C  f-3             0.0       0.0       0.1       0.5       0.0       0.1
 3 C  s              56.2      37.5       4.9       0.3       0.1      11.5
 3 C  px              0.0       0.0       0.0       0.2       0.1       2.4
 3 C  py              0.0       0.0       0.0       1.0       0.0       1.1
 3 C  dz2             0.0       0.0       0.0       0.1       0.0       0.6
 3 C  dxy             0.0       0.0       0.0       0.2       0.0       0.0
 3 C  f-3             0.0       0.0       0.0       0.0       0.0       0.1
 4 C  s               0.0       0.8       0.1       0.0       0.3      10.4
 4 C  px              0.1       0.0       0.0       0.0       0.1       0.1
 4 C  py              0.0       0.0       0.0       0.0       0.2       2.8
 4 C  dz2             0.0       0.1       0.0       0.0       0.0       0.5
 4 C  dxy             0.3       0.0       0.0       0.0       0.0       0.0
 5 C  s              42.7      51.1       4.7       0.0       1.7       7.4
 5 C  px              0.0       0.0       0.0       0.0       0.0       3.2
 5 C  py              0.0       0.0       0.0       0.0       2.3       0.1
 5 C  dz2             0.0       0.0       0.0       0.0       0.2       0.4
 5 C  dx2y2           0.0       0.0       0.0       0.0       0.4       0.0
 5 C  dxy             0.0       0.0       0.0       0.0       0.1       0.0
 6 C  s               0.0       0.0       0.1       0.0      14.0       3.6
 6 C  px              0.0       0.0       0.1       0.1       5.4       5.7
 6 C  py              0.0       0.1       0.0       0.0       2.4       2.1
 6 C  dz2             0.0       0.0       0.1       0.0       1.1       0.2
 6 C  dx2y2           0.1       0.2       0.0       0.0       0.3       0.0
 6 C  dxy             0.0       0.0       0.1       0.0       1.6       0.3
 6 C  f-3             0.0       0.0       0.1       0.0       0.3       0.0
 7 C  s               0.1       9.6      89.2       0.4       1.8       8.7
 7 C  px              0.0       0.0       0.0       1.3       2.3       0.3
 7 C  py              0.0       0.0       0.0       0.1       0.2       3.1
 7 C  dz2             0.0       0.0       0.0       0.1       0.2       0.4
 7 C  dx2y2           0.0       0.0       0.0       0.3       0.5       0.0
 7 C  f-3             0.0       0.0       0.0       0.0       0.0       0.1
 8 N  s               0.0       0.0       0.0       0.0      40.6       2.7
 8 N  pz              0.0       0.0       0.0       0.0       0.4       0.1
 8 N  px              0.0       0.0       0.0       0.0       1.1       0.5
 8 N  py              0.0       0.0       0.0       0.0       0.5       0.2
 8 N  dz2             0.0       0.0       0.0       0.0       0.2       0.0
 8 N  dxy             0.0       0.0       0.0       0.0       0.1       0.0
 9 H  s               0.0       0.0       0.0       0.4       0.0       0.1
10 H  s               0.0       0.0       0.0       0.4       0.0       0.1
11 H  s               0.0       0.0       0.0       0.5       0.0       0.2
12 H  s               0.0       0.0       0.0       0.1       0.0       1.3
13 H  s               0.0       0.0       0.0       0.0       0.0       1.2
14 H  s               0.0       0.0       0.0       0.0       0.2       0.8
15 H  s               0.0       0.0       0.0       0.1       0.2       1.0
16 H  s               0.0       0.0       0.0       0.0       8.5       0.8
16 H  pz              0.0       0.0       0.0       0.0       0.1       0.0
16 H  px              0.0       0.0       0.0       0.0       1.1       0.1
16 H  py              0.0       0.0       0.0       0.0       0.3       0.0
17 H  s               0.0       0.0       0.0       0.0       8.4       0.8
17 H  pz              0.0       0.0       0.0       0.0       0.1       0.0
17 H  py              0.0       0.0       0.0       0.0       1.3       0.1

                     12        13        14        15        16        17   
                  -1.28837  -1.25873  -1.21886  -1.11774  -1.10568  -1.04728
                   2.00000   2.00000   2.00000   2.00000   2.00000   2.00000
                  --------  --------  --------  --------  --------  --------
 0 C  s               8.4       0.2      17.2       0.2       5.9       2.8
 0 C  px              0.6       0.1       0.1       0.0       2.3       3.0
 0 C  py              0.5       0.1       0.1       1.2       1.8       6.2
 0 C  dz2             0.0       0.0       0.0       0.0       0.2       0.2
 0 C  dx2y2           0.0       0.0       0.1       0.1       0.0       0.1
 0 C  dxy             0.1       0.0       0.1       0.3       0.5       0.7
 0 C  f+3             0.0       0.0       0.0       0.0       0.1       0.2
 1 O  s               0.1       0.1       1.8       1.0       1.9       1.0
 1 O  px             18.4       0.6      12.8       1.2       2.1      13.2
 1 O  py              0.0       0.5       2.4       6.3       3.5       6.9
 1 O  dx2y2           0.0       0.0       0.0       0.1       0.2       0.0
 1 O  dxy             0.6       0.1       0.4       0.1       0.0       0.1
 2 C  s               8.4       1.2       1.2       1.4       2.9       0.2
 2 C  px              0.2       1.9       5.0       4.9       0.4       7.1
 2 C  py              2.5       8.1       3.2       7.7       3.3       2.9
 2 C  dx2y2           0.0       1.7       0.0       0.1       0.1       0.1
 2 C  dxy             0.2       0.4       1.8       0.0       0.6       0.1
 3 C  s               0.2      13.8       2.7       1.1       4.5       0.2
 3 C  px              2.0       0.4       0.6       5.7       0.1       0.0
 3 C  py              3.3       0.2       1.3       5.5       2.8       4.0
 3 C  dz2             0.0       0.2       0.0       0.0       0.0       0.0
 3 C  dx2y2           1.4       0.0       0.3       0.4       0.1       0.1
 3 C  dxy             0.1       0.5       0.2       0.0       0.0       1.0
 3 C  f-3             0.0       0.1       0.0       0.0       0.0       0.0
 4 C  s               9.7       4.9       1.7       6.9       0.0       2.5
 4 C  px              1.4       5.6       4.9       0.0      10.7       0.0
 4 C  py              0.6       0.1       0.1       1.1       0.1       2.6
 4 C  dz2             0.2       0.1       0.0       0.0       0.0       0.0
 4 C  dx2y2           0.1       0.3       0.0       0.0       0.0       0.0
 4 C  dxy             0.4       1.1       0.9       0.0       0.4       0.0
 5 C  s              10.8       2.0       6.9       1.2       3.9       0.5
 5 C  px              1.2       0.6       0.2       4.2       0.2       0.3
 5 C  py              0.4       4.7       0.5       7.6       2.4       1.6
 5 C  dz2             0.2       0.0       0.0       0.0       0.0       0.0
 5 C  dx2y2           0.0       1.2       0.0       0.4       0.1       0.0
 5 C  dxy             0.4       0.6       0.3       0.1       0.0       0.4
 5 C  f-3             0.1       0.0       0.1       0.0       0.0       0.0
 6 C  s               0.6      10.5       0.0       2.1       3.6       0.4
 6 C  px              0.5       4.0       2.2       5.3       0.0       0.7
 6 C  py              5.1       0.3       4.4       5.9       3.9       6.1
 6 C  dx2y2           1.2       0.0       0.9       0.2       0.0       0.1
 6 C  dxy             0.0       1.5       0.1       0.0       0.0       0.0
 7 C  s               4.1       8.4       4.6       6.2       0.1       0.0
 7 C  px              2.9       3.3       0.0       0.1      10.1       1.5
 7 C  py              0.2       0.3       0.3       1.2       0.1       2.4
 7 C  dx2y2           0.4       0.2       0.1       0.0       0.1       1.1
 7 C  dxy             0.7       1.1       0.3       0.0       0.3       0.0
 7 C  f+3             0.0       0.0       0.1       0.0       0.0       0.0
 8 N  s               0.2       3.1       0.0       0.4       0.6       0.1
 8 N  pz              0.0       0.1       0.0       0.1       0.3       0.3
 8 N  px              0.0       3.8       0.1       1.0       9.7      12.0
 8 N  py              0.3       1.3       0.2       6.2       1.1       0.1
 8 N  dx2y2           0.0       0.1       0.1       0.0       0.2       0.1
 8 N  dxy             0.0       0.2       0.0       0.3       0.2       0.2
 9 H  s               1.5       0.0       4.3       0.3       3.1       3.2
 9 H  pz              0.1       0.0       0.3       0.0       0.2       0.3
 9 H  py              0.1       0.0       0.2       0.0       0.1       0.0
10 H  s               1.5       0.0       4.3       0.3       3.1       3.2
10 H  pz              0.1       0.0       0.3       0.0       0.2       0.3
10 H  py              0.1       0.0       0.2       0.0       0.1       0.0
11 H  s               1.8       0.1       4.7       0.0       2.3       0.8
11 H  px              0.2       0.0       0.3       0.0       0.0       0.0
11 H  py              0.1       0.0       0.2       0.0       0.2       0.2
12 H  s               0.1       2.5       0.7       0.6       1.9       0.1
12 H  px              0.0       0.2       0.0       0.0       0.2       0.0
12 H  py              0.0       0.1       0.0       0.2       0.0       0.0
13 H  s               1.5       0.9       0.4       3.0       0.0       2.6
13 H  py              0.2       0.1       0.1       0.3       0.0       0.2
14 H  s               1.6       0.3       1.6       0.6       1.8       0.1
14 H  px              0.2       0.0       0.2       0.0       0.2       0.0
14 H  py              0.0       0.0       0.0       0.1       0.0       0.0
15 H  s               0.7       1.4       0.7       2.9       0.0       0.3
15 H  py              0.1       0.2       0.1       0.3       0.0       0.0
16 H  s               0.1       1.9       0.0       0.1       2.8       3.9
16 H  px              0.0       0.1       0.0       0.0       0.1       0.1
16 H  py              0.0       0.1       0.0       0.1       0.2       0.2
17 H  s               0.2       1.7       0.0       2.4       1.0       0.1
17 H  px              0.0       0.0       0.0       0.0       0.1       0.2
17 H  py              0.0       0.2       0.0       0.1       0.0       0.0

                     18        19        20        21        22        23   
                  -1.01248  -0.97508  -0.97075  -0.97035  -0.93979  -0.91536
                   2.00000   2.00000   2.00000   2.00000   2.00000   2.00000
                  --------  --------  --------  --------  --------  --------
 0 C  s               0.9       0.2       0.0       1.1       0.1       0.3
 0 C  pz              0.0       0.0      14.0       0.4       0.0       0.0
 0 C  px              3.7       1.2       0.2      10.1       0.2       4.8
 0 C  py              0.1       2.1       0.0       0.3       0.1       0.1
 0 C  dxz             0.0       0.0       1.6       0.0       0.0       0.0
 0 C  dyz             0.0       0.0       0.2       0.0       0.0       0.0
 0 C  dx2y2           0.3       0.0       0.0       0.5       0.0       0.1
 0 C  f0              0.0       0.0       0.2       0.0       0.0       0.0
 0 C  f-2             0.0       0.0       0.2       0.0       0.0       0.0
 1 O  s               0.4       0.0       0.0       1.2       0.0       0.7
 1 O  pz              0.0       0.2      62.6       1.8       0.0       0.0
 1 O  px              0.5       4.7       0.0       1.7       0.2       1.3
 1 O  py              9.6       0.0       0.8      26.1       0.8      11.2
 1 O  dx2y2           0.1       0.0       0.0       0.0       0.0       0.2
 1 O  dxy             0.0       0.0       0.0       0.0       0.0       0.2
 2 C  s               0.0       1.7       0.0       0.1       0.4       0.1
 2 C  pz              0.0       0.0       7.8       0.2       0.0       0.0
 2 C  px              2.4       3.1       0.1       0.8       0.2       2.2
 2 C  py              5.0       0.8       0.0       0.1       0.1       6.9
 2 C  dxz             0.0       0.0       2.3       0.1       0.0       0.0
 2 C  dyz             0.0       0.0       0.7       0.0       0.0       0.0
 2 C  dx2y2           0.6       0.2       0.1       1.4       0.9       0.7
 2 C  dxy             0.1       0.5       0.0       1.0       1.7       0.3
 2 C  f0              0.0       0.0       0.2       0.0       0.0       0.0
 2 C  f-2             0.0       0.0       0.3       0.0       0.0       0.0
 2 C  f+3             0.0       0.1       0.0       0.3       0.0       0.5
 3 C  s               0.1       0.4       0.0       0.3       2.6       0.1
 3 C  pz              0.0       0.0       0.3       0.0       0.0       0.0
 3 C  px              1.6       0.1       0.0       0.0      12.7       4.1
 3 C  py              4.1       6.6       0.0       0.2       3.7       6.0
 3 C  dyz             0.0       0.0       0.3       0.0       0.0       0.0
 3 C  dx2y2           0.0       0.3       0.0       0.0       0.0       0.1
 3 C  dxy             0.0       0.0       0.0       0.3       0.5       0.1
 4 C  s               0.2       0.1       0.0       0.5       0.9       0.0
 4 C  px              5.6       5.9       0.0       0.2       0.0       9.6
 4 C  py              0.5       0.4       0.0       1.6       2.3       0.2
 4 C  dz2             0.0       0.0       0.0       0.0       0.1       0.0
 4 C  dx2y2           0.0       0.0       0.0       0.0       1.6       0.0
 4 C  dxy             0.1       0.2       0.0       0.0       0.0       0.1
 4 C  f+3             0.0       0.2       0.0       0.0       0.0       0.0
 5 C  s               0.5       0.1       0.0       0.3       2.7       0.0
 5 C  px              0.9       0.5       0.0       0.2      13.6       2.7
 5 C  py              1.8      10.0       0.0       0.6       1.4       7.1
 5 C  dxy             0.3       0.8       0.0       0.1       0.5       0.0
 6 C  s               0.0       0.6       0.0       0.0       0.4       0.0
 6 C  pz              0.0       0.3       0.0       0.0       0.0       0.0
 6 C  px              5.5      10.8       0.1       0.4       0.1       3.1
 6 C  py              1.0       5.2       0.0       0.5       0.0       6.0
 6 C  dx2y2           1.5       0.1       0.0       1.1       0.5       0.4
 6 C  dxy             0.1       0.7       0.0       0.6       2.1       0.1
 6 C  f+3             0.1       0.0       0.0       0.3       0.0       0.4
 7 C  s               0.1       0.0       0.0       1.3       2.0       0.0
 7 C  pz              0.0       0.0       0.3       0.0       0.0       0.0
 7 C  px              6.5       6.2       0.1       0.7       0.1      11.0
 7 C  py              0.1       0.2       0.0       1.1       9.2       0.2
 7 C  dxz             0.0       0.0       0.3       0.0       0.0       0.0
 7 C  dx2y2           0.0       0.0       0.0       0.1       0.4       0.0
 7 C  dxy             0.1       1.9       0.0       0.0       0.0       0.1
 7 C  f+3             0.0       0.3       0.0       0.0       0.0       0.0
 8 N  s               0.0       0.2       0.0       0.0       0.1       0.0
 8 N  pz              0.1       1.2       0.0       0.0       0.1       0.0
 8 N  px              1.3      15.4       0.5       7.0       0.1       2.5
 8 N  py             25.1       3.3       0.2      11.4       0.8       4.8
 8 N  dyz             0.2       0.0       0.0       0.2       0.0       0.1
 8 N  dx2y2           0.1       0.0       0.0       0.6       0.1       1.1
 8 N  dxy             0.0       0.2       0.0       0.2       0.0       0.2
 9 H  s               0.5       0.9       2.5       0.4       0.0       0.3
 9 H  px              0.0       0.0       0.0       0.1       0.0       0.1
 9 H  py              0.0       0.0       0.2       0.0       0.0       0.0
10 H  s               0.5       0.6       1.9       1.2       0.0       0.3
10 H  px              0.0       0.0       0.0       0.1       0.0       0.1
10 H  py              0.0       0.0       0.2       0.0       0.0       0.0
11 H  s               1.7       0.1       0.1       4.0       0.0       1.5
11 H  pz              0.0       0.0       0.1       0.0       0.0       0.0
11 H  py              0.1       0.0       0.0       0.2       0.0       0.1
12 H  s               0.1       1.8       0.0       0.0      13.2       0.2
12 H  px              0.0       0.1       0.0       0.0       0.3       0.0
12 H  py              0.0       0.0       0.0       0.0       0.2       0.1
13 H  s               0.3       0.5       0.0       1.4       0.2       0.0
13 H  px              0.1       0.1       0.0       0.0       0.0       0.2
14 H  s               0.1       1.6       0.0       0.1      12.1       0.1
14 H  px              0.0       0.2       0.0       0.0       0.4       0.0
14 H  py              0.0       0.0       0.0       0.0       0.1       0.1
15 H  s               0.1       0.1       0.0       1.4       8.3       0.1
15 H  px              0.1       0.1       0.0       0.0       0.0       0.1
15 H  py              0.0       0.0       0.0       0.1       0.3       0.0
16 H  s               3.3       3.7       0.3       6.8       0.1       3.4
16 H  px              0.2       0.0       0.0       0.2       0.0       0.0
16 H  py              0.1       0.3       0.0       0.0       0.0       0.0
17 H  s              10.1       1.4       0.1       5.5       0.5       3.0
17 H  pz              0.1       0.0       0.0       0.1       0.0       0.0
17 H  px              0.0       0.3       0.0       0.1       0.0       0.0
17 H  py              0.3       0.0       0.0       0.1       0.0       0.0

                     24        25        26        27        28        29   
                  -0.87534  -0.83940  -0.82938  -0.82429  -0.81493  -0.80933
                   2.00000   2.00000   2.00000   2.00000   2.00000   2.00000
                  --------  --------  --------  --------  --------  --------
 0 C  pz              0.0       0.1       0.4      18.5      20.1       1.2
[...]
 1 O  f0              0.0       7.1       0.0       0.1       0.0       0.0
 1 O  f+1             5.0       0.0       0.0       0.0       1.1       0.1
 1 O  f-1             0.1       0.0       4.6       0.0       0.1       0.2
 1 O  f+2             0.0       0.1       0.0       0.2       0.0       0.0
 1 O  f-2             0.0       0.0       0.0      12.4       0.0       0.0
 1 O  f+3            45.4       0.0       1.6       0.0       6.4       3.6
 1 O  f-3             0.0       0.0       1.4       0.0       1.7       5.1
 2 C  s               0.3       0.0       0.8       0.0       1.0       0.5
 2 C  pz              0.0       0.4       0.0       0.5       0.0       0.0
 2 C  px              0.5       0.0       0.7       0.0       1.0       0.1
 2 C  py              0.1       0.0       0.2       0.0       0.5       0.3
 2 C  dxz             0.0       0.6       0.0       0.7       0.0       0.0
 2 C  dyz             0.0       0.0       0.0       0.5       0.0       0.0
 2 C  dx2y2           0.2       0.0       0.3       0.0       0.3       1.9
 2 C  dxy             0.6       0.0       1.5       0.0       0.4       0.4
 2 C  f0              0.0       0.1       0.0       0.2       0.0       0.0
 2 C  f+1             0.0       0.0       0.1       0.0       0.1       0.0
 2 C  f-1             0.1       0.0       0.0       0.0       0.1       0.0
 2 C  f+2             0.0       0.3       0.0       0.1       0.0       0.0
 2 C  f-2             0.0       0.1       0.0       0.4       0.0       0.0
 2 C  f+3            15.8       0.0       0.8       0.0       0.8       0.9
 2 C  f-3             0.5       0.0       0.1       0.0       0.6       0.0
 3 C  s               0.2       0.0       0.2       0.0       0.5       0.1
 3 C  px              0.9       0.0       0.1       0.0       0.0       0.0
 3 C  py              0.1       0.0       0.0       0.0       0.1       0.3
 3 C  dx2y2           0.4       0.0       0.0       0.0       0.0       0.1
 3 C  dxy             1.3       0.0       0.2       0.0       0.1       0.1
 3 C  f+3             2.2       0.0       0.0       0.0       0.3       0.0
 4 C  px              0.1       0.0       0.0       0.0       0.0       0.1
 4 C  dxy             0.2       0.0       0.0       0.0       0.0       0.0
 4 C  f+3             0.3       0.0       0.0       0.0       0.0       0.0
 4 C  f-3             0.1       0.0       0.0       0.0       0.0       0.0
 5 C  py              0.1       0.0       0.0       0.0       0.0       0.0
 5 C  f+3             0.2       0.0       0.0       0.0       0.0       0.0
 6 C  s               0.2       0.0       0.0       0.0       0.1       0.1
 6 C  dx2y2           0.2       0.0       0.0       0.0       0.0       0.0
 6 C  f+3             0.3       0.0       0.0       0.0       0.0       0.0
 6 C  f-3             0.2       0.0       0.0       0.0       0.0       0.0
 7 C  s               0.4       0.0       0.1       0.0       0.2       0.2
 7 C  px              0.2       0.0       0.1       0.0       0.0       0.0
 7 C  py              0.0       0.0       0.0       0.0       0.1       0.2
 7 C  dx2y2           1.1       0.0       0.1       0.0       0.0       0.1
 7 C  f+3             1.1       0.0       0.0       0.0       0.0       0.0
 7 C  f-3             0.8       0.0       0.0       0.0       0.0       0.1
 8 N  dx2y2           0.2       0.0       0.0       0.0       0.0       0.0
 8 N  f-3             0.1       0.0       0.0       0.0       0.0       0.0
11 H  s               0.4       0.0       0.0       0.0       0.0       0.0

                    324       325       326       327       328       329   
                  20.62690  20.75624  21.05568  21.11485  21.17702  21.34176
                   0.00000   0.00000   0.00000   0.00000   0.00000   0.00000
                  --------  --------  --------  --------  --------  --------
 0 C  s               9.7      87.3       0.3       0.2       0.0       0.2
 1 O  s               0.2       0.1       0.0       0.1       0.0       0.1
 1 O  px              0.0       0.2       0.0       0.0       0.0       0.1
 1 O  dxy             0.0       0.1       0.0       0.0       0.0       0.1
 2 C  s              10.1       0.2       1.9      11.8       0.5      44.1
 2 C  px              0.1       0.0       0.0       0.1       0.1       0.0
 2 C  py              0.1       0.0       0.2       0.2       0.2       0.0
 3 C  s              15.3       4.1      51.9       1.3      14.3       0.5
 3 C  px              0.1       0.1       0.0       0.1       0.0       0.0
 3 C  py              0.0       0.0       0.0       0.3       0.0       0.0
 3 C  dx2y2           0.0       0.0       0.0       0.1       0.0       0.0
 4 C  s              23.0       3.0       1.6      51.0      13.8       0.0
 4 C  px              0.0       0.0       0.6       0.0       0.0       0.0
 4 C  dxy             0.0       0.0       0.2       0.0       0.0       0.0
 5 C  s              16.0       1.1      41.8       0.2      27.7       1.4
 5 C  px              0.1       0.0       0.0       0.1       0.0       0.0
 5 C  py              0.0       0.0       0.0       0.4       0.0       0.1
 6 C  s               6.9       0.5       0.2       7.5       3.4      51.1
 6 C  px              0.2       0.0       0.0       0.2       0.1       0.0
 6 C  py              0.1       0.0       0.2       0.1       0.2       0.0
 6 C  dx2y2           0.0       0.0       0.1       0.1       0.2       0.0
 7 C  s              16.6       1.8       0.1      25.3      38.6       0.7
 7 C  px              0.0       0.0       0.2       0.0       0.0       0.5
 7 C  dxy             0.0       0.0       0.1       0.0       0.0       0.2
 8 N  s               0.3       0.0       0.0       0.1       0.0       0.1
 8 N  px              0.1       0.0       0.0       0.0       0.0       0.1
 9 H  s               0.0       0.2       0.0       0.0       0.0       0.0
10 H  s               0.0       0.2       0.0       0.0       0.0       0.0
11 H  s               0.0       0.2       0.0       0.0       0.0       0.0
12 H  s               0.1       0.0       0.1       0.0       0.0       0.0
13 H  s               0.1       0.0       0.0       0.1       0.0       0.0

                    330       331       332   
                  21.67954  30.07214  41.84812
                   0.00000   0.00000   0.00000
                  --------  --------  --------
 0 C  s               0.3       0.0       0.1
 1 O  s               0.1       0.0      99.7
 1 O  px              0.1       0.0       0.0
 2 C  s              29.1       0.0       0.0
 3 C  s              10.6       0.0       0.0
 4 C  s               5.5       0.0       0.0
 5 C  s               9.7       0.0       0.0
 6 C  s              28.1       0.1       0.0
 7 C  s              14.8       0.0       0.0
 8 N  s               0.1      99.4       0.0


                      *****************************
                      * MAYER POPULATION ANALYSIS *
                      *****************************

  NA   - Mulliken gross atomic population
  ZA   - Total nuclear charge
  QA   - Mulliken gross atomic charge
  VA   - Mayer's total valence
  BVA  - Mayer's bonded valence
  FA   - Mayer's free valence

  ATOM       NA         ZA         QA         VA         BVA        FA
  0 C      6.2110     6.0000    -0.2110     3.8976     3.8976    -0.0000
  1 O      8.2512     8.0000    -0.2512     2.1222     2.1222     0.0000
  2 C      5.6745     6.0000     0.3255     3.9663     3.9663     0.0000
  3 C      6.3034     6.0000    -0.3034     3.9021     3.9021     0.0000
  4 C      6.0984     6.0000    -0.0984     4.0153     4.0153     0.0000
  5 C      6.2814     6.0000    -0.2814     4.0386     4.0386     0.0000
  6 C      5.6606     6.0000     0.3394     3.8133     3.8133     0.0000
  7 C      6.3476     6.0000    -0.3476     4.0134     4.0134     0.0000
  8 N      7.4435     7.0000    -0.4435     3.0192     3.0192    -0.0000
  9 H      0.8790     1.0000     0.1210     0.9619     0.9619     0.0000
 10 H      0.8778     1.0000     0.1222     0.9619     0.9619    -0.0000
 11 H      0.8655     1.0000     0.1345     0.9717     0.9717    -0.0000
 12 H      0.8793     1.0000     0.1207     0.9865     0.9865     0.0000
 13 H      0.8867     1.0000     0.1133     0.9713     0.9713    -0.0000
 14 H      0.8972     1.0000     0.1028     0.9838     0.9838     0.0000
 15 H      0.8953     1.0000     0.1047     1.0034     1.0034     0.0000
 16 H      0.7743     1.0000     0.2257     0.9510     0.9510    -0.0000
 17 H      0.7735     1.0000     0.2265     0.9511     0.9511    -0.0000

  Mayer bond orders larger than 0.100000
B(  0-C ,  1-O ) :   0.9503 B(  0-C ,  9-H ) :   0.9725 B(  0-C , 10-H ) :   0.9727 
B(  0-C , 11-H ) :   0.9788 B(  1-O ,  2-C ) :   1.1398 B(  2-C ,  3-C ) :   1.3351 
B(  2-C ,  7-C ) :   1.4464 B(  3-C ,  4-C ) :   1.4055 B(  3-C , 12-H ) :   0.9629 
B(  4-C ,  5-C ) :   1.5227 B(  4-C , 13-H ) :   0.9649 B(  5-C ,  6-C ) :   1.3423 
B(  5-C , 14-H ) :   0.9671 B(  6-C ,  7-C ) :   1.3985 B(  6-C ,  8-N ) :   1.0750 
B(  7-C , 15-H ) :   0.9606 B(  8-N , 16-H ) :   0.9290 B(  8-N , 17-H ) :   0.9293 


-------
TIMINGS
-------

Total SCF time: 0 days 0 hours 3 min 27 sec 

Total time                  ....     207.916 sec
Sum of individual times     ....     204.289 sec  ( 98.3%)

SCF preparation             ....       0.247 sec  (  0.1%)
Fock matrix formation       ....     202.426 sec  ( 97.4%)
  Startup                   ....       0.060 sec  (  0.0% of F)
  Split-RI-J                ....       8.908 sec  (  4.4% of F)
  Chain of spheres X        ....     175.413 sec  ( 86.7% of F)
  XC integration            ....      20.527 sec  ( 10.1% of F)
    XC Preparation          ....       0.000 sec  (  0.0% of XC)
    Basis function eval.    ....       4.552 sec  ( 22.2% of XC)
    Density eval.           ....       3.946 sec  ( 19.2% of XC)
    XC-Functional eval.     ....       4.333 sec  ( 21.1% of XC)
    XC-Potential eval.      ....       6.848 sec  ( 33.4% of XC)
Diagonalization             ....       0.000 sec  (  0.0%)
Density matrix formation    ....       0.244 sec  (  0.1%)
Total Energy calculation    ....       0.049 sec  (  0.0%)
Population analysis         ....       0.225 sec  (  0.1%)
Orbital Transformation      ....       0.092 sec  (  0.0%)
Orbital Orthonormalization  ....       0.000 sec  (  0.0%)
DIIS solution               ....       0.420 sec  (  0.2%)
  MO trafo                  ....       0.000 sec  (  0.0 % of DIIS)
  Orb grad                  ....       0.000 sec  (  0.0 % of DIIS)
  Energy W gradient         ....       0.000 sec  (  0.0 % of DIIS)
  DIIS error                ....       0.019 sec  (  4.6 % of DIIS)
  DIIS work                 ....       0.344 sec  ( 82.0 % of DIIS)
  Form Q                    ....       0.000 sec  (  0.0 % of DIIS)
  Form QpQm                 ....       0.000 sec  (  0.0 % of DIIS)
  Exp/Cayley                ....       0.000 sec  (  0.0 % of DIIS)
  Orb update                ....       0.000 sec  (  0.0 % of DIIS)
  Wake-sleep                ....       0.011 sec  (  2.7 % of DIIS)
SOSCF solution              ....       0.344 sec  (  0.2%)
  MO trafo                  ....       0.108 sec  ( 31.4 % of SOSCF)
  Orb grad                  ....       0.004 sec  (  1.1 % of SOSCF)
  Rot update                ....       0.122 sec  ( 35.5 % of SOSCF)
  Step                      ....       0.110 sec  ( 32.0 % of SOSCF)
Grid generation             ....       0.243 sec  (  0.1%)
Finished LeanSCF after 208.0 sec

Maximum memory used throughout the entire LEANSCF-calculation: 45.3 MB
------------------   -----------------
gCP correction             0.010546658
------------------   -----------------

-------------------------   --------------------
FINAL SINGLE POINT ENERGY      -402.149848933370
-------------------------   --------------------


------------------------------------------------------------------------------
                              ORCA PROPERTY CALCULATIONS
------------------------------------------------------------------------------

GBWName                                 ... sp_gas.gbw
Number of atoms                         ...     18
Number of basis functions               ...    333
Max core memory                         ...   1024 MB

Electric properties:
Dipole moment                           ... YES
Quadrupole moment                       ...  NO
Static polarizability (Dipole/Dipole)   ...  NO
Static polarizability (Dipole/Quad.)    ...  NO
Static polarizability (Quad./Quad.)     ...  NO
Static polarizability (Velocity)        ...  NO

Atomic electric properties:
Dipole moment                           ...  NO
Quadrupole moment                       ...  NO
Static polarizability                   ...  NO

Choice of electric origin               ... Center of mass
Position of electric origin             ...     0.001513    -0.011752     0.017288

General magnetic properties:
Magnetizability                         ...  NO

EPR properties:
g-Tensor (aka g-matrix)                 ...  NO
Zero-Field splitting spin-orbit         ...  NO
Zero-field splitting spin-spin          ...  NO
Hyperfine couplings                     ...  NO (   0 nuclei)
Quadrupole couplings                    ...  NO (   0 nuclei)
Contact density                         ...  NO (   0 nuclei)

NMR properties:
Chemical shifts                         ...  NO (   0 nuclei)
Spin-rotation constants                 ...  NO (   0 nuclei)
Spin-spin couplings                     ...  NO (   0 nuclei,    0 pairs)

Choice of magnetic origin               ... GIAO
Position of magnetic origin             ...     0.000000     0.000000     0.000000

Properties with geometric perturbations:
SCF Hessian                             ...  NO
IR spectrum                             ...  NO
VCD spectrum                            ...  NO
X-ray spectroscopy properties:
SCF XES/XAS/RIXS spectra                ...  NO


-------------
DIPOLE MOMENT
-------------

Method             : SCF
Type of density    : Electron Density
Multiplicity       :   1
Irrep              :   0
Energy             :  -402.1603955912702304 Eh
Relativity type    : 
Basis              : AO
                                X                 Y                 Z
Electronic contribution:      2.182645925      -1.290365652       0.178558918
Nuclear contribution   :     -2.130041392       1.390128353      -0.569796941
                        -----------------------------------------
Total Dipole Moment    :      0.052604534       0.099762701      -0.391238023
                        -----------------------------------------
Magnitude (a.u.)       :      0.407169527
Magnitude (Debye)      :      1.034942690



--------------------
Rotational spectrum 
--------------------
 
Rotational constants in cm-1:             0.120455             0.037602             0.028838 
Rotational constants in MHz :          3611.164700          1127.279620           864.544462 

Dipole components along the rotational axes: 
x,y,z [a.u.] :    -0.050472     0.102006    -0.390940 
x,y,z [Debye]:    -0.128289     0.259279    -0.993691 

 

Dipole moment calculation done in   0.0 sec 

Maximum memory used throughout the entire PROP-calculation: 28.6 MB

--------------------------------
SUGGESTED CITATIONS FOR THIS RUN
--------------------------------

Below you find a list of papers that are relevant to this ORCA run
We neither can nor want to force you to cite these papers, but we appreciate if you do
You receive ORCA, which is the product of decades of hard work by many enthusiastic individuals, for free
The only thing we kindly ask in return is that you cite our papers,
We deeply appreciate it, if you show your appreciation for ORCA by not just citing the generic ORCA reference.

Please note that relegating all ORCA citations to the supporting information does *not* help us.
SI sections are not indexed - citations you put there will not count into any citation statistics
But we need these citations in order to attract the funding resources that allow us to do what we are doing

Therefore, if you are a happy ORCA user, please consider citing a few of the papers listed below in the main body of your paper

In addition to the list printed below, the program has created the file sp_gas.bibtex that contains the list in bibtex format
You can import this file easily into all common literature databanks and citation aid programs


List of essential papers. We consider these as the minimum necessary citations

  1. Neese,F.
     Software update: the ORCA program system, version 5.0
     WIRES Comput. Molec. Sci., 2022 12(1)e1606
     doi.org/10.1002/wcms.1606

List of papers to cite with high priority. The work reported in these papers was absolutely
necessary for this run to complete.
Our perspective: the developers of density functionals and basis sets usually get cited in chemistry papers
Good! But without the algorithms to do something with them, the functionals or basis sets would not do anything.
Hence, in our opinion, the algorithm design and method developments papers are equally worthy of getting cited

  1. Neese,F.
     An improvement of the resolution of the identity approximation for the formation of the Coulomb matrix
     J. Comp. Chem., 2003 24(14)1740-1747
     doi.org/10.1002/jcc.10318
  2. Neese,F.; Wennmohs,F.; Hansen,A.; Becker,U.
     Efficient, approximate and parallel Hartree-Fock and hybrid DFT calculations. A 'chain-of-spheres' algorithm for the Hartree-Fock exchange
     Chem. Phys., 2009 356(1-3)98-109
     doi.org/10.1016/j.chemphys.2008.10.036
  3. Helmich-Paris,B.; de Souza,B.; Neese,F.; Izsák,R.
     An improved chain of spheres for exchange algorithm
     J. Chem. Phys., 2021 155 104109
     doi.org/doi: 10.1063/5.0058766.
  4. Neese,F.
     The SHARK Integral Generation and Digestion System
     J. Comp. Chem., 2022  1-16
     doi.org/10.1002/jcc.26942

List of suggested additional citations. These are papers that are important in the 'surrounding' of 
of this run, or papers that preceded the highly important papers. If you like your results we are grateful for a citation.

  1. Izsak,R.; Neese,F.
     An overlap fitted chain of spheres exchange method
     J. Chem. Phys., 2011 135 144105
     doi.org/10.1063/1.3646921
  2. Izsak,R.; Hansen,A.; Neese,F.
     The resolution of identity and chain of spheres approximations for the LPNO-CCSD singles Fock term
     Molec. Phys., 2012 110 2413-2417
     doi.org/10.1080/00268976.2012.687466
  3. Neese,F.
     The ORCA program system
     WIRES Comput. Molec. Sci., 2012 2(1)73-78
     doi.org/10.1002/wcms.81
  4. Izsak,R.; Neese,F.; Klopper,W.
     Robust fitting techniques in the chain of spheres approximation to the Fock exchange: The role of the complementary space
     J. Chem. Phys., 2013 139 
     doi.org/10.1063/1.4819264
  5. Neese,F.
     Software update: the ORCA program system, version 4.0
     WIRES Comput. Molec. Sci., 2018 8(1)1-6
     doi.org/10.1002/wcms.1327
  6. Neese,F.; Wennmohs,F.; Becker,U.; Riplinger,C.
     The ORCA quantum chemistry program package
     J. Chem. Phys., 2020 152 Art. No. L224108
     doi.org/10.1063/5.0004608

List of optional additional citations

  1. Neese,F.
     Approximate second-order SCF convergence for spin unrestricted wavefunctions
     Chem. Phys. Lett., 2000 325(1-3)93-98
     doi.org/10.1016/s0009-2614(00)00662-x

Timings for individual modules:

Sum of individual times          ...      211.235 sec (=   3.521 min)
Startup calculation              ...        2.739 sec (=   0.046 min)   1.3 %
SCF iterations                   ...      208.374 sec (=   3.473 min)  98.6 %
Property calculations            ...        0.122 sec (=   0.002 min)   0.1 %
                             ****ORCA TERMINATED NORMALLY****
TOTAL RUN TIME: 0 days 0 hours 3 minutes 31 seconds 886 msec
