
                                 *****************
                                 * O   R   C   A *
                                 *****************

                                            #,                                       
                                            ###                                      
                                            ####                                     
                                            #####                                    
                                            ######                                   
                                           ########,                                 
                                     ,,################,,,,,                         
                               ,,#################################,,                 
                          ,,##########################################,,             
                       ,#########################################, ''#####,          
                    ,#############################################,,   '####,        
                  ,##################################################,,,,####,       
                ,###########''''           ''''###############################       
              ,#####''   ,,,,##########,,,,          '''####'''          '####       
            ,##' ,,,,###########################,,,                        '##       
           ' ,,###''''                  '''############,,,                           
         ,,##''                                '''############,,,,        ,,,,,,###''
      ,#''                                            '''#######################'''  
     '                                                          ''''####''''         
             ,#######,   #######,   ,#######,      ##                                
            ,#'     '#,  ##    ##  ,#'     '#,    #''#        ,####,   ,####,        
            ##       ##  ##   ,#'  ##            #'  '#       #'       #'  '#        
            ##       ##  #######   ##           ,######,      #####,   #    #        
            '#,     ,#'  ##    ##  '#,     ,#' ,#      #,     #,   #   #,  ,#        
             '#######'   ##     ##  '#######'  #'      '#     '####' # '####'        



                #########################################################
                #                        -***-                          #
                #          Department of theory and spectroscopy        #
                #                                                       #
                #                      Frank Neese                      #
                #                                                       #
                #     Directorship, Architecture, Infrastructure        #
                #                    SHARK, DRIVERS                     #
                #        Core code/Algorithms in most modules           #
                #                                                       #
                #        Max Planck Institute fuer Kohlenforschung      #
                #                Kaiser Wilhelm Platz 1                 #
                #                 D-45470 Muelheim/Ruhr                 #
                #                      Germany                          #
                #                                                       #
                #                  All rights reserved                  #
                #                        -***-                          #
                #########################################################


                         Program Version 6.0.0  -   RELEASE  -


 With contributions from (in alphabetic order):
   Daniel Aravena         : Magnetic Suceptibility
   Michael Atanasov       : Ab Initio Ligand Field Theory (pilot matlab implementation)
   Alexander A. Auer      : GIAO ZORA, VPT2 properties, NMR spectrum
   Ute Becker             : All parallelization in ORCA, NUMFREQ, NUMCALC
   Giovanni Bistoni       : ED, misc. LED, open-shell LED, HFLD
   Martin Brehm           : Molecular dynamics
   Dmytro Bykov           : pre 5.0 version of the SCF Hessian
   Marcos Casanova-Páez   : Triplet and SCS-CIS(D). UHF-(DLPNO)-IP/EA/STEOM-CCSD. UHF-CVS-IP/STEOM-CCSD
   Vijay G. Chilkuri      : MRCI spin determinant printing, contributions to CSF-ICE
   Pauline Colinet        : FMM embedding
   Dipayan Datta          : RHF DLPNO-CCSD density
   Achintya Kumar Dutta   : EOM-CC, STEOM-CC
   Nicolas Foglia         : Exact transition moments, OPA infrastructure, MCD improvements
   Dmitry Ganyushin       : Spin-Orbit,Spin-Spin,Magnetic field MRCI
   Miquel Garcia          : C-PCM and meta-GGA Hessian, CCSD/C-PCM, Gaussian charge scheme
   Tiago L. C. Gouveia    : GS-ROHF, GS-ROCIS
   Yang Guo               : DLPNO-NEVPT2, F12-NEVPT2, CIM, IAO-localization
   Andreas Hansen         : Spin unrestricted coupled pair/coupled cluster methods
   Ingolf Harden          : AUTO-CI MPn and infrastructure 
   Benjamin Helmich-Paris : MC-RPA, TRAH-(SCF,CASSCF), AVAS, COSX integrals, SCF dyn. polar.
   Lee Huntington         : MR-EOM, pCC
   Robert Izsak           : Overlap fitted RIJCOSX, COSX-SCS-MP3, EOM
   Riya Kayal             : Wick's Theorem for AUTO-CI, AUTO-CI UHF-CCSDT
   Emily Kempfer          : AUTO-CI, RHF CISDT and CCSDT
   Christian Kollmar      : KDIIS, OOCD, Brueckner-CCSD(T), CCSD density, CASPT2, CASPT2-K, improved NEVPT2
   Axel Koslowski         : Symmetry handling
   Simone Kossmann        : Meta GGA functionals, TD-DFT gradient, OOMP2, (MP2 Hessian; deprecated post 5.0)
   Lucas Lang             : DCDCAS
   Marvin Lechner         : AUTO-CI (C++ implementation), FIC-MRCC
   Spencer Leger          : CASSCF response
   Dagmar Lenk            : GEPOL surface, SMD, ORCA-2-JSON
   Dimitrios Liakos       : Extrapolation schemes; Compound Job, initial MDCI parallelization
   Dimitrios Manganas     : Further ROCIS development; embedding schemes. LFT, Crystal Embedding
   Dimitrios Pantazis     : SARC Basis sets
   Anastasios Papadopoulos: AUTO-CI, single reference methods and gradients
   Taras Petrenko         : pre 6.0 DFT Hessian and TD-DFT gradient, (ASA, deprecated), ECA, 1-Electron XAS/XES, NRVS
   Peter Pinski           : DLPNO-MP2, DLPNO-MP2 Gradient
   Christoph Reimann      : Effective Core Potentials
   Marius Retegan         : Local ZFS, SOC
   Christoph Riplinger    : Optimizer, TS searches, QM/MM, DLPNO-CCSD(T), (RO)-DLPNO pert. Triples
   Michael Roemelt        : Original ROCIS implementation
   Masaaki Saitow         : Open-shell DLPNO-CCSD energy and density
   Barbara Sandhoefer     : DKH picture change effects
   Kantharuban Sivalingam : CASSCF convergence/infrastructure, NEVPT2 and variants, FIC-MRCI
   Bernardo de Souza      : ESD, SOC TD-DFT
   Georgi Stoychev        : AutoAux, RI-MP2 NMR, DLPNO-MP2 response, X2C
   Van Anh Tran           : RI-MP2 g-tensors
   Willem Van den Heuvel  : Paramagnetic NMR
   Zikuan Wang            : NOTCH, Electric field optimization 
   Frank Wennmohs         : Technical directorship and infrastructure
   Hang Xu                : AUTO-CI-Response properties 


 We gratefully acknowledge several colleagues who have allowed us to
 interface, adapt or use parts of their codes:
   Stefan Grimme, W. Hujo, H. Kruse, P. Pracht,  : VdW corrections, initial TS optimization,
                  C. Bannwarth, S. Ehlert,         DFT functionals, gCP, sTDA/sTD-DF
                  L. Wittmann, M. Mueller
   Ed Valeev, F. Pavosevic, A. Kumar             : LibInt (2-el integral package), F12 methods
   Garnet Chan, S. Sharma, J. Yang, R. Olivares  : DMRG
   Ulf Ekstrom                                   : XCFun DFT Library
   Mihaly Kallay                                 : mrcc  (arbitrary order and MRCC methods)
   Frank Weinhold                                : gennbo (NPA and NBO analysis)
   Simon Mueller                                 : openCOSMO-RS
   Christopher J. Cramer and Donald G. Truhlar   : smd solvation model
   Lars Goerigk                                  : TD-DFT with DH, B97 family of functionals
   V. Asgeirsson, H. Jonsson                     : NEB implementation
   FAccTs GmbH                                   : IRC, NEB, NEB-TS, DLPNO-Multilevel, CI-OPT
                                                   MM, QMMM, 2- and 3-layer-ONIOM, Crystal-QMMM,
                                                   LR-CPCM, SF, NACMEs, symmetry and pop. for TD-DFT,
                                                   nearIR, NL-DFT gradient (VV10), updates on ESD,
                                                   ML-optimized integration grids, MBIS, APM,
                                                   GOAT, DOCKER, SOLVATOR, interface openCOSMO-RS
   S Lehtola, MJT Oliveira, MAL Marques          : LibXC Library
   Liviu Ungur et al                             : ANISO software


 Your calculation uses the libint2 library for the computation of 2-el integrals
 For citations please refer to: http://libint.valeyev.net

 Your ORCA version has been built with support for libXC version: 6.2.2
 For citations please refer to: https://libxc.gitlab.io

 This ORCA versions uses:
   CBLAS   interface :  Fast vector & matrix operations
   LAPACKE interface :  Fast linear algebra routines
   SCALAPACK package :  Parallel linear algebra routines
   Shared memory     :  Shared parallel matrices
   BLAS/LAPACK       :  OpenBLAS 0.3.27  USE64BITINT DYNAMIC_ARCH NO_AFFINITY SkylakeX SINGLE_THREADED
        Core in use  :  SkylakeX
   Copyright (c) 2011-2014, The OpenBLAS Project


Your calculation utilizes the geometrical counterpoise correction gCP
Please cite in your paper:
H.Kruse, S. Grimme J.Chem.Phys., 136, (2012), 154101 
   

Your calculation utilizes the atom-pairwise dispersion correction
based on EEQ partial charges (D4)


================================================================================

----- Orbital basis set information -----
Your calculation utilizes the basis: def2-mTZVPP
   Stefan Grimme, Andreas Hansen, Sebastian Ehlert, and Jan-Michael Mewes 
   J. Chem. Phys. 154, 064103 (2021). DOI: 10.1063/5.0040021

----- AuxJ basis set information -----
Your calculation utilizes the auxiliary basis: def2/J
   F. Weigend, Phys. Chem. Chem. Phys. 8, 1057 (2006).

================================================================================
                                        WARNINGS
                       Please study these warnings very carefully!
================================================================================

Using LibXC functional ID 497 : Re-regularized SCAN exchange by Furness et al
[ 1]  J. W. Furness, A. D. Kaplan, J. Ning, J. P. Perdew, and J. Sun.,  J. Phys. Chem. Lett. 11, 8208-8215 (2020)
[ 2]  J. W. Furness, A. D. Kaplan, J. Ning, J. P. Perdew, and J. Sun.,  J. Phys. Chem. Lett. 11, 9248-9248 (2020)
Using LibXC functional ID 498 : Re-regularized SCAN correlation by Furness et al
[ 1]  J. W. Furness, A. D. Kaplan, J. Ning, J. P. Perdew, and J. Sun.,  J. Phys. Chem. Lett. 11, 8208-8215 (2020)
[ 2]  J. W. Furness, A. D. Kaplan, J. Ning, J. P. Perdew, and J. Sun.,  J. Phys. Chem. Lett. 11, 9248-9248 (2020)
Using LibXC functional ID 497 : Re-regularized SCAN exchange by Furness et al
[ 1]  J. W. Furness, A. D. Kaplan, J. Ning, J. P. Perdew, and J. Sun.,  J. Phys. Chem. Lett. 11, 8208-8215 (2020)
[ 2]  J. W. Furness, A. D. Kaplan, J. Ning, J. P. Perdew, and J. Sun.,  J. Phys. Chem. Lett. 11, 9248-9248 (2020)
Using LibXC functional ID 498 : Re-regularized SCAN correlation by Furness et al
[ 1]  J. W. Furness, A. D. Kaplan, J. Ning, J. P. Perdew, and J. Sun.,  J. Phys. Chem. Lett. 11, 8208-8215 (2020)
[ 2]  J. W. Furness, A. D. Kaplan, J. Ning, J. P. Perdew, and J. Sun.,  J. Phys. Chem. Lett. 11, 9248-9248 (2020)

================================================================================
                                       INPUT FILE
================================================================================
NAME = sp_gas.inp
|  1> ! r2scan-3c def2/J RI DEFGRID2 scfconv6 printgap
|  2> %output
|  3>     printlevel normal
|  4> end
|  5> * xyz 0 1
|  6> C 3.2772024427 1.0718017534 0.0013096858
|  7> N 2.2779025596 0.0358370474 -0.0001463487
|  8> C 2.4781248767 -1.290348816 -0.0014029024
|  9> N 1.3623668562 -1.9966379606 -0.0015153493
| 10> C 0.3783839804 -1.0729251768 6.75762e-05
| 11> C 0.9149471293 0.2117134214 0.000856913
| 12> C 0.0895565778 1.3729532592 0.0005362855
| 13> O 0.456024294 2.5447621978 0.0002052349
| 14> N -1.2652238503 1.0511906129 -0.0002320591
| 15> C -1.8210019978 -0.2204472335 0.0002965352
| 16> O -3.0325319727 -0.3893315227 0.0002187475
| 17> N -0.9642563375 -1.286820918 -0.0003072983
| 18> C -1.5086121742 -2.6320045642 0.0013234013
| 19> C -2.1813087254 2.1834836235 -0.0013371776
| 20> H 3.9086639336 0.9830932544 -0.8818185038
| 21> H 2.7721590622 2.0356003366 -0.0071118771
| 22> H 3.8961307482 0.9929484804 0.8943081568
| 23> H 3.4518384908 -1.7364647004 -0.0023081298
| 24> H -2.1628862163 -2.7607564894 -0.8597637042
| 25> H -2.0933150522 -2.7899043038 0.9067248645
| 26> H -0.6715096814 -3.3211863802 -0.0411905165
| 27> H -3.1967181628 1.7979660189 -0.0092741028
| 28> H -1.9954467409 2.7960550052 -0.8825311311
| 29> H -2.0072694428 2.7890104293 0.887155937
| 30> *
| 31> 
| 32>                          ****END OF INPUT****
================================================================================

                       ****************************
                       * Single Point Calculation *
                       ****************************

---------------------------------
CARTESIAN COORDINATES (ANGSTROEM)
---------------------------------
  C      3.277202    1.071802    0.001310
  N      2.277903    0.035837   -0.000146
  C      2.478125   -1.290349   -0.001403
  N      1.362367   -1.996638   -0.001515
  C      0.378384   -1.072925    0.000068
  C      0.914947    0.211713    0.000857
  C      0.089557    1.372953    0.000536
  O      0.456024    2.544762    0.000205
  N     -1.265224    1.051191   -0.000232
  C     -1.821002   -0.220447    0.000297
  O     -3.032532   -0.389332    0.000219
  N     -0.964256   -1.286821   -0.000307
  C     -1.508612   -2.632005    0.001323
  C     -2.181309    2.183484   -0.001337
  H      3.908664    0.983093   -0.881819
  H      2.772159    2.035600   -0.007112
  H      3.896131    0.992948    0.894308
  H      3.451838   -1.736465   -0.002308
  H     -2.162886   -2.760756   -0.859764
  H     -2.093315   -2.789904    0.906725
  H     -0.671510   -3.321186   -0.041191
  H     -3.196718    1.797966   -0.009274
  H     -1.995447    2.796055   -0.882531
  H     -2.007269    2.789010    0.887156

----------------------------
CARTESIAN COORDINATES (A.U.)
----------------------------
  NO LB      ZA    FRAG     MASS         X           Y           Z
   0 C     6.0000    0    12.011    6.193015    2.025412    0.002475
   1 N     7.0000    0    14.007    4.304612    0.067722   -0.000277
   2 C     6.0000    0    12.011    4.682977   -2.438406   -0.002651
   3 N     7.0000    0    14.007    2.574500   -3.773099   -0.002864
   4 C     6.0000    0    12.011    0.715042   -2.027535    0.000128
   5 C     6.0000    0    12.011    1.729000    0.400080    0.001619
   6 C     6.0000    0    12.011    0.169237    2.594506    0.001013
   7 O     8.0000    0    15.999    0.861761    4.808904    0.000388
   8 N     7.0000    0    14.007   -2.390927    1.986462   -0.000439
   9 C     6.0000    0    12.011   -3.441195   -0.416585    0.000560
  10 O     8.0000    0    15.999   -5.730655   -0.735730    0.000413
  11 N     7.0000    0    14.007   -1.822180   -2.431739   -0.000581
  12 C     6.0000    0    12.011   -2.850864   -4.973768    0.002501
  13 C     6.0000    0    12.011   -4.122076    4.126186   -0.002527
  14 H     1.0000    0     1.008    7.386304    1.857777   -1.666395
  15 H     1.0000    0     1.008    5.238621    3.846727   -0.013440
  16 H     1.0000    0     1.008    7.362620    1.876401    1.689997
  17 H     1.0000    0     1.008    6.523029   -3.281443   -0.004362
  18 H     1.0000    0     1.008   -4.087263   -5.217074   -1.624718
  19 H     1.0000    0     1.008   -3.955792   -5.272155    1.713462
  20 H     1.0000    0     1.008   -1.268969   -6.276133   -0.077839
  21 H     1.0000    0     1.008   -6.040922    3.397663   -0.017526
  22 H     1.0000    0     1.008   -3.770848    5.283778   -1.667742
  23 H     1.0000    0     1.008   -3.793190    5.270466    1.676482

--------------------------------
INTERNAL COORDINATES (ANGSTROEM)
--------------------------------
 C      0   0   0     0.000000000000     0.00000000     0.00000000
 N      1   0   0     1.439383634921     0.00000000     0.00000000
 C      2   1   0     1.341215679700   127.44663402     0.00000000
 N      3   2   1     1.320515175503   113.74887785   179.94981918
 C      4   3   2     1.349618506274   104.47520012     0.00000000
 C      2   1   3     1.374256530074   126.61501482   179.92804585
 C      6   2   1     1.424692116284   132.75741341     0.15952685
 O      7   6   2     1.227776398696   127.22901907   359.94071399
 N      7   6   2     1.392466085501   112.04429424   179.90222165
 C      9   7   6     1.387786886034   126.96835272     0.05000110
 O     10   9   7     1.223244370218   121.54381525   179.96167547
 N      5   4   3     1.359571458911   127.75778240   179.95035797
 C     12   5   4     1.451152982333   121.08338553     0.18193745
 C      9   7   6     1.456468393590   115.61439283   180.03194533
 H      1   2   3     1.089278757505   110.06163816    59.68704617
 H      1   2   3     1.088139443218   108.37586495   179.49025349
 H      1   2   3     1.089374295282   110.07035928   299.24206452
 H      3   2   1     1.071045472440   123.20079650   359.94536200
 H     13  12   5     1.089092550552   109.51488522   237.00186934
 H     13  12   5     1.089294080068   109.67342310   118.02080175
 H     13  12   5     1.085135748266   107.41625260   357.56924859
 H     14   9   7     1.086159815036   108.18439059   179.58780609
 H     14   9   7     1.089169940205   109.30038409    58.99147189
 H     14   9   7     1.089207234241   109.33407867   300.16073721

---------------------------
INTERNAL COORDINATES (A.U.)
---------------------------
 C      0   0   0     0.000000000000     0.00000000     0.00000000
 N      1   0   0     2.720040871648     0.00000000     0.00000000
 C      2   1   0     2.534530321155   127.44663402     0.00000000
 N      3   2   1     2.495412037388   113.74887785   179.94981918
 C      4   3   2     2.550409362129   104.47520012     0.00000000
 C      2   1   3     2.596968479592   126.61501482   179.92804585
 C      6   2   1     2.692277924933   132.75741341     0.15952685
 O      7   6   2     2.320161147227   127.22901907   359.94071399
 N      7   6   2     2.631379552370   112.04429424   179.90222165
 C      9   7   6     2.622537146851   126.96835272     0.05000110
 O     10   9   7     2.311596854574   121.54381525   179.96167547
 N      5   4   3     2.569217716837   127.75778240   179.95035797
 C     12   5   4     2.742281715033   121.08338553     0.18193745
 C      9   7   6     2.752326386598   115.61439283   180.03194533
 H      1   2   3     2.058438535182   110.06163816    59.68704617
 H      1   2   3     2.056285543200   108.37586495   179.49025349
 H      1   2   3     2.058619075416   110.07035928   299.24206452
 H      3   2   1     2.023982619888   123.20079650   359.94536200
 H     13  12   5     2.058086655036   109.51488522   237.00186934
 H     13  12   5     2.058467490631   109.67342310   118.02080175
 H     13  12   5     2.050609382350   107.41625260   357.56924859
 H     14   9   7     2.052544588089   108.18439059   179.58780609
 H     14   9   7     2.058232900286   109.30038409    58.99147189
 H     14   9   7     2.058303375800   109.33407867   300.16073721

---------------------
BASIS SET INFORMATION
---------------------
There are 4 groups of distinct atoms

 Group   1 Type C   : 11s6p1d contracted to 5s3p1d pattern {62111/411/1}
 Group   2 Type N   : 11s6p2d contracted to 5s3p2d pattern {62111/411/11}
 Group   3 Type O   : 11s6p2d contracted to 5s3p2d pattern {62111/411/11}
 Group   4 Type H   : 4s1p contracted to 2s1p pattern {31/1}

Atom   0C    basis set group =>   1
Atom   1N    basis set group =>   2
Atom   2C    basis set group =>   1
Atom   3N    basis set group =>   2
Atom   4C    basis set group =>   1
Atom   5C    basis set group =>   1
Atom   6C    basis set group =>   1
Atom   7O    basis set group =>   3
Atom   8N    basis set group =>   2
Atom   9C    basis set group =>   1
Atom  10O    basis set group =>   3
Atom  11N    basis set group =>   2
Atom  12C    basis set group =>   1
Atom  13C    basis set group =>   1
Atom  14H    basis set group =>   4
Atom  15H    basis set group =>   4
Atom  16H    basis set group =>   4
Atom  17H    basis set group =>   4
Atom  18H    basis set group =>   4
Atom  19H    basis set group =>   4
Atom  20H    basis set group =>   4
Atom  21H    basis set group =>   4
Atom  22H    basis set group =>   4
Atom  23H    basis set group =>   4
---------------------------------
AUXILIARY/J BASIS SET INFORMATION
---------------------------------
There are 4 groups of distinct atoms

 Group   1 Type C   : 12s5p4d2f1g contracted to 6s4p3d1f1g pattern {711111/2111/211/2/1}
 Group   2 Type N   : 12s5p4d2f1g contracted to 6s4p3d1f1g pattern {711111/2111/211/2/1}
 Group   3 Type O   : 12s5p4d2f1g contracted to 6s4p3d1f1g pattern {711111/2111/211/2/1}
 Group   4 Type H   : 5s2p1d contracted to 3s1p1d pattern {311/2/1}

Atom   0C    basis set group =>   1
Atom   1N    basis set group =>   2
Atom   2C    basis set group =>   1
Atom   3N    basis set group =>   2
Atom   4C    basis set group =>   1
Atom   5C    basis set group =>   1
Atom   6C    basis set group =>   1
Atom   7O    basis set group =>   3
Atom   8N    basis set group =>   2
Atom   9C    basis set group =>   1
Atom  10O    basis set group =>   3
Atom  11N    basis set group =>   2
Atom  12C    basis set group =>   1
Atom  13C    basis set group =>   1
Atom  14H    basis set group =>   4
Atom  15H    basis set group =>   4
Atom  16H    basis set group =>   4
Atom  17H    basis set group =>   4
Atom  18H    basis set group =>   4
Atom  19H    basis set group =>   4
Atom  20H    basis set group =>   4
Atom  21H    basis set group =>   4
Atom  22H    basis set group =>   4
Atom  23H    basis set group =>   4

Checking for AutoStart:
The File: sp_gas.gbw exists
Trying to determine its content:
     ... Fine, the file contains calculation information
     ... Fine, the calculation information was read
     ... Fine, the file contains a basis set
     ... Fine, the basis set was read
     ... Fine, the file contains a geometry
     ... Fine, the geometry was read
     ... Fine, the file contains a set of orbitals
     ... Fine, the orbitals can be read
     => possible old guess file was deleted
     => GBW file was renamed to GES file
     => GES file is set as startup file
     => Guess is set to MORead
     ... now leaving AutoStart

------------------------------------------------------------------------------
                             ORCA STARTUP CALCULATIONS
                           -- RI-GTO INTEGRALS CHOSEN --
------------------------------------------------------------------------------
------------------------------------------------------------------------------
                   ___                                                        
                  /   \      - P O W E R E D   B Y -                         
                 /     \                                                     
                 |  |  |   _    _      __       _____    __    __             
                 |  |  |  | |  | |    /  \     |  _  \  |  |  /  |          
                  \  \/   | |  | |   /    \    | | | |  |  | /  /          
                 / \  \   | |__| |  /  /\  \   | |_| |  |  |/  /          
                |  |  |   |  __  | /  /__\  \  |    /   |      \           
                |  |  |   | |  | | |   __   |  |    \   |  |\   \          
                \     /   | |  | | |  |  |  |  | |\  \  |  | \   \       
                 \___/    |_|  |_| |__|  |__|  |_| \__\ |__|  \__/        
                                                                              
                      - O R C A' S   B I G   F R I E N D -                    
                                      &                                       
                       - I N T E G R A L  F E E D E R -                       
                                                                              
 v1 FN, 2020, v2 2021, v3 2022-2024                                           
------------------------------------------------------------------------------


----------------------
SHARK INTEGRAL PACKAGE
----------------------

Number of atoms                             ...     24
Number of basis functions                   ...    346
Number of shells                            ...    162
Maximum angular momentum                    ...      2
Integral batch strategy                     ... SHARK/LIBINT Hybrid
RI-J (if used) integral strategy            ... SPLIT-RIJ (Revised 2003 algorithm where possible)
Printlevel                                  ...      1
Contraction scheme used                     ... SEGMENTED contraction
Prescreening option                         ... SCHWARTZ
   Thresh                                   ... 1.000e-10
   Tcut                                     ... 1.000e-11
   Tpresel                                  ... 1.000e-11 
Coulomb Range Separation                    ... NOT USED
Exchange Range Separation                   ... NOT USED
Multipole approximations                    ... NOT USED
Finite Nucleus Model                        ... NOT USED
CABS basis                                  ... NOT available
Auxiliary Coulomb fitting basis             ... AVAILABLE
   # of basis functions in Aux-J            ...    796
   # of shells in Aux-J                     ...    260
   Maximum angular momentum in Aux-J        ...      4
Auxiliary J/K fitting basis                 ... NOT available
Auxiliary Correlation fitting basis         ... NOT available
Auxiliary 'external' fitting basis          ... NOT available

Checking pre-screening integrals            ... done (  0.0 sec) Dimension = 162
Check shell pair data                       ... done (  0.0 sec)
Shell pair information
Shell pair cut-off parameter TPreSel        ...   1.0e-11
Total number of shell pairs                 ...     13203
Shell pairs after pre-screening             ...     10952
Total number of primitive shell pairs       ...     47924
Primitive shell pairs kept                  ...     26630
          la=0 lb=0:   3202 shell pairs
          la=1 lb=0:   3909 shell pairs
          la=1 lb=1:   1208 shell pairs
          la=2 lb=0:   1519 shell pairs
          la=2 lb=1:    924 shell pairs
          la=2 lb=2:    190 shell pairs

Calculating one electron integrals          ... done (  0.1 sec)
Calculating RI/J V-Matrix + Cholesky decomp.... done (  0.1 sec)
Calculating Nuclear repulsion               ... done (  0.0 sec) ENN=    934.728985729036 Eh

Diagonalization of the overlap matrix:
Smallest eigenvalue                        ... 2.709e-05
Time for diagonalization                   ...    0.013 sec
Threshold for overlap eigenvalues          ... 1.000e-07
Number of eigenvalues below threshold      ... 0
Time for construction of square roots      ...    0.020 sec
Total time needed                          ...    0.043 sec

-------------------
DFT GRID GENERATION
-------------------

General Integration Accuracy     IntAcc      ... 4.388
Radial Grid Type                 RadialGrid  ... OptM3 with GC (2021)
Angular Grid (max. ang.)         AngularGrid ... 4 (Lebedev-302)
Angular grid pruning method      GridPruning ... 4 (adaptive)
Weight generation scheme         WeightScheme... mBecke (2022)
Basis function cutoff            BFCut       ... 1.0000e-10
Integration weight cutoff        WCut        ... 1.0000e-14
Partially contracted basis set               ... off
Rotationally invariant grid construction     ... off
Angular grids for H and He will be reduced by one unit
Diffuse basis detected: some atoms will have their outermost
                        angular grid increased by 1.

Total number of grid points                  ...   116601
Total number of batches                      ...     1836
Average number of points per batch           ...       63
Average number of grid points per atom       ...     4858
Initializing property integral containers    ... done (  0.0 sec)

SHARK setup successfully completed in   1.9 seconds

Maximum memory used throughout the entire STARTUP-calculation: 59.0 MB
-------------------------------------------------------------------------------
                                 ORCA GUESS
                   Start orbitals & Density for SCF / CASSCF
-------------------------------------------------------------------------------

------------
SCF SETTINGS
------------
Hamiltonian:
 Density Functional     Method          .... DFT(GTOs)
  Functional kind                       .... Exchange
  Functional name                       .... Re-regularized SCAN exchange by Furness et al
  Functional family                     .... MGGA
  Functional refs                              
    [ 0] J. W. Furness, A. D. Kaplan, J. Ning, J. P. Perdew, and J. Sun.,  J. Phys. Chem. Lett. 11, 8208-8215 (2020), doi: 10.1021/acs.jpclett.0c02405
    [ 1] J. W. Furness, A. D. Kaplan, J. Ning, J. P. Perdew, and J. Sun.,  J. Phys. Chem. Lett. 11, 9248-9248 (2020), doi: 10.1021/acs.jpclett.0c03077
  Functional external parameters        .... 6
    Parameter  0 _c1        =  6.670000e-01 : c1 parameter        
    Parameter  1 _c2        =  8.000000e-01 : c2 parameter        
    Parameter  2 _d         =  1.240000e+00 : d parameter         
    Parameter  3 _k1        =  6.500000e-02 : k1 parameter        
    Parameter  4 _eta       =  1.000000e-03 : eta parameter       
    Parameter  5 _dp2       =  3.610000e-01 : dp2 parameter       
  Functional kind                       .... Correlation
  Functional name                       .... Re-regularized SCAN correlation by Furness et al
  Functional family                     .... MGGA
  Functional refs                              
    [ 0] J. W. Furness, A. D. Kaplan, J. Ning, J. P. Perdew, and J. Sun.,  J. Phys. Chem. Lett. 11, 8208-8215 (2020), doi: 10.1021/acs.jpclett.0c02405
    [ 1] J. W. Furness, A. D. Kaplan, J. Ning, J. P. Perdew, and J. Sun.,  J. Phys. Chem. Lett. 11, 9248-9248 (2020), doi: 10.1021/acs.jpclett.0c03077
  Functional external parameters        .... 1
    Parameter  0 _eta       =  1.000000e-03 : Regularization parameter
 Gradients option       PostSCFGGA      .... off
 RI-approximation to the Coulomb term is turned on
   Number of AuxJ basis functions       .... 796


General Settings:
 Integral files         IntName         .... sp_gas
 Hartree-Fock type      HFTyp           .... RHF
 Total Charge           Charge          ....    0
 Multiplicity           Mult            ....    1
 Number of Electrons    NEL             ....  102
 Basis Dimension        Dim             ....  346
 Nuclear Repulsion      ENuc            ....    934.7289857290 Eh

Convergence Acceleration:
 AO-DIIS                CNVDIIS         .... on
   Start iteration      DIISMaxIt       ....    12
   Startup error        DIISStart       ....  0.200000
   # of expansion vecs  DIISMaxEq       ....     5
   Bias factor          DIISBfac        ....   1.050
   Max. coefficient     DIISMaxC        ....  10.000
 MO-DIIS                CNVKDIIS        .... off
 Trust-Rad. Augm. Hess. CNVTRAH         .... auto
   Auto Start mean grad. ratio tolernc. ....  1.125000
   Auto Start start iteration           ....     1
   Auto Start num. interpolation iter.  ....    10
   Max. Number of Micro iterations      ....    24
   Max. Number of Macro iterations      .... Maxiter - #DIIS iter
   Number of Davidson start vectors     ....     2
   Converg. threshold    (grad. norm)   ....   3.330e-04
   Grad. Scal. Fac. for Micro threshold ....   0.100
   Minimum threshold for Micro iter.    ....   1.000e-02
   NR start threshold (gradient norm)   ....   1.000e-04
   Initial trust radius                 ....   0.400
   Minimum AH scaling param. (alpha)    ....   1.000
   Maximum AH scaling param. (alpha)    .... 1000.000
   Quad. conv. algorithm                .... NR
   White noise on init. David. guess    .... on
   Maximum white noise                  ....   0.010
   Pseudo random numbers                .... off
   Inactive MOs                         .... canonical
   Orbital update algorithm             .... Taylor
   Preconditioner                       .... Diag
   Full preconditioner red. dimension   ....   250
   COSX micro iterations for RIJONX calc.... off
 SOSCF                  CNVSOSCF        .... on
   Start iteration      SOSCFMaxIt      ....   150
   Startup grad/error   SOSCFStart      ....  0.003300
   Hessian update       SOSCFHessUp     .... L-BFGS
 Level Shifting         CNVShift        .... on
   Level shift para.    LevelShift      ....    0.2500
   Turn off err/grad.   ShiftErr        ....    0.0010
 Zerner damping         CNVZerner       .... off
 Static damping         CNVDamp         .... on
   Fraction old density DampFac         ....    0.7000
   Max. Damping (<1)    DampMax         ....    0.9800
   Min. Damping (>=0)   DampMin         ....    0.0000
   Turn off err/grad.   DampErr         ....    0.1000

SCF Procedure:
 Maximum # iterations   MaxIter         ....   125
 SCF integral mode      SCFMode         .... Direct
   Integral package                     .... SHARK and LIBINT hybrid scheme
 Reset frequency        DirectResetFreq ....    20
 Integral Threshold     Thresh          ....  1.000e-10 Eh
 Primitive CutOff       TCut            ....  1.000e-11 Eh

Convergence Tolerance:
 Convergence Check Mode ConvCheckMode   .... Total+1el-Energy
 Convergence forced     ConvForced      .... 0
 Energy Change          TolE            ....  1.000e-06 Eh
 1-El. energy change                    ....  1.000e-03 Eh
 Orbital Gradient       TolG            ....  3.330e-04
 Orbital Rotation angle TolX            ....  3.330e-04
 DIIS Error             TolErr          ....  1.000e-06

---------------------
INITIAL GUESS: MOREAD
---------------------
Guess MOs are being read from file: sp_gas.ges
Input Geometry matches current geometry (good)
Atom 0: N(Shells)= 9 and 6 - projection required
Input basis set needs projection
NBasis(read)= 216
NBasis(calc)= 346
Basis set overlap was calculated
Using GuessMode=FMatrix for the initial guess
C*T matrix was formed
Effective Fockian was calculated
Effective Fockian was diagonalized
Initial density was built
                      ------------------
                      INITIAL GUESS DONE (   0.1 sec)
                      ------------------
             **** ENERGY FILE WAS UPDATED (sp_gas.en.tmp) ****
Finished Guess after   0.4 sec
Maximum memory used throughout the entire GUESS-calculation: 30.7 MB

-------------------------------------------------------------------------------------------
                                      ORCA LEAN-SCF
                              memory conserving SCF solver
-------------------------------------------------------------------------------------------

----------------------------------------D-I-I-S--------------------------------------------
Iteration    Energy (Eh)           Delta-E    RMSDP     MaxDP     DIISErr   Damp  Time(sec)
-------------------------------------------------------------------------------------------
               ***  Starting incremental Fock matrix formation  ***
    1    -679.9219453235044739     0.00e+00  6.75e-03  4.45e-01  6.25e-01  0.700   6.6
    2    -680.0180968298883499    -9.62e-02  5.04e-03  2.77e-01  4.39e-01  0.700   5.6
    3    -680.0859888766577797    -6.79e-02  3.58e-03  1.89e-01  3.08e-01  0.700   5.8
    4    -680.1336321122661275    -4.76e-02  2.52e-03  1.31e-01  2.16e-01  0.700   5.5
                               ***Turning on AO-DIIS***
    5    -680.1670372725503739    -3.34e-02  1.78e-03  8.99e-02  1.51e-01  0.700   5.3
    6    -680.1904461442412639    -2.34e-02  1.25e-03  6.24e-02  1.06e-01  0.700   5.3
    7    -680.2068511106361939    -1.64e-02  8.73e-04  4.35e-02  7.40e-02  0.700   5.1
    8    -680.2183425332378874    -1.15e-02  2.04e-03  1.01e-01  5.18e-02  0.000   5.1
                              *** Initializing SOSCF ***
---------------------------------------S-O-S-C-F--------------------------------------
Iteration    Energy (Eh)           Delta-E    RMSDP     MaxDP     MaxGrad    Time(sec)
--------------------------------------------------------------------------------------
    9    -680.2451826374541497    -2.68e-02  1.19e-05  8.44e-04  2.06e-04     5.4
               *** Restarting incremental Fock matrix formation ***
   10    -680.2451824506084677     1.87e-07  1.53e-05  1.24e-03  9.01e-05     6.6
   11    -680.2451803776813222     2.07e-06  1.03e-05  6.65e-04  2.89e-04     4.6
   12    -680.2451827796975294    -2.40e-06  5.11e-06  4.13e-04  2.15e-05     4.5
                  *** Gradient check signals convergence ***

               *****************************************************
               *                     SUCCESS                       *
               *           SCF CONVERGED AFTER  12 CYCLES          *
               *****************************************************

             **** ENERGY FILE WAS UPDATED (sp_gas.en.tmp) ****

----------------
TOTAL SCF ENERGY
----------------

Total Energy       :       -680.24518277969753 Eh          -18510.41247 eV

Components:
Nuclear Repulsion  :        934.72898572903603 Eh           25435.26881 eV
Electronic Energy  :      -1614.97416850873356 Eh          -43945.68128 eV
One Electron Energy:      -2779.91248922468139 Eh          -75645.26456 eV
Two Electron Energy:       1164.93832071594784 Eh           31699.58328 eV

Virial components:
Potential Energy   :      -1357.95733559364726 Eh          -36951.89770 eV
Kinetic Energy     :        677.71215281394973 Eh           18441.48523 eV
Virial Ratio       :          2.00373761921670

DFT components:
N(Alpha)           :       50.999967740876 electrons
N(Beta)            :       50.999967740876 electrons
N(Total)           :      101.999935481752 electrons
E(X)               :      -88.525405629218 Eh       
E(C)               :       -3.394339152291 Eh       
E(XC)              :      -91.919744781509 Eh       

---------------
SCF CONVERGENCE
---------------

  Last Energy change         ...    2.4020e-06  Tolerance :   1.0000e-06
  Last MAX-Density change    ...    4.1279e-04  Tolerance :   1.0000e-05
  Last RMS-Density change    ...    5.1066e-06  Tolerance :   1.0000e-06
  Last DIIS Error            ...    2.0615e-04  Tolerance :   1.0000e-06
  Last Orbital Gradient      ...    2.1452e-05  Tolerance :   3.3300e-04
  Last Orbital Rotation      ...    1.4507e-04  Tolerance :   3.3300e-04


----------------
ORBITAL ENERGIES
----------------

  NO   OCC          E(Eh)            E(eV) 
   0   2.0000     -18.924401      -514.9591 
   1   2.0000     -18.919048      -514.8135 
   2   2.0000     -14.249410      -387.7462 
   3   2.0000     -14.229215      -387.1966 
   4   2.0000     -14.220604      -386.9623 
   5   2.0000     -14.166524      -385.4907 
   6   2.0000     -10.167927      -276.6834 
   7   2.0000     -10.146780      -276.1079 
   8   2.0000     -10.114857      -275.2392 
   9   2.0000     -10.110777      -275.1282 
  10   2.0000     -10.088759      -274.5291 
  11   2.0000     -10.078691      -274.2551 
  12   2.0000     -10.071475      -274.0588 
  13   2.0000     -10.059282      -273.7270 
  14   2.0000      -1.045442       -28.4479 
  15   2.0000      -1.020116       -27.7588 
  16   2.0000      -1.006005       -27.3748 
  17   2.0000      -0.946268       -25.7493 
  18   2.0000      -0.909587       -24.7511 
  19   2.0000      -0.880608       -23.9626 
  20   2.0000      -0.766467       -20.8566 
  21   2.0000      -0.712443       -19.3865 
  22   2.0000      -0.707590       -19.2545 
  23   2.0000      -0.682913       -18.5830 
  24   2.0000      -0.632010       -17.1979 
  25   2.0000      -0.616904       -16.7868 
  26   2.0000      -0.576149       -15.6778 
  27   2.0000      -0.553738       -15.0680 
  28   2.0000      -0.508851       -13.8465 
  29   2.0000      -0.483418       -13.1545 
  30   2.0000      -0.482123       -13.1192 
  31   2.0000      -0.457370       -12.4457 
  32   2.0000      -0.452923       -12.3247 
  33   2.0000      -0.429199       -11.6791 
  34   2.0000      -0.425428       -11.5765 
  35   2.0000      -0.424905       -11.5623 
  36   2.0000      -0.404403       -11.0044 
  37   2.0000      -0.395608       -10.7651 
  38   2.0000      -0.395444       -10.7606 
  39   2.0000      -0.388113       -10.5611 
  40   2.0000      -0.373125       -10.1532 
  41   2.0000      -0.363687        -9.8964 
  42   2.0000      -0.359524        -9.7831 
  43   2.0000      -0.358015        -9.7421 
  44   2.0000      -0.303294        -8.2531 
  45   2.0000      -0.274825        -7.4784 
  46   2.0000      -0.264721        -7.2034 
  47   2.0000      -0.254789        -6.9332 
  48   2.0000      -0.246866        -6.7176 
  49   2.0000      -0.228748        -6.2246 
  50   2.0000      -0.203198        -5.5293 
  51   0.0000      -0.062006        -1.6873 
  52   0.0000      -0.007587        -0.2064 
  53   0.0000       0.000745         0.0203 
  54   0.0000       0.046305         1.2600 
  55   0.0000       0.073466         1.9991 
  56   0.0000       0.084771         2.3067 
  57   0.0000       0.092314         2.5120 
  58   0.0000       0.100012         2.7215 
  59   0.0000       0.103566         2.8182 
  60   0.0000       0.106591         2.9005 
  61   0.0000       0.113413         3.0861 
*Only the first 10 virtual orbitals were printed.

                    ********************************
                    * MULLIKEN POPULATION ANALYSIS *
                    ********************************

-----------------------
MULLIKEN ATOMIC CHARGES
-----------------------
   0 C :   -0.400317
   1 N :    0.290061
   2 C :   -0.040723
   3 N :   -0.254285
   4 C :   -0.120712
   5 C :   -0.022504
   6 C :   -0.042640
   7 O :   -0.446133
   8 N :    0.138107
   9 C :    0.246268
  10 O :   -0.480782
  11 N :    0.194635
  12 C :   -0.386532
  13 C :   -0.396572
  14 H :    0.159061
  15 H :    0.215697
  16 H :    0.159470
  17 H :    0.142312
  18 H :    0.166940
  19 H :    0.164868
  20 H :    0.187523
  21 H :    0.198352
  22 H :    0.164118
  23 H :    0.163788
Sum of atomic charges:   -0.0000000

--------------------------------
MULLIKEN REDUCED ORBITAL CHARGES
--------------------------------
  0 C s       :     3.329908  s :     3.329908
      pz      :     1.083340  p :     3.033876
      px      :     0.972292
      py      :     0.978245
      dz2     :     0.006406  d :     0.036533
      dxz     :     0.010443
      dyz     :     0.003298
      dx2y2   :     0.004642
      dxy     :     0.011745

  1 N s       :     3.117438  s :     3.117438
      pz      :     1.496535  p :     3.407900
      px      :     0.954846
      py      :     0.956519
      dz2     :     0.007406  d :     0.184601
      dxz     :     0.036030
      dyz     :     0.020460
      dx2y2   :     0.050411
      dxy     :     0.070295

  2 C s       :     3.249636  s :     3.249636
      pz      :     0.957335  p :     2.721866
      px      :     0.931998
      py      :     0.832533
      dz2     :     0.004838  d :     0.069221
      dxz     :     0.006720
      dyz     :     0.013415
      dx2y2   :     0.026447
      dxy     :     0.017801

  3 N s       :     3.519110  s :     3.519110
      pz      :     1.274300  p :     3.680608
      px      :     0.931331
      py      :     1.474977
      dz2     :     0.005424  d :     0.054566
      dxz     :     0.005447
      dyz     :     0.019071
      dx2y2   :     0.003121
      dxy     :     0.021503

  4 C s       :     3.230136  s :     3.230136
      pz      :     0.942160  p :     2.809564
      px      :     1.024501
      py      :     0.842903
      dz2     :     0.005486  d :     0.081011
      dxz     :     0.017417
      dyz     :     0.009745
      dx2y2   :     0.027686
      dxy     :     0.020677

  5 C s       :     3.130051  s :     3.130051
      pz      :     1.145797  p :     2.835727
      px      :     0.863431
      py      :     0.826499
      dz2     :     0.005113  d :     0.056726
      dxz     :     0.011414
      dyz     :     0.005484
      dx2y2   :     0.018920
      dxy     :     0.015795

  6 C s       :     3.262321  s :     3.262321
      pz      :     0.832511  p :     2.666047
      px      :     0.987740
      py      :     0.845797
      dz2     :     0.005615  d :     0.114272
      dxz     :     0.012122
      dyz     :     0.022695
      dx2y2   :     0.034547
      dxy     :     0.039292

  7 O s       :     3.857311  s :     3.857311
      pz      :     1.495418  p :     4.564208
      px      :     1.753247
      py      :     1.315543
      dz2     :     0.005032  d :     0.024614
      dxz     :     0.002418
      dyz     :     0.007648
      dx2y2   :     0.005043
      dxy     :     0.004473

  8 N s       :     3.176427  s :     3.176427
      pz      :     1.572922  p :     3.483736
      px      :     0.926456
      py      :     0.984357
      dz2     :     0.013229  d :     0.201731
      dxz     :     0.016601
      dyz     :     0.030745
      dx2y2   :     0.079448
      dxy     :     0.061707

  9 C s       :     3.072701  s :     3.072701
      pz      :     0.833162  p :     2.553204
      px      :     0.766180
      py      :     0.953862
      dz2     :     0.006139  d :     0.127827
      dxz     :     0.027216
      dyz     :     0.013999
      dx2y2   :     0.027424
      dxy     :     0.053049

 10 O s       :     3.861075  s :     3.861075
      pz      :     1.523823  p :     4.588503
      px      :     1.288401
      py      :     1.776280
      dz2     :     0.005870  d :     0.031203
      dxz     :     0.007909
      dyz     :     0.001884
      dx2y2   :     0.012005
      dxy     :     0.003535

 11 N s       :     3.103185  s :     3.103185
      pz      :     1.572780  p :     3.495549
      px      :     0.941062
      py      :     0.981706
      dz2     :     0.014314  d :     0.206632
      dxz     :     0.028413
      dyz     :     0.021979
      dx2y2   :     0.067621
      dxy     :     0.074305

 12 C s       :     3.327755  s :     3.327755
      pz      :     1.116492  p :     3.022688
      px      :     1.082694
      py      :     0.823502
      dz2     :     0.006403  d :     0.036088
      dxz     :     0.007510
      dyz     :     0.006168
      dx2y2   :     0.006864
      dxy     :     0.009144

 13 C s       :     3.325201  s :     3.325201
      pz      :     1.104725  p :     3.035919
      px      :     1.004236
      py      :     0.926958
      dz2     :     0.006284  d :     0.035452
      dxz     :     0.002656
      dyz     :     0.010685
      dx2y2   :     0.005085
      dxy     :     0.010742

 14 H s       :     0.822857  s :     0.822857
      pz      :     0.008795  p :     0.018082
      px      :     0.006100
      py      :     0.003186

 15 H s       :     0.765199  s :     0.765199
      pz      :     0.003553  p :     0.019105
      px      :     0.005300
      py      :     0.010252

 16 H s       :     0.822456  s :     0.822456
      pz      :     0.008902  p :     0.018074
      px      :     0.005989
      py      :     0.003184

 17 H s       :     0.837061  s :     0.837061
      pz      :     0.004544  p :     0.020626
      px      :     0.011520
      py      :     0.004562

 18 H s       :     0.814901  s :     0.814901
      pz      :     0.008570  p :     0.018159
      px      :     0.006726
      py      :     0.002863

 19 H s       :     0.817011  s :     0.817011
      pz      :     0.009091  p :     0.018120
      px      :     0.006090
      py      :     0.002940

 20 H s       :     0.793694  s :     0.793694
      pz      :     0.003683  p :     0.018783
      px      :     0.008804
      py      :     0.006296

 21 H s       :     0.782361  s :     0.782361
      pz      :     0.003602  p :     0.019287
      px      :     0.010860
      py      :     0.004825

 22 H s       :     0.817685  s :     0.817685
      pz      :     0.008759  p :     0.018197
      px      :     0.003531
      py      :     0.005907

 23 H s       :     0.818022  s :     0.818022
      pz      :     0.008843  p :     0.018190
      px      :     0.003501
      py      :     0.005846


------------------------
MULLIKEN OVERLAP CHARGES
------------------------
B(  0-C ,  1-N ) :   0.4992 B(  0-C ,  2-C ) :  -0.0969 B(  0-C ,  5-C ) :  -0.1019 
B(  0-C , 14-H ) :   0.7944 B(  0-C , 15-H ) :   0.8090 B(  0-C , 16-H ) :   0.7933 
B(  1-N ,  2-C ) :   0.7906 B(  1-N ,  3-N ) :  -0.1819 B(  1-N ,  5-C ) :   0.7557 
B(  1-N , 14-H ) :  -0.0715 B(  1-N , 16-H ) :  -0.0716 B(  1-N , 17-H ) :  -0.0968 
B(  2-C ,  3-N ) :   0.9854 B(  2-C ,  4-C ) :  -0.4572 B(  2-C ,  5-C ) :  -0.2428 
B(  2-C , 17-H ) :   0.8334 B(  3-N ,  4-C ) :   0.8442 B(  3-N ,  5-C ) :  -0.0658 
B(  3-N , 11-N ) :  -0.0934 B(  3-N , 17-H ) :  -0.0771 B(  4-C ,  5-C ) :  -0.3915 
B(  4-C ,  6-C ) :   0.0615 B(  4-C ,  8-N ) :  -0.1020 B(  4-C ,  9-C ) :  -0.3210 
B(  4-C , 11-N ) :   1.0022 B(  4-C , 12-C ) :  -0.1207 B(  4-C , 20-H ) :  -0.0504 
B(  5-C ,  6-C ) :  -0.2589 B(  5-C ,  7-O ) :  -0.2580 B(  5-C ,  8-N ) :  -0.1702 
B(  5-C ,  9-C ) :   0.0760 B(  5-C , 11-N ) :  -0.2046 B(  5-C , 12-C ) :  -0.0765 
B(  6-C ,  7-O ) :   1.2275 B(  6-C ,  8-N ) :   0.7081 B(  6-C ,  9-C ) :  -0.1817 
B(  6-C , 13-C ) :  -0.1417 B(  7-O ,  8-N ) :  -0.2568 B(  7-O , 13-C ) :   0.0757 
B(  8-N ,  9-C ) :   0.7595 B(  8-N , 10-O ) :  -0.1986 B(  8-N , 11-N ) :  -0.1677 
B(  8-N , 13-C ) :   0.4725 B(  8-N , 21-H ) :  -0.0539 B(  9-C , 10-O ) :   1.1995 
B(  9-C , 11-N ) :   0.7783 B(  9-C , 12-C ) :  -0.1073 B(  9-C , 13-C ) :  -0.1525 
B( 10-O , 11-N ) :  -0.2240 B( 10-O , 12-C ) :   0.0790 B( 11-N , 12-C ) :   0.4791 
B( 11-N , 18-H ) :  -0.0535 B( 11-N , 19-H ) :  -0.0546 B( 12-C , 18-H ) :   0.7781 
B( 12-C , 19-H ) :   0.7754 B( 12-C , 20-H ) :   0.8454 B( 13-C , 21-H ) :   0.8244 
B( 13-C , 22-H ) :   0.7846 B( 13-C , 23-H ) :   0.7840 B( 14-H , 16-H ) :  -0.0606 



                     *******************************
                     * LOEWDIN POPULATION ANALYSIS *
                     *******************************

----------------------
LOEWDIN ATOMIC CHARGES
----------------------
   0 C :   -0.080004
   1 N :   -0.718693
   2 C :    0.267109
   3 N :   -0.508917
   4 C :    0.356225
   5 C :    0.213134
   6 C :    0.385878
   7 O :   -0.470790
   8 N :   -0.645426
   9 C :    0.475353
  10 O :   -0.429873
  11 N :   -0.645993
  12 C :   -0.073388
  13 C :   -0.078431
  14 H :    0.181601
  15 H :    0.217743
  16 H :    0.181558
  17 H :    0.206810
  18 H :    0.189312
  19 H :    0.187449
  20 H :    0.203256
  21 H :    0.210346
  22 H :    0.188024
  23 H :    0.187716

-------------------------------
LOEWDIN REDUCED ORBITAL CHARGES
-------------------------------
  0 C s       :     2.871461  s :     2.871461
      pz      :     1.102028  p :     3.120947
      px      :     1.005594
      py      :     1.013325
      dz2     :     0.015052  d :     0.087596
      dxz     :     0.027492
      dyz     :     0.005559
      dx2y2   :     0.012769
      dxy     :     0.026725

  1 N s       :     3.062022  s :     3.062022
      pz      :     1.441261  p :     3.867152
      px      :     1.213190
      py      :     1.212701
      dz2     :     0.067994  d :     0.789519
      dxz     :     0.157419
      dyz     :     0.114403
      dx2y2   :     0.231432
      dxy     :     0.218271

  2 C s       :     2.759300  s :     2.759300
      pz      :     0.869526  p :     2.819337
      px      :     1.023623
      py      :     0.926188
      dz2     :     0.010875  d :     0.154253
      dxz     :     0.010376
      dyz     :     0.026463
      dx2y2   :     0.061782
      dxy     :     0.044757

  3 N s       :     3.230246  s :     3.230246
      pz      :     1.233626  p :     3.856153
      px      :     1.137437
      py      :     1.485090
      dz2     :     0.048199  d :     0.422518
      dxz     :     0.087029
      dyz     :     0.041299
      dx2y2   :     0.118763
      dxy     :     0.127228

  4 C s       :     2.691240  s :     2.691240
      pz      :     0.862334  p :     2.777640
      px      :     0.935325
      py      :     0.979982
      dz2     :     0.011834  d :     0.174894
      dxz     :     0.032030
      dyz     :     0.018825
      dx2y2   :     0.063038
      dxy     :     0.049167

  5 C s       :     2.738701  s :     2.738701
      pz      :     1.037259  p :     2.927654
      px      :     0.914744
      py      :     0.975651
      dz2     :     0.010003  d :     0.120511
      dxz     :     0.021542
      dyz     :     0.008641
      dx2y2   :     0.044164
      dxy     :     0.036160

  6 C s       :     2.702070  s :     2.702070
      pz      :     0.773804  p :     2.664934
      px      :     0.914216
      py      :     0.976914
      dz2     :     0.014872  d :     0.247118
      dxz     :     0.022834
      dyz     :     0.041396
      dx2y2   :     0.080577
      dxy     :     0.087439

  7 O s       :     3.550260  s :     3.550260
      pz      :     1.482327  p :     4.696139
      px      :     1.720182
      py      :     1.493629
      dz2     :     0.027834  d :     0.224391
      dxz     :     0.010344
      dyz     :     0.047091
      dx2y2   :     0.074779
      dxy     :     0.064342

  8 N s       :     3.083164  s :     3.083164
      pz      :     1.509542  p :     3.871816
      px      :     1.191351
      py      :     1.170922
      dz2     :     0.074830  d :     0.690446
      dxz     :     0.095501
      dyz     :     0.111826
      dx2y2   :     0.203659
      dxy     :     0.204628

  9 C s       :     2.648564  s :     2.648564
      pz      :     0.752871  p :     2.598422
      px      :     0.948415
      py      :     0.897137
      dz2     :     0.017145  d :     0.277661
      dxz     :     0.050712
      dyz     :     0.026156
      dx2y2   :     0.066492
      dxy     :     0.117155

 10 O s       :     3.539936  s :     3.539936
      pz      :     1.501128  p :     4.661377
      px      :     1.442430
      py      :     1.717819
      dz2     :     0.030061  d :     0.228560
      dxz     :     0.049660
      dyz     :     0.009183
      dx2y2   :     0.071006
      dxy     :     0.068651

 11 N s       :     3.053783  s :     3.053783
      pz      :     1.521380  p :     3.882250
      px      :     1.170416
      py      :     1.190455
      dz2     :     0.070373  d :     0.709960
      dxz     :     0.118217
      dyz     :     0.103393
      dx2y2   :     0.208103
      dxy     :     0.209873

 12 C s       :     2.873059  s :     2.873059
      pz      :     1.113083  p :     3.113165
      px      :     1.082566
      py      :     0.917516
      dz2     :     0.015011  d :     0.087164
      dxz     :     0.020105
      dyz     :     0.012876
      dx2y2   :     0.015486
      dxy     :     0.023686

 13 C s       :     2.874756  s :     2.874756
      pz      :     1.108798  p :     3.117800
      px      :     1.037010
      py      :     0.971992
      dz2     :     0.014838  d :     0.085876
      dxz     :     0.004350
      dyz     :     0.027873
      dx2y2   :     0.013814
      dxy     :     0.025001

 14 H s       :     0.777567  s :     0.777567
      pz      :     0.021090  p :     0.040831
      px      :     0.012688
      py      :     0.007054

 15 H s       :     0.737073  s :     0.737073
      pz      :     0.007595  p :     0.045184
      px      :     0.013628
      py      :     0.023960

 16 H s       :     0.777612  s :     0.777612
      pz      :     0.021369  p :     0.040830
      px      :     0.012435
      py      :     0.007026

 17 H s       :     0.751361  s :     0.751361
      pz      :     0.009698  p :     0.041829
      px      :     0.022851
      py      :     0.009279

 18 H s       :     0.769586  s :     0.769586
      pz      :     0.020557  p :     0.041102
      px      :     0.014912
      py      :     0.005633

 19 H s       :     0.771598  s :     0.771598
      pz      :     0.021845  p :     0.040953
      px      :     0.013359
      py      :     0.005749

 20 H s       :     0.753261  s :     0.753261
      pz      :     0.008057  p :     0.043483
      px      :     0.022396
      py      :     0.013030

 21 H s       :     0.743670  s :     0.743670
      pz      :     0.007931  p :     0.045984
      px      :     0.025582
      py      :     0.012470

 22 H s       :     0.770766  s :     0.770766
      pz      :     0.020895  p :     0.041210
      px      :     0.008138
      py      :     0.012177

 23 H s       :     0.771105  s :     0.771105
      pz      :     0.021106  p :     0.041179
      px      :     0.008037
      py      :     0.012035


---------------------------------
LOEWDIN BOND ORDERS (THRESH 0.050000)
---------------------------------
B(  0-C ,  1-N ) :   1.3323 B(  0-C ,  2-C ) :   0.0791 B(  0-C ,  5-C ) :   0.0673 
B(  0-C , 14-H ) :   0.8511 B(  0-C , 15-H ) :   0.8238 B(  0-C , 16-H ) :   0.8511 
B(  1-N ,  2-C ) :   1.4992 B(  1-N ,  3-N ) :   0.4563 B(  1-N ,  4-C ) :   0.2332 
B(  1-N ,  5-C ) :   1.3994 B(  1-N ,  6-C ) :   0.1185 B(  1-N , 14-H ) :   0.1003 
B(  1-N , 15-H ) :   0.0992 B(  1-N , 16-H ) :   0.1003 B(  1-N , 17-H ) :   0.0930 
B(  2-C ,  3-N ) :   1.7018 B(  2-C ,  4-C ) :   0.1287 B(  2-C ,  5-C ) :   0.1510 
B(  2-C , 17-H ) :   0.7678 B(  3-N ,  4-C ) :   1.5043 B(  3-N ,  5-C ) :   0.1959 
B(  3-N , 11-N ) :   0.2577 B(  3-N , 17-H ) :   0.0898 B(  4-C ,  5-C ) :   1.0450 
B(  4-C ,  6-C ) :   0.0781 B(  4-C ,  8-N ) :   0.0577 B(  4-C ,  9-C ) :   0.0800 
B(  4-C , 11-N ) :   1.3005 B(  4-C , 12-C ) :   0.0746 B(  5-C ,  6-C ) :   0.9415 
B(  5-C ,  7-O ) :   0.1985 B(  5-C ,  8-N ) :   0.1606 B(  5-C , 11-N ) :   0.1706 
B(  6-C ,  7-O ) :   2.0504 B(  6-C ,  8-N ) :   1.2339 B(  6-C ,  9-C ) :   0.0697 
B(  6-C , 13-C ) :   0.0777 B(  7-O ,  8-N ) :   0.4144 B(  7-O , 13-C ) :   0.0659 
B(  8-N ,  9-C ) :   1.1686 B(  8-N , 10-O ) :   0.3884 B(  8-N , 11-N ) :   0.2389 
B(  8-N , 13-C ) :   1.2895 B(  8-N , 21-H ) :   0.0925 B(  8-N , 22-H ) :   0.0996 
B(  8-N , 23-H ) :   0.0997 B(  9-C , 10-O ) :   1.9598 B(  9-C , 11-N ) :   1.2074 
B(  9-C , 12-C ) :   0.0768 B(  9-C , 13-C ) :   0.0758 B( 10-O , 11-N ) :   0.4063 
B( 10-O , 12-C ) :   0.0564 B( 10-O , 13-C ) :   0.0717 B( 11-N , 12-C ) :   1.2986 
B( 11-N , 18-H ) :   0.0997 B( 11-N , 19-H ) :   0.1001 B( 11-N , 20-H ) :   0.0987 
B( 12-C , 18-H ) :   0.8451 B( 12-C , 19-H ) :   0.8465 B( 12-C , 20-H ) :   0.8311 
B( 13-C , 21-H ) :   0.8226 B( 13-C , 22-H ) :   0.8435 B( 13-C , 23-H ) :   0.8438 


------------------------------------------
LOEWDIN REDUCED ORBITAL POPULATIONS PER MO
-------------------------------------------
THRESHOLD FOR PRINTING IS 0.1%%
                      0         1         2         3         4         5   
                 -18.92440 -18.91905 -14.24941 -14.22922 -14.22060 -14.16652
                   2.00000   2.00000   2.00000   2.00000   2.00000   2.00000
                  --------  --------  --------  --------  --------  --------
 1 N  s               0.0       0.0      99.7       0.0       0.0       0.0
 3 N  s               0.0       0.0       0.0       0.0       0.0      99.8
 7 O  s              99.9       0.0       0.0       0.0       0.0       0.0
 8 N  s               0.0       0.0       0.0       0.0      99.8       0.0
10 O  s               0.0      99.9       0.0       0.0       0.0       0.0
11 N  s               0.0       0.0       0.0      99.7       0.0       0.0

                      6         7         8         9        10        11   
                 -10.16793 -10.14678 -10.11486 -10.11078 -10.08876 -10.07869
                   2.00000   2.00000   2.00000   2.00000   2.00000   2.00000
                  --------  --------  --------  --------  --------  --------
 0 C  s               0.0       0.0       0.0       0.0      99.4       0.0
 1 N  px              0.0       0.0       0.0       0.0       0.1       0.1
 1 N  py              0.0       0.0       0.0       0.1       0.1       0.0
 1 N  dx2y2           0.0       0.0       0.0       0.2       0.0       0.2
 1 N  dxy             0.0       0.0       0.0       0.0       0.2       0.0
 2 C  s               0.0       0.0       0.0      99.0       0.0       0.0
 3 N  px              0.0       0.0       0.1       0.1       0.0       0.0
 3 N  dxy             0.0       0.0       0.2       0.2       0.0       0.0
 4 C  s               0.0       0.0      98.9       0.0       0.0       0.0
 4 C  py              0.0       0.0       0.0       0.0       0.0       0.1
 5 C  s               0.0       0.0       0.0       0.0       0.0      99.2
 5 C  py              0.0       0.1       0.1       0.0       0.0       0.0
 6 C  s               0.0      98.9       0.0       0.0       0.0       0.0
 7 O  py              0.0       0.2       0.0       0.0       0.0       0.0
 7 O  dx2y2           0.0       0.2       0.0       0.0       0.0       0.0
 8 N  px              0.0       0.1       0.0       0.0       0.0       0.0
 8 N  dx2y2           0.1       0.2       0.0       0.0       0.0       0.0
 8 N  dxy             0.1       0.0       0.0       0.0       0.0       0.0
 9 C  s              98.6       0.0       0.0       0.0       0.0       0.0
10 O  px              0.2       0.0       0.0       0.0       0.0       0.0
10 O  dx2y2           0.2       0.0       0.0       0.0       0.0       0.0
11 N  px              0.0       0.0       0.1       0.0       0.0       0.0
11 N  dx2y2           0.0       0.0       0.2       0.0       0.0       0.0
11 N  dxy             0.2       0.0       0.0       0.0       0.0       0.0

                     12        13        14        15        16        17   
                 -10.07148 -10.05928  -1.04544  -1.02012  -1.00600  -0.94627
                   2.00000   2.00000   2.00000   2.00000   2.00000   2.00000
                  --------  --------  --------  --------  --------  --------
 0 C  s               0.0       0.0       0.4       2.0       0.1       1.0
 0 C  px              0.0       0.0       0.3       1.1       0.0       0.3
 0 C  py              0.0       0.0       0.2       1.3       0.1       0.4
 0 C  dxy             0.0       0.0       0.0       0.1       0.0       0.0
 1 N  s               0.0       0.0       3.9      20.9       1.1       5.4
 1 N  px              0.0       0.0       0.3       0.4       0.0       0.1
 1 N  py              0.0       0.0       0.2       0.9       0.3       0.0
 1 N  dz2             0.0       0.0       0.3       0.9       0.0       0.0
 1 N  dxy             0.0       0.0       0.0       0.2       0.1       0.0
 2 C  s               0.0       0.0       2.0       9.3       0.9       0.5
 2 C  px              0.0       0.0       0.8       2.2       0.3       0.2
 2 C  py              0.0       0.0       0.4       2.1       0.1       1.2
 2 C  dz2             0.0       0.0       0.0       0.3       0.0       0.0
 3 N  s               0.0       0.0       2.2       7.3       1.3       0.7
 3 N  px              0.0       0.0       0.0       0.3       0.0       1.2
 3 N  py              0.0       0.0       0.8       2.4       0.3       0.1
 3 N  dz2             0.0       0.0       0.3       0.6       0.1       0.0
 3 N  dx2y2           0.0       0.0       0.0       0.1       0.0       0.3
 3 N  dxy             0.0       0.0       0.0       0.2       0.0       0.7
 4 C  s               0.0       0.0       4.9       2.9       1.0       6.1
 4 C  px              0.0       0.0       0.3       4.9       0.0       5.1
 4 C  py              0.0       0.0       0.2       0.0       0.3       0.5
 4 C  dz2             0.0       0.0       0.1       0.1       0.0       0.2
 4 C  dx2y2           0.0       0.0       0.1       0.0       0.0       0.2
 5 C  s               0.0       0.0       3.8       5.6       0.1       0.0
 5 C  px              0.0       0.0       0.2       4.0       0.9       2.9
 5 C  py              0.0       0.0       0.1       1.0       3.5       0.5
 5 C  dz2             0.0       0.0       0.1       0.1       0.0       0.0
 6 C  s               0.0       0.0       5.6       0.3      14.1       0.0
 6 C  px              0.0       0.0       0.3       1.1       0.1       0.2
 6 C  py              0.0       0.0       0.2       0.1       8.9       0.3
 6 C  dz2             0.0       0.0       0.1       0.0       0.5       0.0
 6 C  dx2y2           0.0       0.0       0.0       0.0       0.4       0.0
 6 C  dxy             0.0       0.0       0.1       0.0       0.3       0.0
 7 O  s               0.0       0.0       4.7       0.4      37.5       0.2
 7 O  px              0.0       0.0       0.1       0.0       0.5       0.0
 7 O  py              0.0       0.0       0.8       0.1       4.4       0.0
 7 O  dz2             0.0       0.0       0.1       0.0       0.2       0.0
 7 O  dx2y2           0.0       0.0       0.1       0.0       0.2       0.0
 7 O  dxy             0.0       0.0       0.1       0.0       0.2       0.0
 8 N  s               0.0       0.0       9.5       1.1       2.7       0.2
 8 N  px              0.0       0.0       0.0       0.6       2.0       0.4
 8 N  py              0.0       0.1       0.7       0.4       1.5       0.1
 8 N  dz2             0.0       0.1       1.2       0.1       0.2       0.0
 8 N  dx2y2           0.0       0.0       0.0       0.1       0.5       0.3
 8 N  dxy             0.0       0.2       0.6       0.2       0.3       0.6
 9 C  s               0.0       0.0      14.8       4.8       1.4       0.2
 9 C  px              0.0       0.0       0.4       2.1       1.1      15.7
 9 C  py              0.0       0.0       0.0       0.0       1.5       1.4
 9 C  dz2             0.0       0.0       0.5       0.2       0.1       0.0
 9 C  dx2y2           0.0       0.0       0.1       0.1       0.1       0.5
 9 C  dxy             0.0       0.0       0.0       0.0       0.0       0.4
10 O  s               0.0       0.0      15.1      10.4       4.5      17.6
10 O  px              0.0       0.0       2.9       1.5       0.6       1.2
10 O  dz2             0.0       0.0       0.3       0.1       0.0       0.1
10 O  dx2y2           0.0       0.0       0.5       0.1       0.1       0.1
10 O  dxy             0.0       0.0       0.0       0.0       0.0       0.1
11 N  s               0.0       0.0      10.2       0.5       2.4      23.2
11 N  px              0.0       0.0       0.1       1.5       0.0       1.4
11 N  py              0.1       0.0       0.9       0.2       0.0       0.1
11 N  dz2             0.1       0.0       1.0       0.0       0.1       0.1
11 N  dx2y2           0.1       0.0       0.0       0.1       0.2       0.1
11 N  dxy             0.1       0.0       0.3       0.4       0.1       0.5
12 C  s              99.4       0.0       1.2       0.1       0.4       3.0
12 C  px              0.0       0.0       0.1       0.1       0.0       0.8
12 C  py              0.0       0.0       1.5       0.2       0.3       1.8
13 C  s               0.0      99.4       1.2       0.2       0.5       0.0
13 C  px              0.0       0.0       0.5       0.0       0.9       0.0
13 C  py              0.0       0.0       1.2       0.3       0.0       0.0
14 H  s               0.0       0.0       0.0       0.1       0.0       0.1
15 H  s               0.0       0.0       0.0       0.1       0.0       0.1
16 H  s               0.0       0.0       0.0       0.1       0.0       0.1
17 H  s               0.0       0.0       0.1       0.5       0.1       0.0
18 H  s               0.0       0.0       0.1       0.0       0.0       0.2
19 H  s               0.0       0.0       0.1       0.0       0.0       0.2
20 H  s               0.0       0.0       0.1       0.0       0.0       0.3
21 H  s               0.0       0.0       0.2       0.0       0.0       0.0

                     18        19        20        21        22        23   
                  -0.90959  -0.88061  -0.76647  -0.71244  -0.70759  -0.68291
                   2.00000   2.00000   2.00000   2.00000   2.00000   2.00000
                  --------  --------  --------  --------  --------  --------
 0 C  s               0.1       5.8       3.1      23.6       0.4       1.1
 0 C  px              0.0       1.2       0.1       0.2       0.1       0.0
 0 C  py              0.1       1.0       0.5       0.3       0.2       0.0
 0 C  dxy             0.0       0.2       0.0       0.0       0.0       0.0
 1 N  s               0.5      13.0       0.4       0.9       0.0       0.4
 1 N  px              0.0       0.7      11.2       6.6       1.7       0.4
 1 N  py              0.0       3.4       0.6      12.6       3.9       0.4
 1 N  dz2             0.0       0.1       0.0       0.4       0.0       0.1
 1 N  dx2y2           0.0       0.4       2.3       0.0       0.7       0.0
 1 N  dxy             0.0       0.0       0.2       2.9       0.2       0.0
 2 C  s               0.0       1.7       4.2       2.0       4.6       0.5
 2 C  px              0.1       4.9       0.5       0.0       0.5       0.1
 2 C  py              0.2       7.8       0.1       2.1       0.1       1.7
 2 C  dx2y2           0.0       0.5       0.0       0.1       0.0       0.0
 2 C  dxy             0.0       0.3       0.1       0.2       0.0       0.1
 3 N  s               0.6      23.4       2.0       3.2       0.0       1.3
 3 N  px              0.1       0.1       1.9       2.2       4.6       1.4
 3 N  py              0.1       2.4       0.3       0.2       0.0       0.3
 3 N  dx2y2           0.1       0.0       0.7       0.2       0.0       0.1
 3 N  dxy             0.0       0.0       0.9       1.0       0.5       0.3
 4 C  s               0.5       2.1       3.3       2.6       1.6       2.3
 4 C  px              0.2       7.6       0.1       0.1       0.3       1.4
 4 C  py              0.9       2.6       7.6       1.2       0.4       0.1
 4 C  dx2y2           0.0       0.0       0.1       0.0       0.1       0.1
 4 C  dxy             0.0       0.4       0.1       0.2       0.1       0.0
 5 C  s               0.2       0.6      15.7       0.4       2.1       0.3
 5 C  px              0.1       2.1       1.7       1.6       0.1       1.4
 5 C  py              0.1       1.2       0.1       0.1       0.0       3.8
 5 C  dz2             0.0       0.0       0.2       0.0       0.0       0.0
 5 C  dx2y2           0.0       0.3       0.0       0.1       0.0       0.0
 5 C  dxy             0.0       0.0       0.0       0.2       0.0       0.2
 6 C  s               0.3       0.0       2.2       0.0       0.2       4.5
 6 C  px              8.5       0.5       1.7       0.1       0.0       0.7
 6 C  py              6.5       0.1       6.7       0.0       0.2       4.7
 6 C  dx2y2           0.8       0.0       0.0       0.0       0.0       0.1
 6 C  dxy             0.0       0.0       0.1       0.0       0.1       0.0
 7 O  s              11.3       0.0       0.9       0.0       0.6       1.8
 7 O  px              0.1       0.0       0.1       0.0       0.1       0.0
 7 O  py              0.7       0.0       0.3       0.0       0.1       0.9
 7 O  dz2             0.2       0.0       0.1       0.0       0.1       0.1
 7 O  dx2y2           0.0       0.0       0.6       0.0       0.0       0.5
 7 O  dxy             0.4       0.0       0.0       0.0       0.0       0.1
 8 N  s              30.2       0.7       1.1       0.0       0.0       0.5
 8 N  px              0.1       0.0       3.2       0.1       0.4      11.4
 8 N  py              0.1       0.1       1.3       0.4      10.2       1.6
 8 N  dz2             0.1       0.0       0.0       0.0       0.0       0.2
 8 N  dx2y2           0.0       0.1       0.6       0.0       0.6       1.1
 8 N  dxy             0.9       0.0       0.0       0.0       0.7       0.9
 9 C  s               0.2       0.1       0.0       0.0       4.3       0.0
 9 C  px              3.3       1.1       0.2       0.0       5.8       0.1
 9 C  py             10.2       1.5       0.0       0.3       0.1       0.4
 9 C  dx2y2           0.5       0.0       0.2       0.1       0.0       0.0
 9 C  dxy             0.2       0.1       0.0       0.0       0.0       0.2
10 O  s               4.6       0.7       0.8       0.1       1.5       0.0
10 O  px              0.3       0.1       0.1       0.0       0.6       0.0
10 O  py              0.2       0.1       0.0       0.1       0.0       0.4
10 O  dx2y2           0.0       0.0       0.0       0.0       0.8       0.0
10 O  dxy             0.6       0.1       0.0       0.1       0.0       0.2
11 N  s               2.9       4.6       1.0       0.1       0.3       0.8
11 N  px              0.0       0.6       2.4       4.0       1.3       4.7
11 N  py              0.7       0.0       2.9       1.7      14.6       3.9
11 N  dz2             0.0       0.1       0.0       0.0       0.2       0.3
11 N  dx2y2           0.6       0.5       0.5       0.7       0.1       1.4
11 N  dxy             0.0       0.1       0.1       0.3       0.8       0.4
12 C  s               1.0       0.9       4.1       4.8      10.1      10.0
12 C  px              0.1       0.0       0.0       0.2       0.3       0.2
12 C  py              0.4       0.5       0.3       0.1       0.2       0.2
13 C  s               4.7       0.3       3.3       0.4       8.4      11.7
13 C  px              1.2       0.0       0.1       0.0       0.1       0.3
13 C  py              2.0       0.1       0.2       0.0       0.1       0.1
13 C  dxy             0.2       0.0       0.0       0.0       0.0       0.0
14 H  s               0.0       0.6       0.6       5.3       0.1       0.3
14 H  pz              0.0       0.0       0.0       0.3       0.0       0.0
14 H  px              0.0       0.0       0.0       0.1       0.0       0.0
15 H  s               0.0       0.7       0.3       5.4       0.2       0.3
15 H  py              0.0       0.1       0.0       0.4       0.0       0.0
16 H  s               0.0       0.6       0.6       5.3       0.1       0.3
16 H  pz              0.0       0.0       0.0       0.3       0.0       0.0
16 H  px              0.0       0.0       0.0       0.1       0.0       0.0
17 H  s               0.0       0.1       1.0       0.3       1.4       0.2
18 H  s               0.1       0.1       0.6       1.0       1.9       2.5
18 H  pz              0.0       0.0       0.0       0.1       0.1       0.1
19 H  s               0.1       0.1       0.6       1.0       1.9       2.5
19 H  pz              0.0       0.0       0.0       0.1       0.1       0.2
20 H  s               0.1       0.1       0.6       0.7       2.8       2.2
20 H  px              0.0       0.0       0.0       0.1       0.1       0.1
20 H  py              0.0       0.0       0.0       0.0       0.1       0.1
21 H  s               0.4       0.0       0.5       0.1       1.6       3.0
21 H  px              0.0       0.0       0.1       0.0       0.1       0.2
22 H  s               0.4       0.0       0.5       0.1       1.7       2.5
22 H  pz              0.0       0.0       0.0       0.0       0.1       0.1
23 H  s               0.4       0.0       0.5       0.1       1.7       2.5
23 H  pz              0.0       0.0       0.0       0.0       0.1       0.1

                     24        25        26        27        28        29   
                  -0.63201  -0.61690  -0.57615  -0.55374  -0.50885  -0.48342
                   2.00000   2.00000   2.00000   2.00000   2.00000   2.00000
                  --------  --------  --------  --------  --------  --------
 0 C  s               0.0       0.8       0.7       2.8       1.1       0.0
 0 C  pz              0.0       0.0       0.0       0.0       0.0       7.3
 0 C  px              0.5       0.0       1.2       8.2       0.8       0.0
 0 C  py              0.8       0.8       0.3       1.5       8.8       0.0
 0 C  dz2             0.0       0.0       0.0       0.1       0.0       0.0
 0 C  dxy             0.0       0.0       0.0       0.2       0.2       0.0
 1 N  s               0.1       1.0       1.9       1.6       0.6       0.0
 1 N  pz              0.0       0.0       0.0       0.0       0.0      13.6
 1 N  px              6.8       1.3       0.5       0.2      15.0       0.0
 1 N  py              5.3       2.0       1.0       8.8       0.1       0.0
 1 N  dz2             0.0       0.3       0.4       0.1       0.1       0.0
 1 N  dx2y2           0.1       0.0       0.0       0.5       0.4       0.0
 1 N  dxy             0.6       0.0       0.4       2.9       0.1       0.0
 2 C  s               5.1       0.4       4.2       0.1       0.9       0.0
 2 C  pz              0.0       0.0       0.0       0.0       0.0       5.0
 2 C  px              4.4       0.6       3.5       0.1       0.3       0.0
 2 C  py              0.4       5.7       1.2       4.3       4.8       0.0
 2 C  dx2y2           0.1       0.1       0.0       0.0       0.0       0.0
 3 N  s               0.9       0.9       0.9       2.7       1.1       0.0
 3 N  pz              0.0       0.0       0.0       0.0       0.0       4.1
 3 N  px              0.7       6.8       3.2       0.5      11.1       0.0
 3 N  py              0.2       0.1       0.2       3.1       0.1       0.0
 3 N  dz2             0.2       0.1       0.2       0.0       0.1       0.0
 3 N  dyz             0.0       0.0       0.0       0.0       0.0       0.7
 3 N  dx2y2           0.8       0.0       0.4       1.5       0.1       0.0
 3 N  dxy             0.1       0.1       0.0       0.0       0.1       0.0
 4 C  s               0.5       2.7       0.4       0.9       0.2       0.0
 4 C  pz              0.0       0.0       0.0       0.0       0.0       9.1
 4 C  px              5.2       0.9       1.1       4.1       2.5       0.0
 4 C  py              0.1       2.1       4.4       6.9       2.1       0.0
 4 C  dx2y2           0.0       0.0       0.0       0.1       0.2       0.0
 4 C  dxy             0.0       0.0       0.1       0.0       0.8       0.0
 5 C  s               0.3       2.3       2.1       0.0       0.4       0.0
 5 C  pz              0.0       0.0       0.0       0.0       0.0       9.0
 5 C  px              5.7       0.1       4.8       1.9       5.1       0.0
 5 C  py              0.2       2.6       0.0      14.0       1.5       0.0
 5 C  dx2y2           0.0       0.0       0.2       0.2       0.2       0.0
 6 C  s               2.8       0.9       0.2       0.5       0.9       0.0
 6 C  pz              0.0       0.0       0.0       0.0       0.0       5.3
 6 C  px              2.6       1.5       9.5       3.2       1.2       0.0
 6 C  py              1.0       1.4       1.1       0.7       1.3       0.0
 6 C  dx2y2           0.1       0.0       0.4       0.0       0.1       0.0
 6 C  dxy             0.0       0.2       0.0       0.1       0.0       0.0
 7 O  s               1.5       0.8       0.6       0.6       0.1       0.0
 7 O  pz              0.0       0.0       0.0       0.0       0.0       1.4
[...]
 5 C  px              0.5       1.2       0.0       0.0       0.1       0.0
 5 C  dz2             0.1       0.1       0.0       0.0       0.0       0.0
 5 C  dx2y2           0.3       1.5       0.0       0.0       0.0       0.0
 6 C  s               1.3       2.2       2.9       1.5       5.0       0.0
 6 C  px              0.2       0.7       0.0       0.0       0.0       0.0
 6 C  py              2.7       5.3       0.0       0.0       0.0       0.0
 6 C  dz2             0.3       0.6       0.0       0.0       0.0       0.0
 6 C  dx2y2           1.0       3.3       0.0       0.0       0.0       0.0
 6 C  dxy             0.4       1.0       0.0       0.0       0.0       0.0
 7 O  s               6.5      12.5       0.0       0.0       0.0       0.0
 7 O  px              0.7       1.2       0.0       0.0       0.0       0.0
 7 O  py              6.3      11.9       0.0       0.0       0.0       0.0
 7 O  dz2             2.4       3.9       0.0       0.0       0.0       0.0
 7 O  dx2y2           4.6       9.0       0.0       0.0       0.0       0.0
 7 O  dxy             2.4       5.0       0.0       0.0       0.0       0.0
 8 N  s               0.1       0.2       0.0       0.0       0.1       0.2
 8 N  px              0.1       0.3       0.0       0.0       0.0       0.0
 8 N  py              0.4       0.2       0.0       0.0       0.0       0.1
 8 N  dz2             0.0       0.2       0.0       0.0       0.0       0.0
 8 N  dx2y2           0.2       0.2       0.0       0.0       0.0       0.0
 8 N  dxy             0.3       1.2       0.0       0.0       0.0       0.0
 9 C  s               2.9       1.2       0.0       0.0       2.3       0.2
 9 C  px              6.2       2.7       0.0       0.0       0.0       0.0
 9 C  py              0.5       0.0       0.0       0.0       0.0       0.1
 9 C  dz2             0.7       0.2       0.0       0.0       0.0       0.0
 9 C  dx2y2           3.4       1.8       0.0       0.0       0.0       0.0
 9 C  dxy             0.0       0.3       0.0       0.0       0.0       0.0
10 O  s              13.8       5.9       0.0       0.0       0.0       0.0
10 O  px             15.1       6.1       0.0       0.0       0.0       0.0
10 O  py              0.4       0.1       0.0       0.0       0.0       0.0
10 O  dz2             4.9       1.7       0.0       0.0       0.0       0.0
10 O  dx2y2          15.4       6.4       0.0       0.0       0.0       0.0
10 O  dxy             1.5       0.4       0.0       0.0       0.0       0.0
11 N  s               0.4       0.1       0.0       0.0       0.3       0.0
11 N  px              0.2       0.1       0.0       0.0       0.0       0.0
11 N  py              0.1       0.3       0.0       0.0       0.0       0.1
11 N  dz2             0.1       0.0       0.0       0.0       0.0       0.0
11 N  dx2y2           0.3       0.3       0.0       0.0       0.0       0.0
11 N  dxy             0.1       0.6       0.0       0.0       0.0       0.0
12 C  s               0.0       0.0       0.7      29.9      43.1      24.3
12 C  dxy             0.0       0.1       0.0       0.0       0.0       0.0
13 C  s               0.1       0.1       1.5      31.4       0.9      57.3
13 C  dxy             0.1       0.2       0.0       0.0       0.0       0.0

                    336       337       338       339       340       341   
                  22.22796  22.36869  22.44972  22.47681  31.89513  32.01107
                   0.00000   0.00000   0.00000   0.00000   0.00000   0.00000
                  --------  --------  --------  --------  --------  --------
 0 C  s               6.2       0.8       0.3       1.2       0.0       0.0
 1 N  s               0.0       0.0       0.1       0.0      65.6      18.5
 1 N  py              0.2       0.0       0.0       0.0       0.0       0.0
 2 C  s              49.3      14.3       6.8       3.4       0.0       0.0
 3 N  s               0.1       0.0       0.0       0.0      27.4       7.3
 4 C  s               4.1       8.0      36.1      18.9       0.0       0.0
 5 C  s              11.8       9.9      26.5       3.0       0.0       0.0
 6 C  s              19.4      65.0       2.6       2.3       0.0       0.0
 7 O  s               0.1       0.1       0.0       0.0       0.0       0.0
 8 N  s               0.1       0.1       0.0       0.0       1.2      40.0
 8 N  px              0.0       0.1       0.0       0.0       0.0       0.0
 8 N  py              0.0       0.0       0.1       0.1       0.0       0.0
 9 C  s               1.0       0.2      25.6      69.3       0.0       0.0
10 O  s               0.0       0.0       0.1       0.1       0.0       0.0
10 O  px              0.0       0.0       0.0       0.1       0.0       0.0
11 N  s               0.0       0.0       0.2       0.0       5.7      33.9
11 N  px              0.0       0.0       0.0       0.2       0.0       0.0
11 N  py              0.0       0.0       0.0       0.1       0.0       0.0
12 C  s               0.2       0.3       0.1       0.6       0.0       0.0
13 C  s               6.8       0.4       0.7       0.2       0.0       0.0

                    342       343       344       345   
                  32.09465  32.17655  43.78919  43.83613
                   0.00000   0.00000   0.00000   0.00000
                  --------  --------  --------  --------
 1 N  s              13.2       2.5       0.0       0.0
 3 N  s              38.8      26.2       0.0       0.0
 4 C  px              0.0       0.1       0.0       0.0
 7 O  s               0.0       0.0      73.6      26.2
 8 N  s              44.9      13.7       0.0       0.0
10 O  s               0.0       0.0      26.3      73.6
11 N  s               2.9      57.3       0.0       0.0


                      *****************************
                      * MAYER POPULATION ANALYSIS *
                      *****************************

  NA   - Mulliken gross atomic population
  ZA   - Total nuclear charge
  QA   - Mulliken gross atomic charge
  VA   - Mayer's total valence
  BVA  - Mayer's bonded valence
  FA   - Mayer's free valence

  ATOM       NA         ZA         QA         VA         BVA        FA
  0 C      6.4003     6.0000    -0.4003     3.7726     3.7726     0.0000
  1 N      6.7099     7.0000     0.2901     3.4699     3.4699    -0.0000
  2 C      6.0407     6.0000    -0.0407     3.8605     3.8605     0.0000
  3 N      7.2543     7.0000    -0.2543     3.0122     3.0122     0.0000
  4 C      6.1207     6.0000    -0.1207     4.2637     4.2637    -0.0000
  5 C      6.0225     6.0000    -0.0225     3.7065     3.7065    -0.0000
  6 C      6.0426     6.0000    -0.0426     4.0733     4.0733    -0.0000
  7 O      8.4461     8.0000    -0.4461     2.0165     2.0165    -0.0000
  8 N      6.8619     7.0000     0.1381     3.3417     3.3417    -0.0000
  9 C      5.7537     6.0000     0.2463     4.1122     4.1122    -0.0000
 10 O      8.4808     8.0000    -0.4808     2.0446     2.0446     0.0000
 11 N      6.8054     7.0000     0.1946     3.5398     3.5398    -0.0000
 12 C      6.3865     6.0000    -0.3865     3.8329     3.8329    -0.0000
 13 C      6.3966     6.0000    -0.3966     3.8230     3.8230    -0.0000
 14 H      0.8409     1.0000     0.1591     0.9550     0.9550    -0.0000
 15 H      0.7843     1.0000     0.2157     0.9505     0.9505    -0.0000
 16 H      0.8405     1.0000     0.1595     0.9547     0.9547     0.0000
 17 H      0.8577     1.0000     0.1423     0.9743     0.9743     0.0000
 18 H      0.8331     1.0000     0.1669     0.9540     0.9540    -0.0000
 19 H      0.8351     1.0000     0.1649     0.9540     0.9540     0.0000
 20 H      0.8125     1.0000     0.1875     0.9533     0.9533    -0.0000
 21 H      0.8016     1.0000     0.1984     0.9525     0.9525    -0.0000
 22 H      0.8359     1.0000     0.1641     0.9549     0.9549    -0.0000
 23 H      0.8362     1.0000     0.1638     0.9549     0.9549    -0.0000

  Mayer bond orders larger than 0.100000
B(  0-C ,  1-N ) :   0.8853 B(  0-C , 14-H ) :   0.9528 B(  0-C , 15-H ) :   0.9436 
B(  0-C , 16-H ) :   0.9523 B(  1-N ,  2-C ) :   1.2501 B(  1-N ,  5-C ) :   1.2290 
B(  2-C ,  3-N ) :   1.4414 B(  2-C , 17-H ) :   0.9611 B(  3-N ,  4-C ) :   1.3904 
B(  4-C ,  5-C ) :   1.3953 B(  4-C , 11-N ) :   1.2709 B(  5-C ,  6-C ) :   1.0138 
B(  6-C ,  7-O ) :   1.8546 B(  6-C ,  8-N ) :   1.0916 B(  8-N ,  9-C ) :   1.1277 
B(  8-N , 13-C ) :   0.8958 B(  9-C , 10-O ) :   1.8079 B(  9-C , 11-N ) :   1.1229 
B( 11-N , 12-C ) :   0.8804 B( 12-C , 18-H ) :   0.9465 B( 12-C , 19-H ) :   0.9457 
B( 12-C , 20-H ) :   0.9617 B( 13-C , 21-H ) :   0.9504 B( 13-C , 22-H ) :   0.9475 
B( 13-C , 23-H ) :   0.9473 

-------
TIMINGS
-------

Total SCF time: 0 days 0 hours 1 min 5 sec 

Total time                  ....      65.977 sec
Sum of individual times     ....      65.231 sec  ( 98.9%)

SCF preparation             ....       0.215 sec  (  0.3%)
Fock matrix formation       ....      63.103 sec  ( 95.6%)
  Startup                   ....       0.080 sec  (  0.1% of F)
  Split-RI-J                ....      16.626 sec  ( 26.3% of F)
  XC integration            ....      45.661 sec  ( 72.4% of F)
    XC Preparation          ....       0.000 sec  (  0.0% of XC)
    Basis function eval.    ....       6.985 sec  ( 15.3% of XC)
    Density eval.           ....      16.110 sec  ( 35.3% of XC)
    XC-Functional eval.     ....       3.534 sec  (  7.7% of XC)
    XC-Potential eval.      ....      17.773 sec  ( 38.9% of XC)
Diagonalization             ....       0.000 sec  (  0.0%)
Density matrix formation    ....       0.349 sec  (  0.5%)
Total Energy calculation    ....       0.047 sec  (  0.1%)
Population analysis         ....       0.223 sec  (  0.3%)
Orbital Transformation      ....       0.092 sec  (  0.1%)
Orbital Orthonormalization  ....       0.000 sec  (  0.0%)
DIIS solution               ....       0.988 sec  (  1.5%)
  MO trafo                  ....       0.000 sec  (  0.0 % of DIIS)
  Orb grad                  ....       0.000 sec  (  0.0 % of DIIS)
  Energy W gradient         ....       0.000 sec  (  0.0 % of DIIS)
  DIIS error                ....       0.043 sec  (  4.3 % of DIIS)
  DIIS work                 ....       0.879 sec  ( 89.0 % of DIIS)
  Form Q                    ....       0.000 sec  (  0.0 % of DIIS)
  Form QpQm                 ....       0.000 sec  (  0.0 % of DIIS)
  Exp/Cayley                ....       0.000 sec  (  0.0 % of DIIS)
  Orb update                ....       0.000 sec  (  0.0 % of DIIS)
  Wake-sleep                ....       0.022 sec  (  2.2 % of DIIS)
SOSCF solution              ....       0.214 sec  (  0.3%)
  MO trafo                  ....       0.094 sec  ( 43.8 % of SOSCF)
  Orb grad                  ....       0.002 sec  (  1.0 % of SOSCF)
  Rot update                ....       0.046 sec  ( 21.4 % of SOSCF)
  Step                      ....       0.072 sec  ( 33.6 % of SOSCF)
Finished LeanSCF after  66.0 sec

Maximum memory used throughout the entire LEANSCF-calculation: 42.0 MB


-------------------------------------------------------------------------------
                          DFT DISPERSION CORRECTION                            
                                                                               
                                DFTD4 V3.4.0                                   
-------------------------------------------------------------------------------
The R2SCAN3C composite method is recognized
Using three-body term ABC
Active option DFTDOPT                   ...         5   

-------------------------   ----------------
Dispersion correction           -0.009842060
-------------------------   ----------------

------------------   -----------------
gCP correction             0.029444025
------------------   -----------------

-------------------------   --------------------
FINAL SINGLE POINT ENERGY      -680.225580815013
-------------------------   --------------------


------------------------------------------------------------------------------
                              ORCA PROPERTY CALCULATIONS
------------------------------------------------------------------------------

GBWName                                 ... sp_gas.gbw
Number of atoms                         ...     24
Number of basis functions               ...    346
Max core memory                         ...   1024 MB

Electric properties:
Dipole moment                           ... YES
Quadrupole moment                       ...  NO
Static polarizability (Dipole/Dipole)   ...  NO
Static polarizability (Dipole/Quad.)    ...  NO
Static polarizability (Quad./Quad.)     ...  NO
Static polarizability (Velocity)        ...  NO

Atomic electric properties:
Dipole moment                           ...  NO
Quadrupole moment                       ...  NO
Static polarizability                   ...  NO

Choice of electric origin               ... Center of mass
Position of electric origin             ...     0.000016    -0.000014    -0.000000

General magnetic properties:
Magnetizability                         ...  NO

EPR properties:
g-Tensor (aka g-matrix)                 ...  NO
Zero-Field splitting spin-orbit         ...  NO
Zero-field splitting spin-spin          ...  NO
Hyperfine couplings                     ...  NO (   0 nuclei)
Quadrupole couplings                    ...  NO (   0 nuclei)
Contact density                         ...  NO (   0 nuclei)

NMR properties:
Chemical shifts                         ...  NO (   0 nuclei)
Spin-rotation constants                 ...  NO (   0 nuclei)
Spin-spin couplings                     ...  NO (   0 nuclei,    0 pairs)

Choice of magnetic origin               ... GIAO
Position of magnetic origin             ...     0.000000     0.000000     0.000000

Properties with geometric perturbations:
SCF Hessian                             ...  NO
IR spectrum                             ...  NO
VCD spectrum                            ...  NO
X-ray spectroscopy properties:
SCF XES/XAS/RIXS spectra                ...  NO


-------------
DIPOLE MOMENT
-------------

Method             : SCF
Type of density    : Electron Density
Multiplicity       :   1
Irrep              :   0
Energy             :  -680.2451827796975294 Eh
Relativity type    : 
Basis              : AO
                                X                 Y                 Z
Electronic contribution:     -0.296395831      -1.080712744      -0.005228302
Nuclear contribution   :      1.753664437       0.757598347       0.003926061
                        -----------------------------------------
Total Dipole Moment    :      1.457268606      -0.323114397      -0.001302241
                        -----------------------------------------
Magnitude (a.u.)       :      1.492660845
Magnitude (Debye)      :      3.794042351



--------------------
Rotational spectrum 
--------------------
 
Rotational constants in cm-1:             0.035719             0.023854             0.014418 
Rotational constants in MHz :          1070.813801           715.120809           432.253133 

Dipole components along the rotational axes: 
x,y,z [a.u.] :     1.454780    -0.334139    -0.001298 
x,y,z [Debye]:     3.697758    -0.849314    -0.003300 

 

Dipole moment calculation done in   0.0 sec 

Maximum memory used throughout the entire PROP-calculation: 27.6 MB

--------------------------------
SUGGESTED CITATIONS FOR THIS RUN
--------------------------------

Below you find a list of papers that are relevant to this ORCA run
We neither can nor want to force you to cite these papers, but we appreciate if you do
You receive ORCA, which is the product of decades of hard work by many enthusiastic individuals, for free
The only thing we kindly ask in return is that you cite our papers,
We deeply appreciate it, if you show your appreciation for ORCA by not just citing the generic ORCA reference.

Please note that relegating all ORCA citations to the supporting information does *not* help us.
SI sections are not indexed - citations you put there will not count into any citation statistics
But we need these citations in order to attract the funding resources that allow us to do what we are doing

Therefore, if you are a happy ORCA user, please consider citing a few of the papers listed below in the main body of your paper

In addition to the list printed below, the program has created the file sp_gas.bibtex that contains the list in bibtex format
You can import this file easily into all common literature databanks and citation aid programs


List of essential papers. We consider these as the minimum necessary citations

  1. Neese,F.
     Software update: the ORCA program system, version 5.0
     WIRES Comput. Molec. Sci., 2022 12(1)e1606
     doi.org/10.1002/wcms.1606
  2. Grimme,S.; Hansen,A.; Ehlert,S.; Mewes,J.
     r2SCAN-3c: A 'Swiss army knife' composite electronic-structure method
     J. Chem. Phys., 2021 154 064103
     doi.org/10.1063/5.0040021

List of papers to cite with high priority. The work reported in these papers was absolutely
necessary for this run to complete.
Our perspective: the developers of density functionals and basis sets usually get cited in chemistry papers
Good! But without the algorithms to do something with them, the functionals or basis sets would not do anything.
Hence, in our opinion, the algorithm design and method developments papers are equally worthy of getting cited

  1. Neese,F.
     An improvement of the resolution of the identity approximation for the formation of the Coulomb matrix
     J. Comp. Chem., 2003 24(14)1740-1747
     doi.org/10.1002/jcc.10318
  2. Neese,F.
     The SHARK Integral Generation and Digestion System
     J. Comp. Chem., 2022  1-16
     doi.org/10.1002/jcc.26942
  3. Lehtola,S.; Steigemann,C.; Oliveira,M.; Marques,M.
     Recent developments in Libxc - A comprehensive library of functionals for density functional theory
     Software X, 2018 7 
     doi.org/10.1016/j.softx.2017.11.002
  4. Caldeweyher,E.; Bannwarth,C.; Grimme,S.
     Extension of the D3 dispersion coefficient model
     J. Chem. Phys., 2017 147 034112-XXXX
     doi.org/10.1063/1.4993215
  5. Caldeweyher,E.; Ehlert,S.; Hansen,A.; Neugebauer,H.; Spicher,S.; Bannwarth,C.; Grimme,S.
     A generally applicable atomic-charge dependent London dispersion correction
     J. Chem. Phys., 2019 150 154122-XXXX
     doi.org/10.1063/1.5090222
  6. Caldeweyher,E.; Mewes,J.; Ehlert,S.; Grimme,S.
     Extension and evaluation of the D4 London-dispersion model for periodic systems
     Phys. Chem. Chem. Phys., 2020 22(16)8499-8512
     doi.org/10.1039/D0CP00502A

List of suggested additional citations. These are papers that are important in the 'surrounding' of 
of this run, or papers that preceded the highly important papers. If you like your results we are grateful for a citation.

  1. Neese,F.
     The ORCA program system
     WIRES Comput. Molec. Sci., 2012 2(1)73-78
     doi.org/10.1002/wcms.81
  2. Neese,F.
     Software update: the ORCA program system, version 4.0
     WIRES Comput. Molec. Sci., 2018 8(1)1-6
     doi.org/10.1002/wcms.1327
  3. Neese,F.; Wennmohs,F.; Becker,U.; Riplinger,C.
     The ORCA quantum chemistry program package
     J. Chem. Phys., 2020 152 Art. No. L224108
     doi.org/10.1063/5.0004608

List of optional additional citations

  1. Neese,F.
     Approximate second-order SCF convergence for spin unrestricted wavefunctions
     Chem. Phys. Lett., 2000 325(1-3)93-98
     doi.org/10.1016/s0009-2614(00)00662-x

Timings for individual modules:

Sum of individual times          ...       68.559 sec (=   1.143 min)
Startup calculation              ...        1.970 sec (=   0.033 min)   2.9 %
SCF iterations                   ...       66.454 sec (=   1.108 min)  96.9 %
Property calculations            ...        0.135 sec (=   0.002 min)   0.2 %
                             ****ORCA TERMINATED NORMALLY****
TOTAL RUN TIME: 0 days 0 hours 1 minutes 9 seconds 299 msec
