
                                 *****************
                                 * O   R   C   A *
                                 *****************

                                            #,                                       
                                            ###                                      
                                            ####                                     
                                            #####                                    
                                            ######                                   
                                           ########,                                 
                                     ,,################,,,,,                         
                               ,,#################################,,                 
                          ,,##########################################,,             
                       ,#########################################, ''#####,          
                    ,#############################################,,   '####,        
                  ,##################################################,,,,####,       
                ,###########''''           ''''###############################       
              ,#####''   ,,,,##########,,,,          '''####'''          '####       
            ,##' ,,,,###########################,,,                        '##       
           ' ,,###''''                  '''############,,,                           
         ,,##''                                '''############,,,,        ,,,,,,###''
      ,#''                                            '''#######################'''  
     '                                                          ''''####''''         
             ,#######,   #######,   ,#######,      ##                                
            ,#'     '#,  ##    ##  ,#'     '#,    #''#        ,####,   ,####,        
            ##       ##  ##   ,#'  ##            #'  '#       #'       #'  '#        
            ##       ##  #######   ##           ,######,      #####,   #    #        
            '#,     ,#'  ##    ##  '#,     ,#' ,#      #,     #,   #   #,  ,#        
             '#######'   ##     ##  '#######'  #'      '#     '####' # '####'        



                #########################################################
                #                        -***-                          #
                #          Department of theory and spectroscopy        #
                #                                                       #
                #                      Frank Neese                      #
                #                                                       #
                #     Directorship, Architecture, Infrastructure        #
                #                    SHARK, DRIVERS                     #
                #        Core code/Algorithms in most modules           #
                #                                                       #
                #        Max Planck Institute fuer Kohlenforschung      #
                #                Kaiser Wilhelm Platz 1                 #
                #                 D-45470 Muelheim/Ruhr                 #
                #                      Germany                          #
                #                                                       #
                #                  All rights reserved                  #
                #                        -***-                          #
                #########################################################


                         Program Version 6.0.0  -   RELEASE  -


 With contributions from (in alphabetic order):
   Daniel Aravena         : Magnetic Suceptibility
   Michael Atanasov       : Ab Initio Ligand Field Theory (pilot matlab implementation)
   Alexander A. Auer      : GIAO ZORA, VPT2 properties, NMR spectrum
   Ute Becker             : All parallelization in ORCA, NUMFREQ, NUMCALC
   Giovanni Bistoni       : ED, misc. LED, open-shell LED, HFLD
   Martin Brehm           : Molecular dynamics
   Dmytro Bykov           : pre 5.0 version of the SCF Hessian
   Marcos Casanova-Páez   : Triplet and SCS-CIS(D). UHF-(DLPNO)-IP/EA/STEOM-CCSD. UHF-CVS-IP/STEOM-CCSD
   Vijay G. Chilkuri      : MRCI spin determinant printing, contributions to CSF-ICE
   Pauline Colinet        : FMM embedding
   Dipayan Datta          : RHF DLPNO-CCSD density
   Achintya Kumar Dutta   : EOM-CC, STEOM-CC
   Nicolas Foglia         : Exact transition moments, OPA infrastructure, MCD improvements
   Dmitry Ganyushin       : Spin-Orbit,Spin-Spin,Magnetic field MRCI
   Miquel Garcia          : C-PCM and meta-GGA Hessian, CCSD/C-PCM, Gaussian charge scheme
   Tiago L. C. Gouveia    : GS-ROHF, GS-ROCIS
   Yang Guo               : DLPNO-NEVPT2, F12-NEVPT2, CIM, IAO-localization
   Andreas Hansen         : Spin unrestricted coupled pair/coupled cluster methods
   Ingolf Harden          : AUTO-CI MPn and infrastructure 
   Benjamin Helmich-Paris : MC-RPA, TRAH-(SCF,CASSCF), AVAS, COSX integrals, SCF dyn. polar.
   Lee Huntington         : MR-EOM, pCC
   Robert Izsak           : Overlap fitted RIJCOSX, COSX-SCS-MP3, EOM
   Riya Kayal             : Wick's Theorem for AUTO-CI, AUTO-CI UHF-CCSDT
   Emily Kempfer          : AUTO-CI, RHF CISDT and CCSDT
   Christian Kollmar      : KDIIS, OOCD, Brueckner-CCSD(T), CCSD density, CASPT2, CASPT2-K, improved NEVPT2
   Axel Koslowski         : Symmetry handling
   Simone Kossmann        : Meta GGA functionals, TD-DFT gradient, OOMP2, (MP2 Hessian; deprecated post 5.0)
   Lucas Lang             : DCDCAS
   Marvin Lechner         : AUTO-CI (C++ implementation), FIC-MRCC
   Spencer Leger          : CASSCF response
   Dagmar Lenk            : GEPOL surface, SMD, ORCA-2-JSON
   Dimitrios Liakos       : Extrapolation schemes; Compound Job, initial MDCI parallelization
   Dimitrios Manganas     : Further ROCIS development; embedding schemes. LFT, Crystal Embedding
   Dimitrios Pantazis     : SARC Basis sets
   Anastasios Papadopoulos: AUTO-CI, single reference methods and gradients
   Taras Petrenko         : pre 6.0 DFT Hessian and TD-DFT gradient, (ASA, deprecated), ECA, 1-Electron XAS/XES, NRVS
   Peter Pinski           : DLPNO-MP2, DLPNO-MP2 Gradient
   Christoph Reimann      : Effective Core Potentials
   Marius Retegan         : Local ZFS, SOC
   Christoph Riplinger    : Optimizer, TS searches, QM/MM, DLPNO-CCSD(T), (RO)-DLPNO pert. Triples
   Michael Roemelt        : Original ROCIS implementation
   Masaaki Saitow         : Open-shell DLPNO-CCSD energy and density
   Barbara Sandhoefer     : DKH picture change effects
   Kantharuban Sivalingam : CASSCF convergence/infrastructure, NEVPT2 and variants, FIC-MRCI
   Bernardo de Souza      : ESD, SOC TD-DFT
   Georgi Stoychev        : AutoAux, RI-MP2 NMR, DLPNO-MP2 response, X2C
   Van Anh Tran           : RI-MP2 g-tensors
   Willem Van den Heuvel  : Paramagnetic NMR
   Zikuan Wang            : NOTCH, Electric field optimization 
   Frank Wennmohs         : Technical directorship and infrastructure
   Hang Xu                : AUTO-CI-Response properties 


 We gratefully acknowledge several colleagues who have allowed us to
 interface, adapt or use parts of their codes:
   Stefan Grimme, W. Hujo, H. Kruse, P. Pracht,  : VdW corrections, initial TS optimization,
                  C. Bannwarth, S. Ehlert,         DFT functionals, gCP, sTDA/sTD-DF
                  L. Wittmann, M. Mueller
   Ed Valeev, F. Pavosevic, A. Kumar             : LibInt (2-el integral package), F12 methods
   Garnet Chan, S. Sharma, J. Yang, R. Olivares  : DMRG
   Ulf Ekstrom                                   : XCFun DFT Library
   Mihaly Kallay                                 : mrcc  (arbitrary order and MRCC methods)
   Frank Weinhold                                : gennbo (NPA and NBO analysis)
   Simon Mueller                                 : openCOSMO-RS
   Christopher J. Cramer and Donald G. Truhlar   : smd solvation model
   Lars Goerigk                                  : TD-DFT with DH, B97 family of functionals
   V. Asgeirsson, H. Jonsson                     : NEB implementation
   FAccTs GmbH                                   : IRC, NEB, NEB-TS, DLPNO-Multilevel, CI-OPT
                                                   MM, QMMM, 2- and 3-layer-ONIOM, Crystal-QMMM,
                                                   LR-CPCM, SF, NACMEs, symmetry and pop. for TD-DFT,
                                                   nearIR, NL-DFT gradient (VV10), updates on ESD,
                                                   ML-optimized integration grids, MBIS, APM,
                                                   GOAT, DOCKER, SOLVATOR, interface openCOSMO-RS
   S Lehtola, MJT Oliveira, MAL Marques          : LibXC Library
   Liviu Ungur et al                             : ANISO software


 Your calculation uses the libint2 library for the computation of 2-el integrals
 For citations please refer to: http://libint.valeyev.net

 Your ORCA version has been built with support for libXC version: 6.2.2
 For citations please refer to: https://libxc.gitlab.io

 This ORCA versions uses:
   CBLAS   interface :  Fast vector & matrix operations
   LAPACKE interface :  Fast linear algebra routines
   SCALAPACK package :  Parallel linear algebra routines
   Shared memory     :  Shared parallel matrices
   BLAS/LAPACK       :  OpenBLAS 0.3.27  USE64BITINT DYNAMIC_ARCH NO_AFFINITY SkylakeX SINGLE_THREADED
        Core in use  :  SkylakeX
   Copyright (c) 2011-2014, The OpenBLAS Project


Your calculation utilizes the geometrical counterpoise correction gCP
Please cite in your paper:
H.Kruse, S. Grimme J.Chem.Phys., 136, (2012), 154101 
   

Your calculation utilizes the atom-pairwise dispersion correction
based on EEQ partial charges (D4)


================================================================================

----- Orbital basis set information -----
Your calculation utilizes the basis: def2-SV(P)
   F. Weigend and R. Ahlrichs, Phys. Chem. Chem. Phys. 7, 3297 (2005).

----- AuxJ basis set information -----
Your calculation utilizes the auxiliary basis: def2/J
   F. Weigend, Phys. Chem. Chem. Phys. 8, 1057 (2006).

================================================================================
                                        WARNINGS
                       Please study these warnings very carefully!
================================================================================


================================================================================
                                       INPUT FILE
================================================================================
NAME = sp.inp
|  1> ! pbe def2-sv(p) def2/J RI DEFGRID1 loosescf d4 GCP(DFT/SV(P)) printgap
|  2> %output
|  3>     printlevel normal
|  4> end
|  5> * xyz 0 1
|  6> C -2.5460244535 -0.7020831399 -0.3452707638
|  7> C -1.1632340258 -0.3368806911 0.2144018579
|  8> H -1.1942434459 -0.321246273 1.317492285
|  9> C -0.7176164224 1.0468936576 -0.294530997
| 10> H -0.7436656431 1.0469156624 -1.3895720942
| 11> C 0.7194986996 1.3299142943 0.1673010393
| 12> H 0.7334060423 1.4313616928 1.2668628638
| 13> C 1.6533903909 0.1729701172 -0.2116114835
| 14> H 1.7292169628 0.1316815835 -1.3090320218
| 15> C 1.0624951014 -1.1586276042 0.2956559105
| 16> H 1.0626909087 -1.1430518354 1.3981923129
| 17> O -0.245867358 -1.3281599378 -0.2048412576
| 18> O 1.8050261257 -2.2575082188 -0.0667815521
| 19> O 2.9205224612 0.3311690091 0.3678409439
| 20> O 1.2297377824 2.502468689 -0.4222366216
| 21> O -1.5844656585 2.0770886649 0.103345363
| 22> O -3.1637546313 -1.7710512474 0.3186031481
| 23> H -2.4192415583 -1.028343348 -1.3788540844
| 24> H -3.1751894626 0.1961730835 -0.3241704105
| 25> H 1.7386905874 -2.3965417495 -1.0250412797
| 26> H 3.2746097963 1.1923888916 0.0957302462
| 27> H 0.5426301895 3.1864352271 -0.4061209449
| 28> H -1.636241037 2.1125728611 1.0708265943
| 29> H -3.355274617 -1.5256119911 1.2350755749
| 30> *
| 31> 
| 32>                          ****END OF INPUT****
================================================================================

                       ****************************
                       * Single Point Calculation *
                       ****************************

---------------------------------
CARTESIAN COORDINATES (ANGSTROEM)
---------------------------------
  C     -2.546024   -0.702083   -0.345271
  C     -1.163234   -0.336881    0.214402
  H     -1.194243   -0.321246    1.317492
  C     -0.717616    1.046894   -0.294531
  H     -0.743666    1.046916   -1.389572
  C      0.719499    1.329914    0.167301
  H      0.733406    1.431362    1.266863
  C      1.653390    0.172970   -0.211611
  H      1.729217    0.131682   -1.309032
  C      1.062495   -1.158628    0.295656
  H      1.062691   -1.143052    1.398192
  O     -0.245867   -1.328160   -0.204841
  O      1.805026   -2.257508   -0.066782
  O      2.920522    0.331169    0.367841
  O      1.229738    2.502469   -0.422237
  O     -1.584466    2.077089    0.103345
  O     -3.163755   -1.771051    0.318603
  H     -2.419242   -1.028343   -1.378854
  H     -3.175189    0.196173   -0.324170
  H      1.738691   -2.396542   -1.025041
  H      3.274610    1.192389    0.095730
  H      0.542630    3.186435   -0.406121
  H     -1.636241    2.112573    1.070827
  H     -3.355275   -1.525612    1.235076

----------------------------
CARTESIAN COORDINATES (A.U.)
----------------------------
  NO LB      ZA    FRAG     MASS         X           Y           Z
   0 C     6.0000    0    12.011   -4.811289   -1.326745   -0.652467
   1 C     6.0000    0    12.011   -2.198194   -0.636612    0.405161
   2 H     1.0000    0     1.008   -2.256793   -0.607067    2.489700
   3 C     6.0000    0    12.011   -1.356099    1.978342   -0.556583
   4 H     1.0000    0     1.008   -1.405324    1.978384   -2.625911
   5 C     6.0000    0    12.011    1.359655    2.513174    0.316153
   6 H     1.0000    0     1.008    1.385937    2.704882    2.394024
   7 C     6.0000    0    12.011    3.124455    0.326866   -0.399888
   8 H     1.0000    0     1.008    3.267746    0.248842   -2.473712
   9 C     6.0000    0    12.011    2.007825   -2.189489    0.558709
  10 H     1.0000    0     1.008    2.008195   -2.160055    2.642201
  11 O     8.0000    0    15.999   -0.464622   -2.509859   -0.387094
  12 O     8.0000    0    15.999    3.411005   -4.266072   -0.126199
  13 O     8.0000    0    15.999    5.518988    0.625819    0.695119
  14 O     8.0000    0    15.999    2.323868    4.728980   -0.797912
  15 O     8.0000    0    15.999   -2.994206    3.925129    0.195294
  16 O     8.0000    0    15.999   -5.978630   -3.346802    0.602073
  17 H     1.0000    0     1.008   -4.571704   -1.943287   -2.605657
  18 H     1.0000    0     1.008   -6.000239    0.370713   -0.612593
  19 H     1.0000    0     1.008    3.285649   -4.528808   -1.937047
  20 H     1.0000    0     1.008    6.188116    2.253288    0.180904
  21 H     1.0000    0     1.008    1.025422    6.021490   -0.767457
  22 H     1.0000    0     1.008   -3.092047    3.992184    2.023569
  23 H     1.0000    0     1.008   -6.340550   -2.882989    2.333955

--------------------------------
INTERNAL COORDINATES (ANGSTROEM)
--------------------------------
 C      0   0   0     0.000000000000     0.00000000     0.00000000
 C      1   0   0     1.535811068794     0.00000000     0.00000000
 H      2   1   0     1.103636946429   110.01738104     0.00000000
 C      2   1   3     1.540265933979   110.71431124   239.44827422
 H      4   2   1     1.095350887588   108.87248885   304.40742593
 C      4   2   1     1.535802521300   109.68932963   185.41248434
 H      6   4   2     1.104319335492   109.15521208   293.41048256
 C      6   4   2     1.534355962591   110.87489308    52.15148057
 H      8   6   4     1.100811632344   108.44525990    66.39091886
 C      8   6   4     1.542604921490   109.66579617   307.73980404
 H     10   8   6     1.102646435414   108.45403400   294.04782953
 O     10   8   6     1.411046049064   110.01393741    55.48477194
 O     10   8   6     1.374864299299   113.35161920   176.68667627
 O      8   6   4     1.402289445372   111.27712616   188.41527949
 O      6   4   2     1.408113057878   111.50775916   172.14659363
 O      4   2   1     1.403935521682   112.76565483    61.23602913
 O      1   2   3     1.401788842272   113.92348575   315.61034778
 H      1   2   3     1.091244292781   108.15858237   198.32654208
 H      1   2   3     1.096885625971   108.34278322    80.01301540
 H     13  10   8     0.970562945841   109.74638679   290.93495103
 H     14   8   6     0.970114301871   108.30420809   303.78298968
 H     15   6   4     0.969632293448   108.88388923    42.71690389
 H     16   4   2     0.969515214381   110.03757810    59.09907388
 H     17   1   2     0.967906009146   110.01394042    64.77897924

---------------------------
INTERNAL COORDINATES (A.U.)
---------------------------
 C      0   0   0     0.000000000000     0.00000000     0.00000000
 C      1   0   0     2.902262313465     0.00000000     0.00000000
 H      2   1   0     2.085571580029   110.01738104     0.00000000
 C      2   1   3     2.910680788629   110.71431124   239.44827422
 H      4   2   1     2.069913198089   108.87248885   304.40742593
 C      4   2   1     2.902246161043   109.68932963   185.41248434
 H      6   4   2     2.086861108473   109.15521208   293.41048256
 C      6   4   2     2.899512561247   110.87489308    52.15148057
 H      8   6   4     2.080232510165   108.44525990    66.39091886
 C      8   6   4     2.915100834456   109.66579617   307.73980404
 H     10   8   6     2.083699785477   108.45403400   294.04782953
 O     10   8   6     2.666490595083   110.01393741    55.48477194
 O     10   8   6     2.598116996981   113.35161920   176.68667627
 O      8   6   4     2.649943012241   111.27712616   188.41527949
 O      6   4   2     2.660948044988   111.50775916   172.14659363
 O      4   2   1     2.653053645662   112.76565483    61.23602913
 O      1   2   3     2.648997009481   113.92348575   315.61034778
 H      1   2   3     2.062152858561   108.15858237   198.32654208
 H      1   2   3     2.072813433320   108.34278322    80.01301540
 H     13  10   8     1.834098163372   109.74638679   290.93495103
 H     14   8   6     1.833250349136   108.30420809   303.78298968
 H     15   6   4     1.832339485222   108.88388923    42.71690389
 H     16   4   2     1.832118237850   110.03757810    59.09907388
 H     17   1   2     1.829077280662   110.01394042    64.77897924

---------------------
BASIS SET INFORMATION
---------------------
There are 3 groups of distinct atoms

 Group   1 Type C   : 7s4p1d contracted to 3s2p1d pattern {511/31/1}
 Group   2 Type H   : 4s contracted to 2s pattern {31}
 Group   3 Type O   : 7s4p1d contracted to 3s2p1d pattern {511/31/1}

Atom   0C    basis set group =>   1
Atom   1C    basis set group =>   1
Atom   2H    basis set group =>   2
Atom   3C    basis set group =>   1
Atom   4H    basis set group =>   2
Atom   5C    basis set group =>   1
Atom   6H    basis set group =>   2
Atom   7C    basis set group =>   1
Atom   8H    basis set group =>   2
Atom   9C    basis set group =>   1
Atom  10H    basis set group =>   2
Atom  11O    basis set group =>   3
Atom  12O    basis set group =>   3
Atom  13O    basis set group =>   3
Atom  14O    basis set group =>   3
Atom  15O    basis set group =>   3
Atom  16O    basis set group =>   3
Atom  17H    basis set group =>   2
Atom  18H    basis set group =>   2
Atom  19H    basis set group =>   2
Atom  20H    basis set group =>   2
Atom  21H    basis set group =>   2
Atom  22H    basis set group =>   2
Atom  23H    basis set group =>   2
---------------------------------
AUXILIARY/J BASIS SET INFORMATION
---------------------------------
There are 3 groups of distinct atoms

 Group   1 Type C   : 12s5p4d2f1g contracted to 6s4p3d1f1g pattern {711111/2111/211/2/1}
 Group   2 Type H   : 5s2p1d contracted to 3s1p1d pattern {311/2/1}
 Group   3 Type O   : 12s5p4d2f1g contracted to 6s4p3d1f1g pattern {711111/2111/211/2/1}

Atom   0C    basis set group =>   1
Atom   1C    basis set group =>   1
Atom   2H    basis set group =>   2
Atom   3C    basis set group =>   1
Atom   4H    basis set group =>   2
Atom   5C    basis set group =>   1
Atom   6H    basis set group =>   2
Atom   7C    basis set group =>   1
Atom   8H    basis set group =>   2
Atom   9C    basis set group =>   1
Atom  10H    basis set group =>   2
Atom  11O    basis set group =>   3
Atom  12O    basis set group =>   3
Atom  13O    basis set group =>   3
Atom  14O    basis set group =>   3
Atom  15O    basis set group =>   3
Atom  16O    basis set group =>   3
Atom  17H    basis set group =>   2
Atom  18H    basis set group =>   2
Atom  19H    basis set group =>   2
Atom  20H    basis set group =>   2
Atom  21H    basis set group =>   2
Atom  22H    basis set group =>   2
Atom  23H    basis set group =>   2
------------------------------------------------------------------------------
                             ORCA STARTUP CALCULATIONS
                           -- RI-GTO INTEGRALS CHOSEN --
------------------------------------------------------------------------------
------------------------------------------------------------------------------
                   ___                                                        
                  /   \      - P O W E R E D   B Y -                         
                 /     \                                                     
                 |  |  |   _    _      __       _____    __    __             
                 |  |  |  | |  | |    /  \     |  _  \  |  |  /  |          
                  \  \/   | |  | |   /    \    | | | |  |  | /  /          
                 / \  \   | |__| |  /  /\  \   | |_| |  |  |/  /          
                |  |  |   |  __  | /  /__\  \  |    /   |      \           
                |  |  |   | |  | | |   __   |  |    \   |  |\   \          
                \     /   | |  | | |  |  |  |  | |\  \  |  | \   \       
                 \___/    |_|  |_| |__|  |__|  |_| \__\ |__|  \__/        
                                                                              
                      - O R C A' S   B I G   F R I E N D -                    
                                      &                                       
                       - I N T E G R A L  F E E D E R -                       
                                                                              
 v1 FN, 2020, v2 2021, v3 2022-2024                                           
------------------------------------------------------------------------------


----------------------
SHARK INTEGRAL PACKAGE
----------------------

Number of atoms                             ...     24
Number of basis functions                   ...    192
Number of shells                            ...     96
Maximum angular momentum                    ...      2
Integral batch strategy                     ... SHARK/LIBINT Hybrid
RI-J (if used) integral strategy            ... SPLIT-RIJ (Revised 2003 algorithm where possible)
Printlevel                                  ...      1
Contraction scheme used                     ... SEGMENTED contraction
Prescreening option                         ... SCHWARTZ
   Thresh                                   ... 1.000e-09
   Tcut                                     ... 1.000e-10
   Tpresel                                  ... 1.000e-10 
Coulomb Range Separation                    ... NOT USED
Exchange Range Separation                   ... NOT USED
Multipole approximations                    ... NOT USED
Finite Nucleus Model                        ... NOT USED
CABS basis                                  ... NOT available
Auxiliary Coulomb fitting basis             ... AVAILABLE
   # of basis functions in Aux-J            ...    720
   # of shells in Aux-J                     ...    240
   Maximum angular momentum in Aux-J        ...      4
Auxiliary J/K fitting basis                 ... NOT available
Auxiliary Correlation fitting basis         ... NOT available
Auxiliary 'external' fitting basis          ... NOT available

Checking pre-screening integrals            ... done (  0.0 sec) Dimension = 96
Check shell pair data                       ... done (  0.0 sec)
Shell pair information
Shell pair cut-off parameter TPreSel        ...   1.0e-10
Total number of shell pairs                 ...      4656
Shell pairs after pre-screening             ...      4118
Total number of primitive shell pairs       ...     18720
Primitive shell pairs kept                  ...     11019
          la=0 lb=0:   1608 shell pairs
          la=1 lb=0:   1309 shell pairs
          la=1 lb=1:    283 shell pairs
          la=2 lb=0:    601 shell pairs
          la=2 lb=1:    255 shell pairs
          la=2 lb=2:     62 shell pairs

Calculating one electron integrals          ... done (  0.0 sec)
Calculating RI/J V-Matrix + Cholesky decomp.... done (  0.1 sec)
Calculating Nuclear repulsion               ... done (  0.0 sec) ENN=    822.638427838272 Eh

Diagonalization of the overlap matrix:
Smallest eigenvalue                        ... 9.785e-04
Time for diagonalization                   ...    0.003 sec
Threshold for overlap eigenvalues          ... 1.000e-07
Number of eigenvalues below threshold      ... 0
Time for construction of square roots      ...    0.012 sec
Total time needed                          ...    0.024 sec

-------------------
DFT GRID GENERATION
-------------------

General Integration Accuracy     IntAcc      ... 4.159
Radial Grid Type                 RadialGrid  ... OptM3 with GC (2021)
Angular Grid (max. ang.)         AngularGrid ... 3 (Lebedev-194)
Angular grid pruning method      GridPruning ... 4 (adaptive)
Weight generation scheme         WeightScheme... mBecke (2022)
Basis function cutoff            BFCut       ... 1.0000e-10
Integration weight cutoff        WCut        ... 1.0000e-14
Partially contracted basis set               ... off
Rotationally invariant grid construction     ... off
Angular grids for H and He will be reduced by one unit

Total number of grid points                  ...    55716
Total number of batches                      ...      883
Average number of points per batch           ...       63
Average number of grid points per atom       ...     2322
Initializing property integral containers    ... done (  0.0 sec)

SHARK setup successfully completed in   0.8 seconds

Maximum memory used throughout the entire STARTUP-calculation: 27.9 MB
-------------------------------------------------------------------------------
                                 ORCA GUESS
                   Start orbitals & Density for SCF / CASSCF
-------------------------------------------------------------------------------

------------
SCF SETTINGS
------------
Hamiltonian:
 Density Functional     Method          .... DFT(GTOs)
 Exchange Functional    Exchange        .... PBE
   PBE kappa parameter   XKappa         ....  0.804000
   PBE mue parameter    XMuePBE         ....  0.219520
 Correlation Functional Correlation     .... PBE
   PBE beta parameter  CBetaPBE         ....  0.066725
 LDA part of GGA corr.  LDAOpt          .... PW91-LDA
 Gradients option       PostSCFGGA      .... off
   NL short-range parameter             ....  6.400000
 RI-approximation to the Coulomb term is turned on
   Number of AuxJ basis functions       .... 720


General Settings:
 Integral files         IntName         .... sp
 Hartree-Fock type      HFTyp           .... RHF
 Total Charge           Charge          ....    0
 Multiplicity           Mult            ....    1
 Number of Electrons    NEL             ....   96
 Basis Dimension        Dim             ....  192
 Nuclear Repulsion      ENuc            ....    822.6384278383 Eh

Convergence Acceleration:
 AO-DIIS                CNVDIIS         .... on
   Start iteration      DIISMaxIt       ....    12
   Startup error        DIISStart       ....  0.200000
   # of expansion vecs  DIISMaxEq       ....     5
   Bias factor          DIISBfac        ....   1.050
   Max. coefficient     DIISMaxC        ....  10.000
 MO-DIIS                CNVKDIIS        .... off
 Trust-Rad. Augm. Hess. CNVTRAH         .... auto
   Auto Start mean grad. ratio tolernc. ....  1.125000
   Auto Start start iteration           ....    50
   Auto Start num. interpolation iter.  ....    10
   Max. Number of Micro iterations      ....    24
   Max. Number of Macro iterations      .... Maxiter - #DIIS iter
   Number of Davidson start vectors     ....     2
   Converg. threshold    (grad. norm)   ....   1.000e-04
   Grad. Scal. Fac. for Micro threshold ....   0.100
   Minimum threshold for Micro iter.    ....   1.000e-02
   NR start threshold (gradient norm)   ....   1.000e-04
   Initial trust radius                 ....   0.400
   Minimum AH scaling param. (alpha)    ....   1.000
   Maximum AH scaling param. (alpha)    .... 1000.000
   Quad. conv. algorithm                .... NR
   White noise on init. David. guess    .... on
   Maximum white noise                  ....   0.010
   Pseudo random numbers                .... off
   Inactive MOs                         .... canonical
   Orbital update algorithm             .... Taylor
   Preconditioner                       .... Diag
   Full preconditioner red. dimension   ....   250
 SOSCF                  CNVSOSCF        .... on
   Start iteration      SOSCFMaxIt      ....   150
   Startup grad/error   SOSCFStart      ....  0.003300
   Hessian update       SOSCFHessUp     .... L-BFGS
 Level Shifting         CNVShift        .... on
   Level shift para.    LevelShift      ....    0.2500
   Turn off err/grad.   ShiftErr        ....    0.0010
 Zerner damping         CNVZerner       .... off
 Static damping         CNVDamp         .... on
   Fraction old density DampFac         ....    0.7000
   Max. Damping (<1)    DampMax         ....    0.9800
   Min. Damping (>=0)   DampMin         ....    0.0000
   Turn off err/grad.   DampErr         ....    0.1000

SCF Procedure:
 Maximum # iterations   MaxIter         ....   125
 SCF integral mode      SCFMode         .... Direct
   Integral package                     .... SHARK and LIBINT hybrid scheme
 Reset frequency        DirectResetFreq ....    20
 Integral Threshold     Thresh          ....  1.000e-09 Eh
 Primitive CutOff       TCut            ....  1.000e-10 Eh

Convergence Tolerance:
 Convergence Check Mode ConvCheckMode   .... Total+1el-Energy
 Convergence forced     ConvForced      .... 0
 Energy Change          TolE            ....  1.000e-05 Eh
 1-El. energy change                    ....  1.000e-02 Eh
 Orbital Gradient       TolG            ....  1.000e-04
 Orbital Rotation angle TolX            ....  1.000e-04
 DIIS Error             TolErr          ....  5.000e-04

------------------------------
INITIAL GUESS: MODEL POTENTIAL
------------------------------
Loading Hartree-Fock densities                     ... done
Calculating cut-offs                               ... done
Initializing the effective Hamiltonian             ... done
Setting up the integral package (SHARK)            ... done
Starting the Coulomb interaction                   ... done (   0.2 sec)
Making the grid                                    ... done (   0.3 sec)
Mapping shells                                     ... done
Starting the XC term evaluation                    ... done (   0.2 sec)
  promolecular density results
     # of electrons  =     95.997072478
     EX              =    -83.238277958
     EC              =     -3.267261774
     EX+EC           =    -86.505539732
Transforming the Hamiltonian                       ... done (   0.0 sec)
Diagonalizing the Hamiltonian                      ... done (   0.0 sec)
Back transforming the eigenvectors                 ... done (   0.0 sec)
Now organizing SCF variables                       ... done
                      ------------------
                      INITIAL GUESS DONE (   0.8 sec)
                      ------------------
             **** ENERGY FILE WAS UPDATED (sp.en.tmp) ****
Finished Guess after   1.0 sec
Maximum memory used throughout the entire GUESS-calculation: 21.6 MB

-------------------------------------------------------------------------------------------
                                      ORCA LEAN-SCF
                              memory conserving SCF solver
-------------------------------------------------------------------------------------------

----------------------------------------D-I-I-S--------------------------------------------
Iteration    Energy (Eh)           Delta-E    RMSDP     MaxDP     DIISErr   Damp  Time(sec)
-------------------------------------------------------------------------------------------
               ***  Starting incremental Fock matrix formation  ***
    1    -685.5085994878270412     0.00e+00  5.33e-03  1.78e-01  2.40e-01  0.700   1.1
    2    -685.6650608124487007    -1.56e-01  3.39e-03  1.17e-01  9.48e-02  0.700   1.1
                               ***Turning on AO-DIIS***
    3    -685.7140002835542418    -4.89e-02  1.13e-03  2.59e-02  2.25e-02  0.700   1.1
    4    -685.7468269235980642    -3.28e-02  1.43e-03  2.46e-02  9.91e-03  0.000   1.0
    5    -685.8227783999134317    -7.60e-02  4.81e-04  1.68e-02  6.62e-03  0.000   1.0
                              *** Initializing SOSCF ***
---------------------------------------S-O-S-C-F--------------------------------------
Iteration    Energy (Eh)           Delta-E    RMSDP     MaxDP     MaxGrad    Time(sec)
--------------------------------------------------------------------------------------
    6    -685.8231711502185135    -3.93e-04  1.49e-04  4.03e-03  1.39e-03     1.0
               *** Restarting incremental Fock matrix formation ***
    7    -685.8232009272126106    -2.98e-05  1.02e-04  2.49e-03  1.98e-04     1.1
    8    -685.8232008641055018     6.31e-08  3.91e-05  7.77e-04  2.55e-04     1.0
                 **** Energy Check signals convergence ****

               *****************************************************
               *                     SUCCESS                       *
               *           SCF CONVERGED AFTER   8 CYCLES          *
               *****************************************************

             **** ENERGY FILE WAS UPDATED (sp.en.tmp) ****

----------------
TOTAL SCF ENERGY
----------------

Total Energy       :       -685.82320086410550 Eh          -18662.19806 eV

Components:
Nuclear Repulsion  :        822.63842783827181 Eh           22385.12966 eV
Electronic Energy  :      -1508.46162870237731 Eh          -41047.32772 eV
One Electron Energy:      -2574.11987255612394 Eh          -70045.36277 eV
Two Electron Energy:       1065.65824385374663 Eh           28998.03505 eV

Virial components:
Potential Energy   :      -1366.94448852365349 Eh          -37196.45056 eV
Kinetic Energy     :        681.12128765954810 Eh           18534.25250 eV
Virial Ratio       :          2.00690319520142

DFT components:
N(Alpha)           :       47.999979514170 electrons
N(Beta)            :       47.999979514170 electrons
N(Total)           :       95.999959028341 electrons
E(X)               :      -84.600929874146 Eh       
E(C)               :       -3.279999834525 Eh       
E(XC)              :      -87.880929708671 Eh       

---------------
SCF CONVERGENCE
---------------

  Last Energy change         ...   -6.3107e-08  Tolerance :   1.0000e-05
  Last MAX-Density change    ...    7.7747e-04  Tolerance :   1.0000e-03
  Last RMS-Density change    ...    3.9100e-05  Tolerance :   1.0000e-04
  Last DIIS Error            ...    1.3948e-03  Tolerance :   5.0000e-04
  Last Orbital Gradient      ...    2.5455e-04  Tolerance :   1.0000e-04
  Last Orbital Rotation      ...    1.8723e-04  Tolerance :   1.0000e-04


----------------
ORBITAL ENERGIES
----------------

  NO   OCC          E(Eh)            E(eV) 
   0   2.0000     -18.778988      -511.0022 
   1   2.0000     -18.773315      -510.8479 
   2   2.0000     -18.761337      -510.5219 
   3   2.0000     -18.755265      -510.3567 
   4   2.0000     -18.749608      -510.2028 
   5   2.0000     -18.749285      -510.1940 
   6   2.0000      -9.986402      -271.7438 
   7   2.0000      -9.954416      -270.8734 
   8   2.0000      -9.953479      -270.8479 
   9   2.0000      -9.949079      -270.7282 
  10   2.0000      -9.942030      -270.5364 
  11   2.0000      -9.935653      -270.3629 
  12   2.0000      -0.984794       -26.7976 
  13   2.0000      -0.961220       -26.1561 
  14   2.0000      -0.940231       -25.5850 
  15   2.0000      -0.928294       -25.2602 
  16   2.0000      -0.920181       -25.0394 
  17   2.0000      -0.912279       -24.8244 
  18   2.0000      -0.710420       -19.3315 
  19   2.0000      -0.694065       -18.8865 
  20   2.0000      -0.619910       -16.8686 
  21   2.0000      -0.591595       -16.0981 
  22   2.0000      -0.566653       -15.4194 
  23   2.0000      -0.549984       -14.9658 
  24   2.0000      -0.505160       -13.7461 
  25   2.0000      -0.497837       -13.5468 
  26   2.0000      -0.480758       -13.0821 
  27   2.0000      -0.460093       -12.5198 
  28   2.0000      -0.446847       -12.1593 
  29   2.0000      -0.434058       -11.8113 
  30   2.0000      -0.421717       -11.4755 
  31   2.0000      -0.412768       -11.2320 
  32   2.0000      -0.396091       -10.7782 
  33   2.0000      -0.382221       -10.4008 
  34   2.0000      -0.362664        -9.8686 
  35   2.0000      -0.355174        -9.6648 
  36   2.0000      -0.323031        -8.7901 
  37   2.0000      -0.315428        -8.5832 
  38   2.0000      -0.310437        -8.4474 
  39   2.0000      -0.300770        -8.1844 
  40   2.0000      -0.286880        -7.8064 
  41   2.0000      -0.277145        -7.5415 
  42   2.0000      -0.268577        -7.3084 
  43   2.0000      -0.240161        -6.5351 
  44   2.0000      -0.236827        -6.4444 
  45   2.0000      -0.223560        -6.0834 
  46   2.0000      -0.217594        -5.9210 
  47   2.0000      -0.207294        -5.6408 
  48   0.0000      -0.001081        -0.0294 
  49   0.0000       0.018024         0.4905 
  50   0.0000       0.030866         0.8399 
  51   0.0000       0.043077         1.1722 
  52   0.0000       0.047090         1.2814 
  53   0.0000       0.062804         1.7090 
  54   0.0000       0.066591         1.8120 
  55   0.0000       0.088901         2.4191 
  56   0.0000       0.093519         2.5448 
  57   0.0000       0.097684         2.6581 
  58   0.0000       0.113477         3.0879 
*Only the first 10 virtual orbitals were printed.

                    ********************************
                    * MULLIKEN POPULATION ANALYSIS *
                    ********************************

-----------------------
MULLIKEN ATOMIC CHARGES
-----------------------
   0 C :    0.099554
   1 C :   -0.008697
   2 H :    0.023778
   3 C :    0.016323
   4 H :    0.072930
   5 C :    0.058577
   6 H :    0.037062
   7 C :    0.048189
   8 H :    0.041916
   9 C :    0.205224
  10 H :    0.052634
  11 O :   -0.294733
  12 O :   -0.366424
  13 O :   -0.407415
  14 O :   -0.420652
  15 O :   -0.412189
  16 O :   -0.425098
  17 H :    0.089307
  18 H :    0.078900
  19 H :    0.302063
  20 H :    0.309948
  21 H :    0.304954
  22 H :    0.300919
  23 H :    0.292928
Sum of atomic charges:   -0.0000000

--------------------------------
MULLIKEN REDUCED ORBITAL CHARGES
--------------------------------
  0 C s       :     3.001746  s :     3.001746
      pz      :     1.025227  p :     2.835437
      px      :     0.934027
      py      :     0.876184
      dz2     :     0.014368  d :     0.063263
      dxz     :     0.007338
      dyz     :     0.010411
      dx2y2   :     0.013243
      dxy     :     0.017902

  1 C s       :     3.078920  s :     3.078920
      pz      :     1.015086  p :     2.862613
      px      :     0.978904
      py      :     0.868624
      dz2     :     0.016892  d :     0.067164
      dxz     :     0.009007
      dyz     :     0.008937
      dx2y2   :     0.015412
      dxy     :     0.016915

  2 H s       :     0.976222  s :     0.976222

  3 C s       :     3.056653  s :     3.056653
      pz      :     1.077412  p :     2.859012
      px      :     0.911268
      py      :     0.870332
      dz2     :     0.016367  d :     0.068012
      dxz     :     0.007527
      dyz     :     0.008701
      dx2y2   :     0.018891
      dxy     :     0.016526

  4 H s       :     0.927070  s :     0.927070

  5 C s       :     3.047199  s :     3.047199
      pz      :     0.974506  p :     2.826537
      px      :     0.976074
      py      :     0.875957
      dz2     :     0.018820  d :     0.067686
      dxz     :     0.006915
      dyz     :     0.012739
      dx2y2   :     0.013494
      dxy     :     0.015719

  6 H s       :     0.962938  s :     0.962938

  7 C s       :     3.046728  s :     3.046728
      pz      :     1.010225  p :     2.837410
      px      :     0.823210
      py      :     1.003975
      dz2     :     0.018116  d :     0.067673
      dxz     :     0.014001
      dyz     :     0.005559
      dx2y2   :     0.014586
      dxy     :     0.015411

  8 H s       :     0.958084  s :     0.958084

  9 C s       :     3.021776  s :     3.021776
      pz      :     1.049562  p :     2.670853
      px      :     0.738497
      py      :     0.882793
      dz2     :     0.022086  d :     0.102147
      dxz     :     0.015607
      dyz     :     0.010569
      dx2y2   :     0.029478
      dxy     :     0.024407

 10 H s       :     0.947366  s :     0.947366

 11 O s       :     3.763977  s :     3.763977
      pz      :     1.705364  p :     4.515465
      px      :     1.221309
      py      :     1.588792
      dz2     :     0.002105  d :     0.015290
      dxz     :     0.003438
      dyz     :     0.002392
      dx2y2   :     0.003532
      dxy     :     0.003823

 12 O s       :     3.765810  s :     3.765810
      pz      :     1.321113  p :     4.584709
      px      :     1.724376
      py      :     1.539220
      dz2     :     0.007791  d :     0.015905
      dxz     :     0.001223
      dyz     :     0.001185
      dx2y2   :     0.002229
      dxy     :     0.003477

 13 O s       :     3.784057  s :     3.784057
      pz      :     1.751922  p :     4.607739
      px      :     1.393626
      py      :     1.462191
      dz2     :     0.002191  d :     0.015618
      dxz     :     0.003233
      dyz     :     0.002565
      dx2y2   :     0.004938
      dxy     :     0.002691

 14 O s       :     3.777477  s :     3.777477
      pz      :     1.793886  p :     4.628087
      px      :     1.565474
      py      :     1.268727
      dz2     :     0.002807  d :     0.015088
      dxz     :     0.001775
      dyz     :     0.001724
      dx2y2   :     0.001526
      dxy     :     0.007256

 15 O s       :     3.792628  s :     3.792628
      pz      :     1.304455  p :     4.604026
      px      :     1.688325
      py      :     1.611246
      dz2     :     0.008095  d :     0.015535
      dxz     :     0.000929
      dyz     :     0.001147
      dx2y2   :     0.002093
      dxy     :     0.003272

 16 O s       :     3.785744  s :     3.785744
      pz      :     1.271865  p :     4.623611
      px      :     1.786247
      py      :     1.565499
      dz2     :     0.005495  d :     0.015743
      dxz     :     0.000991
      dyz     :     0.003774
      dx2y2   :     0.002601
      dxy     :     0.002883

 17 H s       :     0.910693  s :     0.910693

 18 H s       :     0.921100  s :     0.921100

 19 H s       :     0.697937  s :     0.697937

 20 H s       :     0.690052  s :     0.690052

 21 H s       :     0.695046  s :     0.695046

 22 H s       :     0.699081  s :     0.699081

 23 H s       :     0.707072  s :     0.707072


------------------------
MULLIKEN OVERLAP CHARGES
------------------------
B(  0-C ,  1-C ) :   0.5560 B(  0-C ,  2-H ) :  -0.1101 B(  0-C , 11-O ) :  -0.0782 
B(  0-C , 16-O ) :   0.7244 B(  0-C , 17-H ) :   0.6498 B(  0-C , 18-H ) :   0.6968 
B(  0-C , 23-H ) :  -0.0952 B(  1-C ,  2-H ) :   0.5933 B(  1-C ,  7-C ) :   0.0808 
B(  1-C ,  9-C ) :  -0.1215 B(  1-C , 11-O ) :   0.5293 B(  1-C , 15-O ) :  -0.0643 
B(  1-C , 16-O ) :  -0.1089 B(  1-C , 18-H ) :  -0.1195 B(  2-H ,  5-C ) :  -0.0551 
B(  2-H , 11-O ) :  -0.0692 B(  3-C ,  4-H ) :   0.5952 B(  3-C ,  5-C ) :   0.3393 
B(  3-C ,  6-H ) :  -0.0588 B(  3-C ,  7-C ) :  -0.1085 B(  3-C , 14-O ) :  -0.0780 
B(  3-C , 15-O ) :   0.5209 B(  3-C , 22-H ) :  -0.1164 B(  4-H ,  5-C ) :  -0.0671 
B(  4-H , 15-O ) :  -0.0731 B(  5-C ,  6-H ) :   0.5751 B(  5-C ,  7-C ) :   0.2108 
B(  5-C ,  8-H ) :  -0.0754 B(  5-C , 13-O ) :  -0.0723 B(  5-C , 14-O ) :   0.6404 
B(  5-C , 15-O ) :  -0.0726 B(  5-C , 21-H ) :  -0.0789 B(  6-H ,  7-C ) :  -0.0783 
B(  6-H , 14-O ) :  -0.0833 B(  7-C ,  8-H ) :   0.5269 B(  7-C ,  9-C ) :   0.0650 
B(  7-C , 10-H ) :  -0.1089 B(  7-C , 11-O ) :  -0.0797 B(  7-C , 12-O ) :  -0.0879 
B(  7-C , 13-O ) :   0.5967 B(  7-C , 14-O ) :  -0.1114 B(  7-C , 20-H ) :  -0.0946 
B(  8-H , 13-O ) :  -0.0662 B(  9-C , 10-H ) :   0.6486 B(  9-C , 11-O ) :   0.5170 
B(  9-C , 12-O ) :   0.7665 B(  9-C , 13-O ) :  -0.0888 B(  9-C , 19-H ) :  -0.0821 
B( 10-H , 11-O ) :  -0.0676 B( 10-H , 12-O ) :  -0.0772 B( 11-O , 12-O ) :  -0.1194 
B( 12-O , 19-H ) :   0.5283 B( 13-O , 20-H ) :   0.5309 B( 14-O , 21-H ) :   0.5229 
B( 15-O , 18-H ) :   0.0540 B( 15-O , 22-H ) :   0.5289 B( 16-O , 17-H ) :  -0.0603 
B( 16-O , 18-H ) :  -0.0591 B( 16-O , 23-H ) :   0.5298 B( 17-H , 18-H ) :  -0.0546 



                     *******************************
                     * LOEWDIN POPULATION ANALYSIS *
                     *******************************

----------------------
LOEWDIN ATOMIC CHARGES
----------------------
   0 C :   -0.128747
   1 C :   -0.077034
   2 H :    0.090251
   3 C :   -0.087013
   4 H :    0.122278
   5 C :   -0.087255
   6 H :    0.095283
   7 C :   -0.088489
   8 H :    0.101008
   9 C :    0.008071
  10 H :    0.099230
  11 O :   -0.147330
  12 O :   -0.277804
  13 O :   -0.314183
  14 O :   -0.327716
  15 O :   -0.305266
  16 O :   -0.328686
  17 H :    0.122323
  18 H :    0.100449
  19 H :    0.288721
  20 H :    0.290107
  21 H :    0.284988
  22 H :    0.285592
  23 H :    0.281222

-------------------------------
LOEWDIN REDUCED ORBITAL CHARGES
-------------------------------
  0 C s       :     2.916632  s :     2.916632
      pz      :     1.062233  p :     3.067700
      px      :     1.028490
      py      :     0.976978
      dz2     :     0.032124  d :     0.144416
      dxz     :     0.016361
      dyz     :     0.022828
      dx2y2   :     0.031280
      dxy     :     0.041824

  1 C s       :     2.905541  s :     2.905541
      pz      :     1.068460  p :     3.015251
      px      :     0.991907
      py      :     0.954884
      dz2     :     0.040130  d :     0.156242
      dxz     :     0.020091
      dyz     :     0.020126
      dx2y2   :     0.037859
      dxy     :     0.038036

  2 H s       :     0.909749  s :     0.909749

  3 C s       :     2.894572  s :     2.894572
      pz      :     1.091188  p :     3.032531
      px      :     0.986751
      py      :     0.954592
      dz2     :     0.038510  d :     0.159910
      dxz     :     0.015905
      dyz     :     0.018344
      dx2y2   :     0.048023
      dxy     :     0.039129

  4 H s       :     0.877722  s :     0.877722

  5 C s       :     2.898657  s :     2.898657
      pz      :     1.051774  p :     3.028819
      px      :     1.046106
      py      :     0.930939
      dz2     :     0.044653  d :     0.159778
      dxz     :     0.014699
      dyz     :     0.028940
      dx2y2   :     0.032894
      dxy     :     0.038593

  6 H s       :     0.904717  s :     0.904717

  7 C s       :     2.903103  s :     2.903103
      pz      :     1.061446  p :     3.026344
      px      :     0.902048
      py      :     1.062851
      dz2     :     0.042580  d :     0.159041
      dxz     :     0.032018
      dyz     :     0.011588
      dx2y2   :     0.033930
      dxy     :     0.038925

  8 H s       :     0.898992  s :     0.898992

  9 C s       :     2.883048  s :     2.883048
      pz      :     1.073776  p :     2.881405
      px      :     0.845883
      py      :     0.961746
      dz2     :     0.051232  d :     0.227476
      dxz     :     0.033469
      dyz     :     0.020839
      dx2y2   :     0.066743
      dxy     :     0.055191

 10 H s       :     0.900770  s :     0.900770

 11 O s       :     3.477761  s :     3.477761
      pz      :     1.741941  p :     4.639880
      px      :     1.288440
      py      :     1.609499
      dz2     :     0.003642  d :     0.029688
      dxz     :     0.006761
      dyz     :     0.003368
      dx2y2   :     0.007837
      dxy     :     0.008080

 12 O s       :     3.523915  s :     3.523915
      pz      :     1.399316  p :     4.725838
      px      :     1.745630
      py      :     1.580892
      dz2     :     0.013894  d :     0.028051
      dxz     :     0.002045
      dyz     :     0.002462
      dx2y2   :     0.003377
      dxy     :     0.006273

 13 O s       :     3.534502  s :     3.534502
      pz      :     1.791933  p :     4.752312
      px      :     1.445214
      py      :     1.515165
      dz2     :     0.003325  d :     0.027368
      dxz     :     0.005795
      dyz     :     0.003667
      dx2y2   :     0.009391
      dxy     :     0.005190

 14 O s       :     3.532212  s :     3.532212
      pz      :     1.823479  p :     4.768970
      px      :     1.615557
      py      :     1.329934
      dz2     :     0.004297  d :     0.026534
      dxz     :     0.002323
      dyz     :     0.003559
      dx2y2   :     0.003198
      dxy     :     0.013157

 15 O s       :     3.536346  s :     3.536346
      pz      :     1.385306  p :     4.741521
      px      :     1.711353
      py      :     1.644862
      dz2     :     0.014337  d :     0.027398
      dxz     :     0.001719
      dyz     :     0.002174
      dx2y2   :     0.003280
      dxy     :     0.005887

 16 O s       :     3.538794  s :     3.538794
      pz      :     1.352329  p :     4.762496
      px      :     1.786876
      py      :     1.623291
      dz2     :     0.010068  d :     0.027396
      dxz     :     0.002104
      dyz     :     0.006897
      dx2y2   :     0.003694
      dxy     :     0.004632

 17 H s       :     0.877677  s :     0.877677

 18 H s       :     0.899551  s :     0.899551

 19 H s       :     0.711279  s :     0.711279

 20 H s       :     0.709893  s :     0.709893

 21 H s       :     0.715012  s :     0.715012

 22 H s       :     0.714408  s :     0.714408

 23 H s       :     0.718778  s :     0.718778


---------------------------------
LOEWDIN BOND ORDERS (THRESH 0.050000)
---------------------------------
B(  0-C ,  1-C ) :   1.0615 B(  0-C ,  3-C ) :   0.0590 B(  0-C , 11-O ) :   0.0555 
B(  0-C , 16-O ) :   1.2606 B(  0-C , 17-H ) :   0.9044 B(  0-C , 18-H ) :   0.8986 
B(  1-C ,  2-H ) :   0.8625 B(  1-C ,  3-C ) :   1.0103 B(  1-C ,  5-C ) :   0.0609 
B(  1-C ,  9-C ) :   0.0688 B(  1-C , 11-O ) :   1.1394 B(  1-C , 15-O ) :   0.0757 
B(  1-C , 16-O ) :   0.0818 B(  3-C ,  4-H ) :   0.8671 B(  3-C ,  5-C ) :   1.0252 
B(  3-C ,  7-C ) :   0.0574 B(  3-C , 11-O ) :   0.0729 B(  3-C , 14-O ) :   0.0758 
B(  3-C , 15-O ) :   1.2128 B(  5-C ,  6-H ) :   0.8611 B(  5-C ,  7-C ) :   1.0204 
B(  5-C ,  9-C ) :   0.0573 B(  5-C , 13-O ) :   0.0825 B(  5-C , 14-O ) :   1.2158 
B(  5-C , 15-O ) :   0.0767 B(  7-C ,  8-H ) :   0.8650 B(  7-C ,  9-C ) :   1.0088 
B(  7-C , 11-O ) :   0.0730 B(  7-C , 12-O ) :   0.0789 B(  7-C , 13-O ) :   1.2343 
B(  7-C , 14-O ) :   0.0648 B(  9-C , 10-H ) :   0.8704 B(  9-C , 11-O ) :   1.1526 
B(  9-C , 12-O ) :   1.3224 B(  9-C , 13-O ) :   0.0628 B( 11-O , 12-O ) :   0.0786 
B( 12-O , 19-H ) :   0.8723 B( 13-O , 20-H ) :   0.8751 B( 14-O , 21-H ) :   0.8694 
B( 15-O , 22-H ) :   0.8804 B( 16-O , 23-H ) :   0.8908 

------------------------------------------
LOEWDIN REDUCED ORBITAL POPULATIONS PER MO
-------------------------------------------
THRESHOLD FOR PRINTING IS 0.1%%
                      0         1         2         3         4         5   
                 -18.77899 -18.77331 -18.76134 -18.75527 -18.74961 -18.74928
                   2.00000   2.00000   2.00000   2.00000   2.00000   2.00000
                  --------  --------  --------  --------  --------  --------
11 O  s               0.0      99.9       0.0       0.0       0.0       0.0
12 O  s               0.0       0.0       0.0      99.9       0.0       0.0
13 O  s               0.0       0.0       0.0       0.0       0.1      99.9
14 O  s               0.0       0.0      99.9       0.0       0.0       0.0
15 O  s              99.9       0.0       0.0       0.0       0.0       0.0
16 O  s               0.0       0.0       0.0       0.0      99.9       0.1

                      6         7         8         9        10        11   
                  -9.98640  -9.95442  -9.95348  -9.94908  -9.94203  -9.93565
                   2.00000   2.00000   2.00000   2.00000   2.00000   2.00000
                  --------  --------  --------  --------  --------  --------
 0 C  s               0.0       0.0       0.0       0.0       0.0      99.6
 1 C  s               0.0       0.1      99.5       0.0       0.0       0.0
 3 C  s               0.0      99.5       0.1       0.0       0.0       0.0
 5 C  s               0.0       0.0       0.0      99.6       0.0       0.0
 7 C  s               0.0       0.0       0.0       0.0      99.6       0.0
 9 C  s              99.6       0.0       0.0       0.0       0.0       0.0

                     12        13        14        15        16        17   
                  -0.98479  -0.96122  -0.94023  -0.92829  -0.92018  -0.91228
                   2.00000   2.00000   2.00000   2.00000   2.00000   2.00000
                  --------  --------  --------  --------  --------  --------
 0 C  s               0.6       0.0       0.6       8.6       0.8       0.5
 0 C  pz              0.1       0.0       0.1       2.0       0.3       0.2
 0 C  px              0.4       0.0       0.0       0.8       0.5       1.1
 0 C  py              0.0       0.0       0.1       3.5       0.5       0.6
 0 C  dyz             0.0       0.0       0.0       0.3       0.0       0.1
 0 C  dxy             0.0       0.0       0.0       0.2       0.0       0.0
 1 C  s               5.4       0.1       1.0       1.6       0.3       2.3
 1 C  pz              0.4       0.0       0.1       0.1       0.0       0.2
 1 C  px              2.2       0.1       0.0       0.3       0.9       1.9
 1 C  py              1.2       1.7       0.0       0.9       0.3       0.8
 1 C  dxy             0.2       0.0       0.0       0.0       0.1       0.2
 2 H  s               0.7       0.0       0.1       0.3       0.0       0.2
 3 C  s               1.7       8.7       0.8       0.1       0.0       0.1
 3 C  pz              0.2       0.9       0.2       0.0       0.0       0.0
 3 C  px              0.0       1.2       2.6       0.3       0.7       0.0
 3 C  py              0.1       4.5       0.2       0.6       0.2       0.6
 3 C  dyz             0.0       0.1       0.0       0.0       0.0       0.0
 3 C  dxy             0.0       0.3       0.1       0.0       0.0       0.0
 4 H  s               0.3       1.1       0.1       0.0       0.0       0.0
 5 C  s               1.1       3.9       5.0       0.4       1.2       0.1
 5 C  pz              0.1       0.4       0.7       0.1       0.4       0.0
 5 C  px              0.0       0.3       2.7       0.1       0.0       0.0
 5 C  py              0.1       1.3       1.7       0.3       3.1       0.9
 5 C  dyz             0.0       0.1       0.1       0.0       0.1       0.0
 5 C  dx2y2           0.0       0.0       0.1       0.0       0.1       0.0
 5 C  dxy             0.0       0.0       0.0       0.0       0.1       0.0
 6 H  s               0.2       0.6       0.6       0.0       0.1       0.0
 7 C  s               2.4       0.1       5.1       0.0       3.6       0.9
 7 C  pz              0.2       0.0       0.5       0.0       0.7       0.2
 7 C  px              0.2       0.0       1.9       0.1       5.5       0.6
 7 C  py              0.7       0.9       0.9       0.3       0.0       0.2
 7 C  dxz             0.0       0.0       0.1       0.0       0.2       0.0
 7 C  dx2y2           0.0       0.0       0.1       0.0       0.2       0.1
 8 H  s               0.4       0.0       0.7       0.0       0.3       0.1
 9 C  s              14.6       1.2       0.1       0.5       0.0       0.4
 9 C  pz              1.6       0.1       0.0       0.1       0.0       0.0
 9 C  px              1.0       0.0       1.2       1.4       2.4       6.4
 9 C  py              1.2       0.6       0.2       0.9       0.1       4.4
 9 C  dz2             0.1       0.0       0.0       0.0       0.0       0.0
 9 C  dxz             0.0       0.0       0.0       0.0       0.0       0.2
 9 C  dyz             0.1       0.0       0.0       0.0       0.0       0.1
 9 C  dx2y2           0.1       0.0       0.0       0.1       0.1       0.3
 9 C  dxy             0.1       0.0       0.0       0.1       0.0       0.4
10 H  s               1.7       0.1       0.0       0.1       0.0       0.0
11 O  s              29.8       1.5       2.0       1.7       4.3      14.0
11 O  pz              0.6       0.0       0.0       0.0       0.1       0.2
11 O  px              0.6       0.1       0.0       0.2       0.0       0.2
11 O  py              0.8       0.0       0.1       0.2       0.2       0.9
12 O  s              16.5       3.1       0.3       7.8       1.1      29.6
12 O  pz              0.2       0.0       0.0       0.1       0.0       0.7
12 O  px              0.8       0.1       0.0       0.1       0.0       0.3
12 O  py              1.0       0.1       0.0       0.2       0.0       0.4
13 O  s               1.4       0.2      18.4       0.1      30.0       7.8
13 O  pz              0.0       0.0       0.4       0.0       0.6       0.1
13 O  px              0.1       0.0       0.5       0.0       0.5       0.1
13 O  py              0.0       0.0       0.4       0.0       0.6       0.2
14 O  s               0.8       9.9      24.9       3.3      16.9       2.8
14 O  pz              0.0       0.1       0.3       0.0       0.1       0.0
14 O  px              0.0       0.6       1.0       0.1       0.8       0.1
14 O  py              0.0       0.1       0.1       0.0       0.0       0.0
15 O  s               2.1      40.9       9.9       3.0       2.7       0.1
15 O  pz              0.0       0.7       0.2       0.1       0.1       0.0
15 O  px              0.1       0.8       0.1       0.0       0.0       0.0
15 O  py              0.1       1.0       0.2       0.0       0.0       0.0
16 O  s               0.3       0.0       1.6      42.5       6.8       7.7
16 O  pz              0.0       0.0       0.0       0.3       0.1       0.1
16 O  px              0.0       0.0       0.0       0.2       0.0       0.0
16 O  py              0.0       0.0       0.1       2.2       0.3       0.3
17 H  s               0.1       0.0       0.1       1.1       0.1       0.0
18 H  s               0.1       0.1       0.1       0.9       0.1       0.1
19 H  s               3.4       0.6       0.1       1.5       0.2       5.7
20 H  s               0.3       0.1       4.1       0.0       5.6       1.6
21 H  s               0.2       2.5       4.5       0.6       3.4       0.6
22 H  s               0.4       8.2       2.0       0.6       0.6       0.0
23 H  s               0.1       0.0       0.3       8.7       1.4       1.6

                     18        19        20        21        22        23   
                  -0.71042  -0.69406  -0.61991  -0.59159  -0.56665  -0.54998
                   2.00000   2.00000   2.00000   2.00000   2.00000   2.00000
                  --------  --------  --------  --------  --------  --------
 0 C  s               2.8       6.1      13.7       0.0       8.1       0.1
 0 C  pz              0.0       0.0       0.4       0.0       3.4       0.3
 0 C  px              1.3       2.6       0.2       0.1       2.3       0.0
 0 C  py              0.9       0.7       0.5       0.4       0.2       0.0
 1 C  s               8.8      10.6       0.7       0.0       7.8       0.7
 1 C  pz              0.2       0.3       0.0       0.0       3.6       3.7
 1 C  px              0.2       2.0       6.0       0.1       1.2       0.1
 1 C  py              4.1       0.2       0.6       4.1       0.2       0.2
 1 C  dxz             0.0       0.0       0.1       0.0       0.0       0.0
 1 C  dyz             0.0       0.0       0.0       0.1       0.0       0.0
 1 C  dx2y2           0.0       0.0       0.1       0.0       0.0       0.0
 1 C  dxy             0.2       0.0       0.0       0.1       0.0       0.0
 2 H  s               1.8       1.7       0.2       0.0       5.6       2.4
 3 C  s              14.3       0.1       6.0       6.5       0.4       0.4
 3 C  pz              0.0       0.0       0.2       1.5       1.8       5.0
 3 C  px              1.7       2.6       1.5       1.8       0.4       1.2
 3 C  py              3.2       1.5       0.3       0.0       4.1       0.2
 3 C  dxy             0.1       0.0       0.0       0.0       0.0       0.1
 4 H  s               3.1       0.0       1.7       3.1       0.8       1.9
 5 C  s              10.2       5.1       1.4       5.6       2.0       3.7
 5 C  pz              0.0       0.0       0.0       0.4       0.1       4.6
 5 C  px              1.5       0.3       3.4       4.0       0.1       0.3
 5 C  py              3.6       2.6       0.2       0.1       0.5       0.7
 5 C  dx2y2           0.1       0.0       0.1       0.0       0.0       0.0
 6 H  s               2.0       1.1       0.3       2.0       0.3       4.4
 7 C  s               3.4      10.2       5.1       1.1       1.0       6.8
 7 C  pz              0.0       0.0       0.0       0.2       0.1       4.2
 7 C  px              2.3       4.0       0.0       0.3       0.2       0.4
 7 C  py              0.6       0.2       2.5       5.8       1.4       0.8
 7 C  dxy             0.1       0.0       0.0       0.1       0.0       0.0
 8 H  s               0.7       1.9       1.1       0.5       0.1       5.5
 9 C  s               0.1       7.7       5.0       6.9       0.0       2.2
 9 C  pz              0.0       0.0       0.3       1.1       0.7       6.8
 9 C  px              1.6       0.1       1.5       0.0       2.5       0.2
 9 C  py              1.3       3.4       1.8       0.2       1.6       3.4
 9 C  dxz             0.1       0.0       0.0       0.0       0.1       0.0
 9 C  dx2y2           0.2       0.0       0.1       0.0       0.0       0.0
 9 C  dxy             0.0       0.1       0.0       0.0       0.0       0.1
10 H  s               0.0       1.6       1.8       2.9       0.3       3.8
11 O  s               4.9       0.0       1.2       0.8       1.5       0.7
11 O  pz              0.0       0.0       0.1       0.2       0.6       2.2
11 O  px              1.5       7.8       0.1       4.9       4.7       0.5
11 O  py              0.9       0.3       0.0       0.2       3.0       0.2
12 O  s               0.3       2.5       0.8       1.2       0.1       0.0
12 O  pz              0.0       0.9       1.8       5.2       0.0       7.2
12 O  px              0.1       0.3       0.1       1.1       0.5       1.1
12 O  py              0.0       1.0       1.9       3.3       0.0       1.2
13 O  s               1.2       2.8       1.0       0.6       0.1       0.4
13 O  pz              0.0       0.0       0.1       0.1       0.0       0.9
13 O  px              0.6       2.0       2.6       0.4       1.4       3.6
13 O  py              0.2       0.9       1.9       0.1       1.6       2.4
14 O  s               2.5       1.2       0.6       0.5       0.6       0.2
14 O  pz              0.1       0.1       0.1       0.8       0.3       1.3
14 O  px              0.1       0.1       0.1       0.7       0.0       0.0
14 O  py              2.2       1.5       0.6       7.0       3.6       2.2
15 O  s               4.1       0.1       0.6       0.7       0.0       0.3
15 O  pz              1.7       0.1       2.1       7.5       2.7       3.9
15 O  px              0.8       0.0       1.6       1.7       0.8       0.1
15 O  py              1.3       0.1       0.8       3.1       0.2       0.3
15 O  dz2             0.1       0.0       0.0       0.1       0.0       0.0
16 O  s               0.7       1.7       2.2       0.0       0.4       0.1
16 O  pz              0.3       0.9       4.8       0.1       9.5       0.0
16 O  px              0.1       0.4       1.3       0.1       0.9       0.0
16 O  py              0.1       0.2       1.3       0.0       1.3       0.0
17 H  s               0.6       1.5       4.0       0.0       4.8       0.0
18 H  s               0.6       1.2       3.9       0.0       2.9       0.0
19 H  s               0.1       1.2       1.3       3.2       0.0       2.5
20 H  s               0.5       1.6       1.6       0.1       0.9       1.8
21 H  s               1.3       0.8       0.3       2.6       1.2       0.9
22 H  s               2.0       0.1       1.3       3.9       1.0       1.0
23 H  s               0.3       0.9       2.7       0.1       3.5       0.0

                     24        25        26        27        28        29   
                  -0.50516  -0.49784  -0.48076  -0.46009  -0.44685  -0.43406
                   2.00000   2.00000   2.00000   2.00000   2.00000   2.00000
                  --------  --------  --------  --------  --------  --------
 0 C  s               0.5       0.0       0.1       0.6       0.0       0.5
 0 C  pz              0.0       1.2       1.3       2.2       1.6       0.2
 0 C  px              1.8       0.4       0.1       0.3       0.2       1.5
 0 C  py              0.5       7.4       1.1      10.4       0.1       1.8
 0 C  dxy             0.0       0.0       0.0       0.1       0.0       0.2
 1 C  s               0.0       0.8       0.0       0.5       0.2       0.0
 1 C  pz              1.0       0.5       6.5      12.1       2.2       0.0
 1 C  px              0.1       3.5       1.8       0.6       1.5       2.4
 1 C  py              6.6       2.9       0.0       0.8       0.0       6.6
 1 C  dxy             0.2       0.0       0.0       0.0       0.0       0.0
 2 H  s               0.4       1.0       2.5       5.7       1.3       0.0
 3 C  s               0.1       0.1       0.5       0.0       0.1       1.7
 3 C  pz              2.7       0.4       2.7       0.1       4.4       0.3
 3 C  px              1.4       4.1       4.8       0.1       1.8       0.1
 3 C  py              3.3       1.5       4.0       1.4       0.8       6.2
 3 C  dxy             0.1       0.0       0.1       0.1       0.1       0.1
 4 H  s               0.4       0.0       2.0       0.2       1.1       1.3
 5 C  s               0.1       0.4       0.1       0.5       0.2       0.7
 5 C  pz              0.5       4.3       6.5       4.1       0.0       2.3
 5 C  px              3.1       6.8       1.1       0.1       5.1       0.1
 5 C  py              2.5       0.3       0.7       0.2       1.7       1.9
 5 C  dxz             0.0       0.1       0.0       0.0       0.0       0.0
 5 C  dyz             0.0       0.0       0.0       0.0       0.0       0.1
 5 C  dxy             0.0       0.1       0.0       0.0       0.0       0.3
 6 H  s               0.1       2.2       2.4       2.6       0.2       2.0
 7 C  s               0.0       0.1       0.1       0.3       0.2       1.0
 7 C  pz              0.2       5.3       4.3       4.3       6.6       2.2
 7 C  px              2.1       0.3       1.4       0.7       5.2       6.0
 7 C  py              0.6       1.5       0.0       0.1       0.3       0.0
 7 C  dxz             0.0       0.0       0.0       0.1       0.1       0.3
 7 C  dx2y2           0.0       0.1       0.0       0.0       0.1       0.1
 8 H  s               0.1       1.9       1.1       2.3       3.0       2.1
 9 C  s               0.0       0.1       0.1       0.1       1.0       0.1
 9 C  pz              3.3       1.7       0.0       0.5      10.3       0.3
 9 C  px              5.0       1.6       2.8       0.2       0.5       1.0
 9 C  py              2.4       1.1       0.8       0.2       6.3       0.6
 9 C  dz2             0.0       0.0       0.0       0.0       0.1       0.0
 9 C  dx2y2           0.0       0.0       0.1       0.0       0.0       0.1
 9 C  dxy             0.1       0.0       0.3       0.0       0.0       0.0
10 H  s               0.7       0.3       0.0       0.4       6.5       0.0
11 O  s               0.6       0.1       0.1       1.0       1.0       0.0
11 O  pz              0.0       0.0       1.4       4.5       1.4       0.1
11 O  px             12.7       6.2       2.2       0.0       0.2       2.9
11 O  py              0.1       0.8       1.5       0.2       4.6       0.0
12 O  s               0.3       0.2       0.1       0.0       0.4       0.0
12 O  pz              9.2       0.0       6.5       0.1       1.8       0.1
12 O  px              0.0       1.1       0.2       0.1       2.5       0.0
12 O  py              2.1       0.1       3.1       0.2       4.9       0.5
12 O  dz2             0.1       0.0       0.1       0.0       0.1       0.0
13 O  s               0.2       0.4       0.0       0.3       0.0       0.6
13 O  pz              0.0       0.5       0.1       0.5       2.1       0.1
13 O  px              2.7       1.4       5.6       2.3       1.1       7.9
13 O  py              1.1       3.2       2.4       2.4       2.8       8.1
14 O  s               0.0       0.7       0.0       0.1       0.8       0.9
14 O  pz              0.6       0.0       1.1       0.8       0.1       0.0
14 O  px              0.8       3.9       0.0       0.3       2.5       1.5
14 O  py              9.6       8.7       0.0       0.5       0.0       6.6
15 O  s               0.7       0.0       0.0       0.2       1.2       0.6
15 O  pz              6.9       0.0       8.9       2.2       1.8       5.1
15 O  px              0.4       1.6       2.0       0.7       2.5       1.5
15 O  py              0.3       0.6       4.1       0.2       0.1       0.3
15 O  dz2             0.0       0.0       0.1       0.0       0.0       0.0
16 O  s               0.0       0.2       0.3       0.2       0.1       0.9
16 O  pz              0.6       7.6       0.2      13.6       0.0       6.4
16 O  px              0.0       0.9       0.0       4.2       0.5       0.1
16 O  py              0.3       0.0       0.3       0.5       0.2       0.1
17 H  s               0.0       0.6       0.4       0.9       0.4       0.0
18 H  s               0.9       1.3       0.6       3.7       0.2       0.5
19 H  s               3.0       0.1       2.7       0.1       2.0       0.1
20 H  s               1.1       1.3       2.3       1.4       1.1       4.3
21 H  s               3.0       3.2       0.0       0.1       0.1       2.6
22 H  s               1.9       0.0       4.1       0.8       0.1       1.6
23 H  s               0.2       2.4       0.0       5.3       0.1       1.7

                     30        31        32        33        34        35   
                  -0.42172  -0.41277  -0.39609  -0.38222  -0.36266  -0.35517
                   2.00000   2.00000   2.00000   2.00000   2.00000   2.00000
                  --------  --------  --------  --------  --------  --------
 0 C  s               0.8       0.0       0.2       0.1       0.1       0.1
 0 C  pz              1.0       0.0       5.2      15.0       4.3       9.1
 0 C  px              0.6       0.4      15.9      11.8       0.3       0.1
 0 C  py              4.0       0.0       3.4       2.5       0.0       0.2
 0 C  dz2             0.0       0.0       0.0       0.2       0.0       0.1
 0 C  dyz             0.0       0.0       0.0       0.1       0.0       0.1
 0 C  dxy             0.2       0.0       0.1       0.0       0.0       0.1
 1 C  s               0.2       0.1       0.4       0.0       0.3       0.2
 1 C  pz              2.8       0.1       0.1       0.3       2.0       6.0
 1 C  px              0.7       0.0      10.5       1.5       1.6       0.7
 1 C  py              3.3       0.3       0.7       0.1       0.0       0.1
 1 C  dz2             0.0       0.0       0.0       0.0       0.2       0.2
 1 C  dxz             0.0       0.0       0.0       0.2       0.0       0.0
 1 C  dx2y2           0.2       0.0       0.0       0.0       0.0       0.0
 1 C  dxy             0.0       0.0       0.3       0.1       0.0       0.0
 2 H  s               1.0       0.0       0.1       0.0       2.7       4.8
 3 C  s               0.0       0.1       0.1       0.0       0.3       0.3
 3 C  pz              3.9       0.2       8.8       2.2       7.5       0.4
 3 C  px              9.5       0.1       0.1       0.0       0.3       1.2
 3 C  py              3.3       0.6       0.1       0.3       0.8       0.5
 3 C  dz2             0.0       0.0       0.1       0.0       0.1       0.1
 3 C  dxz             0.0       0.0       0.0       0.0       0.1       0.0
 3 C  dyz             0.0       0.0       0.0       0.0       0.1       0.1
 4 H  s               1.8       0.3       4.8       0.8       4.3       0.8
 5 C  s               0.1       0.1       0.2       0.1       0.0       0.1
 5 C  pz              9.4       0.2       0.1       0.4       6.6       3.6
 5 C  px              4.6       1.5       0.4       0.5       0.1       0.1
 5 C  py              0.1      10.6       0.4       0.2       3.4       3.4
 5 C  dz2             0.0       0.0       0.0       0.0       0.2       0.1
 5 C  dyz             0.0       0.1       0.0       0.0       0.0       0.0
 5 C  dx2y2           0.0       0.1       0.0       0.0       0.1       0.0
 5 C  dxy             0.0       0.3       0.0       0.0       0.0       0.0
 6 H  s               3.2       0.1       0.3       0.3       5.3       2.4
 7 C  s               0.0       0.9       0.0       0.1       0.0       0.1
 7 C  pz              0.0       0.0       3.8       1.5       3.9       5.8
 7 C  px              0.5       0.4       1.0       0.5       2.3       1.7
 7 C  py              0.0      20.2       0.0       0.0       0.3       0.5
 7 C  dz2             0.0       0.0       0.0       0.0       0.0       0.2
 7 C  dyz             0.1       0.1       0.0       0.0       0.0       0.0
 7 C  dx2y2           0.1       0.1       0.0       0.0       0.0       0.0
 7 C  dxy             0.0       0.1       0.0       0.0       0.0       0.0
 8 H  s               0.0       0.2       2.0       1.2       2.4       5.1
 9 C  s               0.0       1.7       0.2       0.4       0.0       0.3
 9 C  pz              4.6       2.7       1.1       3.7       0.2       7.2
 9 C  px              1.1       2.1       0.2       1.8       0.4       0.4
 9 C  py              0.1       8.6       0.0       0.1       0.5       0.3
 9 C  dz2             0.0       0.1       0.0       0.2       0.0       0.3
 9 C  dxy             0.1       0.0       0.1       0.1       0.0       0.1
10 H  s               2.0       0.0       0.1       3.3       0.1       6.0
11 O  s               0.0       0.4       0.1       0.3       1.1       0.1
11 O  pz              4.5       0.7       1.2       0.7       3.6       0.0
11 O  px              0.0       0.0       1.8       0.4       0.7       0.2
11 O  py              0.6       4.0       4.1       2.3       1.4       0.1
12 O  s               0.1       1.2       0.8       0.1       0.0       0.1
12 O  pz              0.3       5.6       1.8       0.8       0.1       0.0
12 O  px              0.3       1.3       1.6       0.1       0.2       1.3
12 O  py              2.8       2.7       0.1       2.7       0.2       4.1
13 O  s               0.4       1.1       0.1       0.1       0.1       0.6
13 O  pz              0.0       1.0       1.9       1.1       3.2       4.8
13 O  px              0.3       7.5       0.1       0.0       0.0       0.3
13 O  py              2.0       1.6       0.0       0.0       0.0       0.1
14 O  s               0.9       0.0       0.1       0.0       1.0       0.2
14 O  pz              1.3       2.7       0.0       0.1       7.2       4.4
14 O  px              5.2       0.2       0.3       0.2       1.4       0.1
14 O  py              1.1      11.7       0.3       0.1       0.2       0.1
14 O  dxy             0.0       0.2       0.0       0.0       0.0       0.0
15 O  s               0.0       0.0       0.3       0.8       1.5       1.1
15 O  pz              0.5       0.0       0.0       1.8       3.9       3.1
15 O  px              0.1       0.6       1.8       3.2       6.0       0.0
15 O  py              6.4       0.0       3.9       1.2       9.8       2.2
16 O  s               1.5       0.0       0.0       0.7       0.4       0.1
16 O  pz              3.4       0.1       0.1       1.4       0.3       0.1
16 O  px              0.1       0.0       8.4       0.0       1.4       2.2
16 O  py              1.9       0.0       0.2      14.1       2.3       3.9
17 H  s               0.1       0.0       0.9      11.3       1.7       5.7
18 H  s               3.4       0.1       7.7       4.4       0.1       0.1
19 H  s               0.5       0.7       0.2       0.8       0.0       0.5
20 H  s               0.7       0.3       0.0       0.0       0.0       0.2
21 H  s               0.0       2.9       0.2       0.0       0.2       0.0
22 H  s               0.5       0.0       0.3       0.1       0.2       0.6
23 H  s               0.9       0.0       0.2       0.7       0.0       0.3

                     36        37        38        39        40        41   
                  -0.32303  -0.31543  -0.31044  -0.30077  -0.28688  -0.27714
                   2.00000   2.00000   2.00000   2.00000   2.00000   2.00000
                  --------  --------  --------  --------  --------  --------
 0 C  s               0.1       0.3       0.5       0.0       0.1       0.1
 0 C  pz              0.7       0.1       0.0       0.5       0.1       3.4
 0 C  px              1.8       0.2       1.2       0.0       0.0       0.8
 0 C  py              0.0       0.1       0.5       0.1       0.5       7.6
 0 C  dz2             0.0       0.0       0.1       0.1       0.0       0.9
 0 C  dxz             0.0       0.0       0.0       0.0       0.0       0.2
 1 C  s               0.7       0.2       0.0       0.2       0.2       0.4
 1 C  pz              3.2       1.7       0.2       2.3       0.7       1.5
 1 C  px              0.1       0.6       0.0       0.2       1.0       2.1
 1 C  py              1.5       0.4       0.0       0.8       2.0       1.2
 1 C  dz2             0.1       0.0       0.0       0.1       0.2       0.1
 1 C  dx2y2           0.2       0.2       0.2       0.0       0.0       0.2
 1 C  dxy             0.0       0.0       0.1       0.1       0.1       0.1
 2 H  s               2.1       1.1       0.2       1.6       1.6       1.8
 3 C  s               0.7       0.1       0.0       0.0       0.0       0.0
 3 C  pz              4.0       0.0       0.2       4.8       0.2       0.2
 3 C  px              0.1       0.3       1.6       1.2       1.0       0.1
 3 C  py              0.9       0.3       0.0       1.8       0.1       0.8
 3 C  dz2             0.8       0.0       0.0       0.4       0.0       0.0
 3 C  dx2y2           0.0       0.3       0.0       0.0       0.1       0.0
[...]
 3 C  dxy             1.9       3.2       3.3       0.4       0.7       0.1
 5 C  s               0.1       0.7       0.2       0.0       0.8       0.0
 5 C  pz              0.0       0.3       0.1       0.0       0.3       0.0
 5 C  px              0.1       0.3       0.0       0.0       0.2       0.0
 5 C  py              0.2       1.5       0.5       0.0       0.9       0.0
 5 C  dz2             0.0       0.1       0.0       0.0       0.3       0.0
 5 C  dxz             0.1       0.5       0.0       0.1       0.5       0.0
 5 C  dyz             0.1       1.5       0.8       0.1       2.2       0.0
 5 C  dx2y2           0.4       2.8       0.1       0.1       0.5       0.1
 5 C  dxy             0.2       3.4       0.8       0.0       0.6       0.0
 7 C  s               0.0       0.1       0.4       0.7       1.0       0.1
 7 C  pz              0.0       0.0       0.2       0.2       0.3       0.0
 7 C  px              0.0       0.2       0.9       1.1       0.9       0.2
 7 C  py              0.0       0.2       0.0       0.2       0.1       0.0
 7 C  dz2             0.0       0.0       0.0       0.3       0.1       0.0
 7 C  dxz             0.0       0.1       1.1       1.2       2.3       0.5
 7 C  dyz             0.1       0.2       0.0       0.4       0.0       0.0
 7 C  dx2y2           0.0       1.2       1.6       4.0       1.4       0.0
 7 C  dxy             0.0       0.1       0.6       0.1       0.0       0.1
 9 C  s               0.2       0.0       0.5       0.8       1.0       0.2
 9 C  px              0.0       0.1       0.0       0.3       0.2       3.2
 9 C  py              0.2       0.0       0.1       1.0       0.1       0.5
 9 C  dz2             0.0       0.0       0.3       0.4       0.8       0.0
 9 C  dxz             0.0       0.3       0.1       0.2       0.5       2.3
 9 C  dyz             0.1       0.0       0.0       0.0       0.0       0.5
 9 C  dx2y2           0.0       0.1       0.5       0.0       0.0       6.1
 9 C  dxy             0.4       0.2       0.1       7.5       1.2       1.3
11 O  s               0.1       0.1       0.0       0.8       0.6       0.0
11 O  px              0.0       0.0       0.6       0.3       0.4       5.3
11 O  py              0.0       0.0       0.0       0.0       0.1       0.7
11 O  dz2             0.1       0.8       0.0       1.4       2.6       0.0
11 O  dxz             0.0       0.0       2.6       0.6       1.3      13.8
11 O  dyz             0.2       0.0       0.1       0.0       0.1       1.6
11 O  dx2y2           0.6       0.1       0.0       1.5       0.1      15.3
11 O  dxy             0.0       0.2       2.2      13.5       6.3      16.9
12 O  s               0.2       0.1       0.3       1.4       0.9       1.9
12 O  pz              0.1       0.0       0.1       0.3       0.2       0.2
12 O  px              0.0       0.0       0.0       0.3       0.1       0.4
12 O  py              0.1       0.1       0.1       1.1       0.5       0.6
12 O  dz2             0.7       0.2       0.6       2.3       1.4       3.4
12 O  dxz             0.2       0.0       0.1       1.7       0.6       0.7
12 O  dyz             0.4       0.2       0.2       4.9       1.3       0.9
12 O  dx2y2           0.4       0.9       1.5       5.3       2.9       0.0
12 O  dxy             1.7       0.3       0.3       9.5       2.7      10.7
13 O  s               0.0       0.1       1.2       1.6       2.3       0.3
13 O  pz              0.0       0.0       0.1       0.1       0.1       0.0
13 O  px              0.0       0.2       1.0       1.5       1.4       0.1
13 O  py              0.0       0.1       0.1       0.2       0.2       0.0
13 O  dz2             0.0       0.0       0.8       0.5       2.3       0.4
13 O  dxz             0.1       1.7       6.1      10.4       6.8       0.2
13 O  dyz             0.0       0.1       0.1       0.3       0.2       0.0
13 O  dx2y2           0.2       1.4       8.8      12.7      10.4       0.5
13 O  dxy             0.1       0.6       0.2       0.0       0.5       0.3
14 O  s               0.2       2.1       0.5       0.1       2.3       0.0
14 O  pz              0.0       0.3       0.1       0.0       0.2       0.0
14 O  py              0.2       2.3       0.6       0.0       1.2       0.0
14 O  dz2             0.1       0.6       0.5       0.5       2.3       0.0
14 O  dxz             0.3       2.3       0.3       0.0       1.1       0.0
14 O  dyz             1.4      12.3       2.2       0.0       5.6       0.0
14 O  dx2y2           1.0       8.5       1.0       0.2       4.3       0.0
14 O  dxy             1.1      11.4       4.1       0.0       5.0       0.0
15 O  s               1.0       0.6       2.9       0.1       0.8       0.2
15 O  pz              0.3       0.2       0.5       0.0       0.1       0.0
15 O  px              0.4       0.2       0.9       0.1       0.1       0.0
15 O  py              0.4       0.4       0.9       0.0       0.3       0.1
15 O  dz2             3.2       1.0       6.7       0.2       2.0       0.2
15 O  dxz             1.3       1.2       2.2       0.2       0.2       0.0
15 O  dyz             2.0       1.7       2.5       0.3       0.5       0.0
15 O  dx2y2           0.2       0.7       0.0       0.0       0.5       0.3
15 O  dxy            10.4       5.4      17.8       1.0       3.7       0.5
16 O  s               2.9       1.0       0.4       0.1       0.1       0.0
16 O  pz              1.3       0.5       0.2       0.0       0.0       0.0
16 O  px              0.7       0.2       0.1       0.0       0.0       0.0
16 O  py              1.1       0.4       0.2       0.0       0.0       0.0
16 O  dz2             3.3       0.7       0.2       0.0       0.0       0.0
16 O  dxz             4.5       1.8       0.9       0.1       0.1       0.0
16 O  dyz            17.8       6.5       2.7       0.2       0.2       0.0
16 O  dx2y2           4.3       1.7       0.8       0.0       0.0       0.0
16 O  dxy            15.9       4.5       2.0       0.2       0.3       0.0
20 H  s               0.0       0.0       0.2       0.4       0.2       0.0
21 H  s               0.0       0.4       0.1       0.0       0.1       0.0
22 H  s               0.2       0.0       0.3       0.0       0.1       0.0
23 H  s               0.5       0.1       0.0       0.0       0.0       0.0



                      *****************************
                      * MAYER POPULATION ANALYSIS *
                      *****************************

  NA   - Mulliken gross atomic population
  ZA   - Total nuclear charge
  QA   - Mulliken gross atomic charge
  VA   - Mayer's total valence
  BVA  - Mayer's bonded valence
  FA   - Mayer's free valence

  ATOM       NA         ZA         QA         VA         BVA        FA
  0 C      5.9004     6.0000     0.0996     3.9282     3.9282    -0.0000
  1 C      6.0087     6.0000    -0.0087     4.0339     4.0339     0.0000
  2 H      0.9762     1.0000     0.0238     0.9878     0.9878    -0.0000
  3 C      5.9837     6.0000     0.0163     3.9534     3.9534    -0.0000
  4 H      0.9271     1.0000     0.0729     0.9784     0.9784    -0.0000
  5 C      5.9414     6.0000     0.0586     4.0495     4.0495     0.0000
  6 H      0.9629     1.0000     0.0371     0.9835     0.9835    -0.0000
  7 C      5.9518     6.0000     0.0482     3.9971     3.9971    -0.0000
  8 H      0.9581     1.0000     0.0419     0.9864     0.9864     0.0000
  9 C      5.7948     6.0000     0.2052     4.1232     4.1232     0.0000
 10 H      0.9474     1.0000     0.0526     0.9758     0.9758     0.0000
 11 O      8.2947     8.0000    -0.2947     2.1246     2.1246    -0.0000
 12 O      8.3664     8.0000    -0.3664     2.0694     2.0694    -0.0000
 13 O      8.4074     8.0000    -0.4074     2.0153     2.0153    -0.0000
 14 O      8.4207     8.0000    -0.4207     2.0180     2.0180     0.0000
 15 O      8.4122     8.0000    -0.4122     2.0177     2.0177     0.0000
 16 O      8.4251     8.0000    -0.4251     2.0128     2.0128    -0.0000
 17 H      0.9107     1.0000     0.0893     0.9746     0.9746     0.0000
 18 H      0.9211     1.0000     0.0789     0.9829     0.9829    -0.0000
 19 H      0.6979     1.0000     0.3021     0.8923     0.8923    -0.0000
 20 H      0.6901     1.0000     0.3099     0.8881     0.8881    -0.0000
 21 H      0.6950     1.0000     0.3050     0.8996     0.8996     0.0000
 22 H      0.6991     1.0000     0.3009     0.8857     0.8857     0.0000
 23 H      0.7071     1.0000     0.2929     0.8856     0.8856     0.0000

  Mayer bond orders larger than 0.100000
B(  0-C ,  1-C ) :   1.0233 B(  0-C , 16-O ) :   1.0921 B(  0-C , 17-H ) :   0.9046 
B(  0-C , 18-H ) :   0.9154 B(  1-C ,  2-H ) :   0.8681 B(  1-C ,  3-C ) :   0.9750 
B(  1-C , 11-O ) :   1.0039 B(  3-C ,  4-H ) :   0.8652 B(  3-C ,  5-C ) :   1.0061 
B(  3-C , 15-O ) :   0.9980 B(  5-C ,  6-H ) :   0.8672 B(  5-C ,  7-C ) :   1.0089 
B(  5-C , 14-O ) :   1.0871 B(  7-C ,  8-H ) :   0.8624 B(  7-C ,  9-C ) :   0.9754 
B(  7-C , 13-O ) :   1.0870 B(  9-C , 10-H ) :   0.8780 B(  9-C , 11-O ) :   1.0000 
B(  9-C , 12-O ) :   1.1664 B( 12-O , 19-H ) :   0.8426 B( 13-O , 20-H ) :   0.8394 
B( 14-O , 21-H ) :   0.8312 B( 15-O , 22-H ) :   0.8444 B( 16-O , 23-H ) :   0.8537 


-------
TIMINGS
-------

Total SCF time: 0 days 0 hours 0 min 8 sec 

Total time                  ....       8.906 sec
Sum of individual times     ....       8.485 sec  ( 95.3%)

SCF preparation             ....       0.168 sec  (  1.9%)
Fock matrix formation       ....       7.609 sec  ( 85.4%)
  Startup                   ....       0.049 sec  (  0.6% of F)
  Split-RI-J                ....       3.367 sec  ( 44.2% of F)
  XC integration            ....       3.795 sec  ( 49.9% of F)
    Basis function eval.    ....       1.274 sec  ( 33.6% of XC)
    Density eval.           ....       0.688 sec  ( 18.1% of XC)
    XC-Functional eval.     ....       0.274 sec  (  7.2% of XC)
    XC-Potential eval.      ....       0.930 sec  ( 24.5% of XC)
Diagonalization             ....       0.000 sec  (  0.0%)
Density matrix formation    ....       0.160 sec  (  1.8%)
Total Energy calculation    ....       0.026 sec  (  0.3%)
Population analysis         ....       0.100 sec  (  1.1%)
Orbital Transformation      ....       0.052 sec  (  0.6%)
Orbital Orthonormalization  ....       0.000 sec  (  0.0%)
DIIS solution               ....       0.285 sec  (  3.2%)
  MO trafo                  ....       0.000 sec  (  0.0 % of DIIS)
  Orb grad                  ....       0.000 sec  (  0.0 % of DIIS)
  Energy W gradient         ....       0.000 sec  (  0.0 % of DIIS)
  DIIS error                ....       0.006 sec  (  2.0 % of DIIS)
  DIIS work                 ....       0.238 sec  ( 83.5 % of DIIS)
  Form Q                    ....       0.000 sec  (  0.0 % of DIIS)
  Form QpQm                 ....       0.000 sec  (  0.0 % of DIIS)
  Exp/Cayley                ....       0.000 sec  (  0.0 % of DIIS)
  Orb update                ....       0.000 sec  (  0.0 % of DIIS)
  Wake-sleep                ....       0.014 sec  (  4.9 % of DIIS)
SOSCF solution              ....       0.084 sec  (  0.9%)
  MO trafo                  ....       0.047 sec  ( 55.2 % of SOSCF)
  Orb grad                  ....       0.001 sec  (  1.4 % of SOSCF)
  Rot update                ....       0.017 sec  ( 20.3 % of SOSCF)
  Step                      ....       0.019 sec  ( 23.0 % of SOSCF)
Finished LeanSCF after   9.0 sec

Maximum memory used throughout the entire LEANSCF-calculation: 17.9 MB


-------------------------------------------------------------------------------
                          DFT DISPERSION CORRECTION                            
                                                                               
                                DFTD4 V3.4.0                                   
-------------------------------------------------------------------------------
The PBE functional is recognized
Active option DFTDOPT                   ...         5   

-------------------------   ----------------
Dispersion correction           -0.023537770
-------------------------   ----------------

------------------   -----------------
gCP correction             0.152595146
------------------   -----------------

-------------------------   --------------------
FINAL SINGLE POINT ENERGY      -685.694143487483
-------------------------   --------------------


------------------------------------------------------------------------------
                              ORCA PROPERTY CALCULATIONS
------------------------------------------------------------------------------

GBWName                                 ... sp.gbw
Number of atoms                         ...     24
Number of basis functions               ...    192
Max core memory                         ...   1024 MB

Electric properties:
Dipole moment                           ... YES
Quadrupole moment                       ...  NO
Static polarizability (Dipole/Dipole)   ...  NO
Static polarizability (Dipole/Quad.)    ...  NO
Static polarizability (Quad./Quad.)     ...  NO
Static polarizability (Velocity)        ...  NO

Atomic electric properties:
Dipole moment                           ...  NO
Quadrupole moment                       ...  NO
Static polarizability                   ...  NO

Choice of electric origin               ... Center of mass
Position of electric origin             ...    -0.000008     0.000005     0.000000

General magnetic properties:
Magnetizability                         ...  NO

EPR properties:
g-Tensor (aka g-matrix)                 ...  NO
Zero-Field splitting spin-orbit         ...  NO
Zero-field splitting spin-spin          ...  NO
Hyperfine couplings                     ...  NO (   0 nuclei)
Quadrupole couplings                    ...  NO (   0 nuclei)
Contact density                         ...  NO (   0 nuclei)

NMR properties:
Chemical shifts                         ...  NO (   0 nuclei)
Spin-rotation constants                 ...  NO (   0 nuclei)
Spin-spin couplings                     ...  NO (   0 nuclei,    0 pairs)

Choice of magnetic origin               ... GIAO
Position of magnetic origin             ...     0.000000     0.000000     0.000000

Properties with geometric perturbations:
SCF Hessian                             ...  NO
IR spectrum                             ...  NO
VCD spectrum                            ...  NO
X-ray spectroscopy properties:
SCF XES/XAS/RIXS spectra                ...  NO


-------------
DIPOLE MOMENT
-------------

Method             : SCF
Type of density    : Electron Density
Multiplicity       :   1
Irrep              :   0
Energy             :  -685.8232008641055018 Eh
Relativity type    : 
Basis              : AO
                                X                 Y                 Z
Electronic contribution:      2.651480829      -1.445559169      -0.186678895
Nuclear contribution   :     -3.215515358       2.697887554       0.518717877
                        -----------------------------------------
Total Dipole Moment    :     -0.564034529       1.252328385       0.332038982
                        -----------------------------------------
Magnitude (a.u.)       :      1.413050324
Magnitude (Debye)      :      3.591688487



--------------------
Rotational spectrum 
--------------------
 
Rotational constants in cm-1:             0.039406             0.025407             0.016245 
Rotational constants in MHz :          1181.364142           761.697600           487.027312 

Dipole components along the rotational axes: 
x,y,z [a.u.] :    -0.192353     1.346747     0.382080 
x,y,z [Debye]:    -0.488922     3.423158     0.971170 

 

Dipole moment calculation done in   0.0 sec 

Maximum memory used throughout the entire PROP-calculation: 11.7 MB

--------------------------------
SUGGESTED CITATIONS FOR THIS RUN
--------------------------------

Below you find a list of papers that are relevant to this ORCA run
We neither can nor want to force you to cite these papers, but we appreciate if you do
You receive ORCA, which is the product of decades of hard work by many enthusiastic individuals, for free
The only thing we kindly ask in return is that you cite our papers,
We deeply appreciate it, if you show your appreciation for ORCA by not just citing the generic ORCA reference.

Please note that relegating all ORCA citations to the supporting information does *not* help us.
SI sections are not indexed - citations you put there will not count into any citation statistics
But we need these citations in order to attract the funding resources that allow us to do what we are doing

Therefore, if you are a happy ORCA user, please consider citing a few of the papers listed below in the main body of your paper

In addition to the list printed below, the program has created the file sp.bibtex that contains the list in bibtex format
You can import this file easily into all common literature databanks and citation aid programs


List of essential papers. We consider these as the minimum necessary citations

  1. Neese,F.
     Software update: the ORCA program system, version 5.0
     WIRES Comput. Molec. Sci., 2022 12(1)e1606
     doi.org/10.1002/wcms.1606

List of papers to cite with high priority. The work reported in these papers was absolutely
necessary for this run to complete.
Our perspective: the developers of density functionals and basis sets usually get cited in chemistry papers
Good! But without the algorithms to do something with them, the functionals or basis sets would not do anything.
Hence, in our opinion, the algorithm design and method developments papers are equally worthy of getting cited

  1. Neese,F.
     An improvement of the resolution of the identity approximation for the formation of the Coulomb matrix
     J. Comp. Chem., 2003 24(14)1740-1747
     doi.org/10.1002/jcc.10318
  2. Neese,F.
     The SHARK Integral Generation and Digestion System
     J. Comp. Chem., 2022  1-16
     doi.org/10.1002/jcc.26942
  3. Caldeweyher,E.; Bannwarth,C.; Grimme,S.
     Extension of the D3 dispersion coefficient model
     J. Chem. Phys., 2017 147 034112-XXXX
     doi.org/10.1063/1.4993215
  4. Caldeweyher,E.; Ehlert,S.; Hansen,A.; Neugebauer,H.; Spicher,S.; Bannwarth,C.; Grimme,S.
     A generally applicable atomic-charge dependent London dispersion correction
     J. Chem. Phys., 2019 150 154122-XXXX
     doi.org/10.1063/1.5090222
  5. Caldeweyher,E.; Mewes,J.; Ehlert,S.; Grimme,S.
     Extension and evaluation of the D4 London-dispersion model for periodic systems
     Phys. Chem. Chem. Phys., 2020 22(16)8499-8512
     doi.org/10.1039/D0CP00502A

List of suggested additional citations. These are papers that are important in the 'surrounding' of 
of this run, or papers that preceded the highly important papers. If you like your results we are grateful for a citation.

  1. Neese,F.
     The ORCA program system
     WIRES Comput. Molec. Sci., 2012 2(1)73-78
     doi.org/10.1002/wcms.81
  2. Neese,F.
     Software update: the ORCA program system, version 4.0
     WIRES Comput. Molec. Sci., 2018 8(1)1-6
     doi.org/10.1002/wcms.1327
  3. Neese,F.; Wennmohs,F.; Becker,U.; Riplinger,C.
     The ORCA quantum chemistry program package
     J. Chem. Phys., 2020 152 Art. No. L224108
     doi.org/10.1063/5.0004608

List of optional additional citations

  1. Neese,F.
     Approximate second-order SCF convergence for spin unrestricted wavefunctions
     Chem. Phys. Lett., 2000 325(1-3)93-98
     doi.org/10.1016/s0009-2614(00)00662-x

Timings for individual modules:

Sum of individual times          ...       10.966 sec (=   0.183 min)
Startup calculation              ...        0.863 sec (=   0.014 min)   7.9 %
SCF iterations                   ...       10.008 sec (=   0.167 min)  91.3 %
Property calculations            ...        0.094 sec (=   0.002 min)   0.9 %
                             ****ORCA TERMINATED NORMALLY****
TOTAL RUN TIME: 0 days 0 hours 0 minutes 11 seconds 645 msec
