
                                 *****************
                                 * O   R   C   A *
                                 *****************

                                            #,                                       
                                            ###                                      
                                            ####                                     
                                            #####                                    
                                            ######                                   
                                           ########,                                 
                                     ,,################,,,,,                         
                               ,,#################################,,                 
                          ,,##########################################,,             
                       ,#########################################, ''#####,          
                    ,#############################################,,   '####,        
                  ,##################################################,,,,####,       
                ,###########''''           ''''###############################       
              ,#####''   ,,,,##########,,,,          '''####'''          '####       
            ,##' ,,,,###########################,,,                        '##       
           ' ,,###''''                  '''############,,,                           
         ,,##''                                '''############,,,,        ,,,,,,###''
      ,#''                                            '''#######################'''  
     '                                                          ''''####''''         
             ,#######,   #######,   ,#######,      ##                                
            ,#'     '#,  ##    ##  ,#'     '#,    #''#        ,####,   ,####,        
            ##       ##  ##   ,#'  ##            #'  '#       #'       #'  '#        
            ##       ##  #######   ##           ,######,      #####,   #    #        
            '#,     ,#'  ##    ##  '#,     ,#' ,#      #,     #,   #   #,  ,#        
             '#######'   ##     ##  '#######'  #'      '#     '####' # '####'        



                #########################################################
                #                        -***-                          #
                #          Department of theory and spectroscopy        #
                #                                                       #
                #                      Frank Neese                      #
                #                                                       #
                #     Directorship, Architecture, Infrastructure        #
                #                    SHARK, DRIVERS                     #
                #        Core code/Algorithms in most modules           #
                #                                                       #
                #        Max Planck Institute fuer Kohlenforschung      #
                #                Kaiser Wilhelm Platz 1                 #
                #                 D-45470 Muelheim/Ruhr                 #
                #                      Germany                          #
                #                                                       #
                #                  All rights reserved                  #
                #                        -***-                          #
                #########################################################


                         Program Version 6.0.0  -   RELEASE  -


 With contributions from (in alphabetic order):
   Daniel Aravena         : Magnetic Suceptibility
   Michael Atanasov       : Ab Initio Ligand Field Theory (pilot matlab implementation)
   Alexander A. Auer      : GIAO ZORA, VPT2 properties, NMR spectrum
   Ute Becker             : All parallelization in ORCA, NUMFREQ, NUMCALC
   Giovanni Bistoni       : ED, misc. LED, open-shell LED, HFLD
   Martin Brehm           : Molecular dynamics
   Dmytro Bykov           : pre 5.0 version of the SCF Hessian
   Marcos Casanova-Páez   : Triplet and SCS-CIS(D). UHF-(DLPNO)-IP/EA/STEOM-CCSD. UHF-CVS-IP/STEOM-CCSD
   Vijay G. Chilkuri      : MRCI spin determinant printing, contributions to CSF-ICE
   Pauline Colinet        : FMM embedding
   Dipayan Datta          : RHF DLPNO-CCSD density
   Achintya Kumar Dutta   : EOM-CC, STEOM-CC
   Nicolas Foglia         : Exact transition moments, OPA infrastructure, MCD improvements
   Dmitry Ganyushin       : Spin-Orbit,Spin-Spin,Magnetic field MRCI
   Miquel Garcia          : C-PCM and meta-GGA Hessian, CCSD/C-PCM, Gaussian charge scheme
   Tiago L. C. Gouveia    : GS-ROHF, GS-ROCIS
   Yang Guo               : DLPNO-NEVPT2, F12-NEVPT2, CIM, IAO-localization
   Andreas Hansen         : Spin unrestricted coupled pair/coupled cluster methods
   Ingolf Harden          : AUTO-CI MPn and infrastructure 
   Benjamin Helmich-Paris : MC-RPA, TRAH-(SCF,CASSCF), AVAS, COSX integrals, SCF dyn. polar.
   Lee Huntington         : MR-EOM, pCC
   Robert Izsak           : Overlap fitted RIJCOSX, COSX-SCS-MP3, EOM
   Riya Kayal             : Wick's Theorem for AUTO-CI, AUTO-CI UHF-CCSDT
   Emily Kempfer          : AUTO-CI, RHF CISDT and CCSDT
   Christian Kollmar      : KDIIS, OOCD, Brueckner-CCSD(T), CCSD density, CASPT2, CASPT2-K, improved NEVPT2
   Axel Koslowski         : Symmetry handling
   Simone Kossmann        : Meta GGA functionals, TD-DFT gradient, OOMP2, (MP2 Hessian; deprecated post 5.0)
   Lucas Lang             : DCDCAS
   Marvin Lechner         : AUTO-CI (C++ implementation), FIC-MRCC
   Spencer Leger          : CASSCF response
   Dagmar Lenk            : GEPOL surface, SMD, ORCA-2-JSON
   Dimitrios Liakos       : Extrapolation schemes; Compound Job, initial MDCI parallelization
   Dimitrios Manganas     : Further ROCIS development; embedding schemes. LFT, Crystal Embedding
   Dimitrios Pantazis     : SARC Basis sets
   Anastasios Papadopoulos: AUTO-CI, single reference methods and gradients
   Taras Petrenko         : pre 6.0 DFT Hessian and TD-DFT gradient, (ASA, deprecated), ECA, 1-Electron XAS/XES, NRVS
   Peter Pinski           : DLPNO-MP2, DLPNO-MP2 Gradient
   Christoph Reimann      : Effective Core Potentials
   Marius Retegan         : Local ZFS, SOC
   Christoph Riplinger    : Optimizer, TS searches, QM/MM, DLPNO-CCSD(T), (RO)-DLPNO pert. Triples
   Michael Roemelt        : Original ROCIS implementation
   Masaaki Saitow         : Open-shell DLPNO-CCSD energy and density
   Barbara Sandhoefer     : DKH picture change effects
   Kantharuban Sivalingam : CASSCF convergence/infrastructure, NEVPT2 and variants, FIC-MRCI
   Bernardo de Souza      : ESD, SOC TD-DFT
   Georgi Stoychev        : AutoAux, RI-MP2 NMR, DLPNO-MP2 response, X2C
   Van Anh Tran           : RI-MP2 g-tensors
   Willem Van den Heuvel  : Paramagnetic NMR
   Zikuan Wang            : NOTCH, Electric field optimization 
   Frank Wennmohs         : Technical directorship and infrastructure
   Hang Xu                : AUTO-CI-Response properties 


 We gratefully acknowledge several colleagues who have allowed us to
 interface, adapt or use parts of their codes:
   Stefan Grimme, W. Hujo, H. Kruse, P. Pracht,  : VdW corrections, initial TS optimization,
                  C. Bannwarth, S. Ehlert,         DFT functionals, gCP, sTDA/sTD-DF
                  L. Wittmann, M. Mueller
   Ed Valeev, F. Pavosevic, A. Kumar             : LibInt (2-el integral package), F12 methods
   Garnet Chan, S. Sharma, J. Yang, R. Olivares  : DMRG
   Ulf Ekstrom                                   : XCFun DFT Library
   Mihaly Kallay                                 : mrcc  (arbitrary order and MRCC methods)
   Frank Weinhold                                : gennbo (NPA and NBO analysis)
   Simon Mueller                                 : openCOSMO-RS
   Christopher J. Cramer and Donald G. Truhlar   : smd solvation model
   Lars Goerigk                                  : TD-DFT with DH, B97 family of functionals
   V. Asgeirsson, H. Jonsson                     : NEB implementation
   FAccTs GmbH                                   : IRC, NEB, NEB-TS, DLPNO-Multilevel, CI-OPT
                                                   MM, QMMM, 2- and 3-layer-ONIOM, Crystal-QMMM,
                                                   LR-CPCM, SF, NACMEs, symmetry and pop. for TD-DFT,
                                                   nearIR, NL-DFT gradient (VV10), updates on ESD,
                                                   ML-optimized integration grids, MBIS, APM,
                                                   GOAT, DOCKER, SOLVATOR, interface openCOSMO-RS
   S Lehtola, MJT Oliveira, MAL Marques          : LibXC Library
   Liviu Ungur et al                             : ANISO software


 Your calculation uses the libint2 library for the computation of 2-el integrals
 For citations please refer to: http://libint.valeyev.net

 Your ORCA version has been built with support for libXC version: 6.2.2
 For citations please refer to: https://libxc.gitlab.io

 This ORCA versions uses:
   CBLAS   interface :  Fast vector & matrix operations
   LAPACKE interface :  Fast linear algebra routines
   SCALAPACK package :  Parallel linear algebra routines
   Shared memory     :  Shared parallel matrices
   BLAS/LAPACK       :  OpenBLAS 0.3.27  USE64BITINT DYNAMIC_ARCH NO_AFFINITY SkylakeX SINGLE_THREADED
        Core in use  :  SkylakeX
   Copyright (c) 2011-2014, The OpenBLAS Project


Your calculation utilizes the geometrical counterpoise correction gCP
Please cite in your paper:
H.Kruse, S. Grimme J.Chem.Phys., 136, (2012), 154101 
   

Your calculation utilizes the atom-pairwise dispersion correction
based on EEQ partial charges (D4)


================================================================================

----- Orbital basis set information -----
Your calculation utilizes the basis: def2-mTZVPP
   Stefan Grimme, Andreas Hansen, Sebastian Ehlert, and Jan-Michael Mewes 
   J. Chem. Phys. 154, 064103 (2021). DOI: 10.1063/5.0040021

----- AuxJ basis set information -----
Your calculation utilizes the auxiliary basis: def2/J
   F. Weigend, Phys. Chem. Chem. Phys. 8, 1057 (2006).

================================================================================
                                        WARNINGS
                       Please study these warnings very carefully!
================================================================================

Using LibXC functional ID 497 : Re-regularized SCAN exchange by Furness et al
[ 1]  J. W. Furness, A. D. Kaplan, J. Ning, J. P. Perdew, and J. Sun.,  J. Phys. Chem. Lett. 11, 8208-8215 (2020)
[ 2]  J. W. Furness, A. D. Kaplan, J. Ning, J. P. Perdew, and J. Sun.,  J. Phys. Chem. Lett. 11, 9248-9248 (2020)
Using LibXC functional ID 498 : Re-regularized SCAN correlation by Furness et al
[ 1]  J. W. Furness, A. D. Kaplan, J. Ning, J. P. Perdew, and J. Sun.,  J. Phys. Chem. Lett. 11, 8208-8215 (2020)
[ 2]  J. W. Furness, A. D. Kaplan, J. Ning, J. P. Perdew, and J. Sun.,  J. Phys. Chem. Lett. 11, 9248-9248 (2020)
Using LibXC functional ID 497 : Re-regularized SCAN exchange by Furness et al
[ 1]  J. W. Furness, A. D. Kaplan, J. Ning, J. P. Perdew, and J. Sun.,  J. Phys. Chem. Lett. 11, 8208-8215 (2020)
[ 2]  J. W. Furness, A. D. Kaplan, J. Ning, J. P. Perdew, and J. Sun.,  J. Phys. Chem. Lett. 11, 9248-9248 (2020)
Using LibXC functional ID 498 : Re-regularized SCAN correlation by Furness et al
[ 1]  J. W. Furness, A. D. Kaplan, J. Ning, J. P. Perdew, and J. Sun.,  J. Phys. Chem. Lett. 11, 8208-8215 (2020)
[ 2]  J. W. Furness, A. D. Kaplan, J. Ning, J. P. Perdew, and J. Sun.,  J. Phys. Chem. Lett. 11, 9248-9248 (2020)

================================================================================
                                       INPUT FILE
================================================================================
NAME = sp_gas.inp
|  1> ! r2scan-3c def2/J RI DEFGRID2 scfconv6 printgap
|  2> %output
|  3>     printlevel normal
|  4> end
|  5> * xyz 0 1
|  6> C 2.1248514846 -2.0974523719 -0.0403727664
|  7> C 1.1680925377 -0.9672359262 0.1091950613
|  8> C 1.5480360117 0.3139252615 -0.0225779945
|  9> C 0.6337487153 1.4295830973 0.1219372077
| 10> O 0.9888197992 2.593988135 -0.0498526318
| 11> C -0.776669948 1.0891124326 0.5367085542
| 12> C -1.253757349 -0.2599804893 -0.0114877558
| 13> C -0.2463688986 -1.3336236168 0.421427268
| 14> C -1.3416429223 -0.203048403 -1.5382189649
| 15> C -2.6340544259 -0.5888234399 0.5604491264
| 16> H 3.1474961526 -1.7433592831 -0.1298330243
| 17> H 1.8727662432 -2.6725614974 -0.9304416775
| 18> H 2.0472601341 -2.7678731678 0.8132230667
| 19> H 2.5709824925 0.5732514228 -0.2582607103
| 20> H -0.7770016894 1.0588467413 1.6309510617
| 21> H -1.4380368591 1.9019228635 0.2305425485
| 22> H -0.3227471313 -1.4760362816 1.5043901612
| 23> H -0.49173053 -2.2878993868 -0.0474481252
| 24> H -0.3723890749 0.0280691392 -1.9744538479
| 25> H -2.0434565697 0.5679983369 -1.847458681
| 26> H -1.6834761991 -1.1558808684 -1.9349121129
| 27> H -2.6056588353 -0.622237629 1.6469301674
| 28> H -2.9748183081 -1.5538626373 0.1940094549
| 29> H -3.3571990991 0.1655570409 0.2608009173
| 30> *
| 31> 
| 32>                          ****END OF INPUT****
================================================================================

                       ****************************
                       * Single Point Calculation *
                       ****************************

---------------------------------
CARTESIAN COORDINATES (ANGSTROEM)
---------------------------------
  C      2.124851   -2.097452   -0.040373
  C      1.168093   -0.967236    0.109195
  C      1.548036    0.313925   -0.022578
  C      0.633749    1.429583    0.121937
  O      0.988820    2.593988   -0.049853
  C     -0.776670    1.089112    0.536709
  C     -1.253757   -0.259980   -0.011488
  C     -0.246369   -1.333624    0.421427
  C     -1.341643   -0.203048   -1.538219
  C     -2.634054   -0.588823    0.560449
  H      3.147496   -1.743359   -0.129833
  H      1.872766   -2.672561   -0.930442
  H      2.047260   -2.767873    0.813223
  H      2.570982    0.573251   -0.258261
  H     -0.777002    1.058847    1.630951
  H     -1.438037    1.901923    0.230543
  H     -0.322747   -1.476036    1.504390
  H     -0.491731   -2.287899   -0.047448
  H     -0.372389    0.028069   -1.974454
  H     -2.043457    0.567998   -1.847459
  H     -1.683476   -1.155881   -1.934912
  H     -2.605659   -0.622238    1.646930
  H     -2.974818   -1.553863    0.194009
  H     -3.357199    0.165557    0.260801

----------------------------
CARTESIAN COORDINATES (A.U.)
----------------------------
  NO LB      ZA    FRAG     MASS         X           Y           Z
   0 C     6.0000    0    12.011    4.015387   -3.963611   -0.076293
   1 C     6.0000    0    12.011    2.207375   -1.827811    0.206349
   2 C     6.0000    0    12.011    2.925364    0.593233   -0.042666
   3 C     6.0000    0    12.011    1.197612    2.701521    0.230428
   4 O     8.0000    0    15.999    1.868599    4.901927   -0.094208
   5 C     6.0000    0    12.011   -1.467693    2.058124    1.014232
   6 C     6.0000    0    12.011   -2.369258   -0.491292   -0.021709
   7 C     6.0000    0    12.011   -0.465570   -2.520183    0.796382
   8 C     6.0000    0    12.011   -2.535338   -0.383706   -2.906813
   9 C     6.0000    0    12.011   -4.977641   -1.112715    1.059095
  10 H     1.0000    0     1.008    5.947906   -3.294472   -0.245349
  11 H     1.0000    0     1.008    3.539015   -5.050409   -1.758280
  12 H     1.0000    0     1.008    3.868761   -5.230522    1.536769
  13 H     1.0000    0     1.008    4.858453    1.083288   -0.488042
  14 H     1.0000    0     1.008   -1.468320    2.000930    3.082051
  15 H     1.0000    0     1.008   -2.717496    3.594113    0.435662
  16 H     1.0000    0     1.008   -0.609904   -2.789304    2.842885
  17 H     1.0000    0     1.008   -0.929236   -4.323503   -0.089664
  18 H     1.0000    0     1.008   -0.703713    0.053043   -3.731177
  19 H     1.0000    0     1.008   -3.861573    1.073361   -3.491191
  20 H     1.0000    0     1.008   -3.181309   -2.184298   -3.656454
  21 H     1.0000    0     1.008   -4.923982   -1.175859    3.112247
  22 H     1.0000    0     1.008   -5.621592   -2.936375    0.366625
  23 H     1.0000    0     1.008   -6.344187    0.312857    0.492842

--------------------------------
INTERNAL COORDINATES (ANGSTROEM)
--------------------------------
 C      0   0   0     0.000000000000     0.00000000     0.00000000
 C      1   0   0     1.488337136433     0.00000000     0.00000000
 C      2   1   0     1.342793793007   122.19312135     0.00000000
 C      3   2   1     1.449654548714   123.09584590   180.14206019
 O      4   3   2     1.229400795265   122.19691663   182.69440590
 C      4   3   2     1.509051473338   116.31039682     4.44185908
 C      6   4   3     1.532378313084   113.03505060   326.80221309
 C      2   1   3     1.494131870185   116.31758592   180.24614491
 C      7   6   4     1.530318045795   110.00064088   294.80269736
 C      7   6   4     1.529859308524   109.65764235   174.67163829
 H      1   2   3     1.085903849458   111.47207311     7.55512496
 H      1   2   3     1.089275053268   109.52880132   247.05446777
 H      1   2   3     1.088168326838   110.07122002   129.17762743
 H      3   2   1     1.081302872947   121.19073098     0.87069072
 H      6   4   3     1.094661037647   106.33612682    86.92764046
 H      6   4   3     1.091698040084   108.73269069   202.41572309
 H      8   2   1     1.094953711156   107.73487313    83.97698026
 H      8   2   1     1.091186835387   109.72609762   327.59687760
 H      9   7   6     1.087735819102   110.90620552    59.68653405
 H      9   7   6     1.087513067876   110.31167447   299.97395224
 H      9   7   6     1.087246591127   110.45414929   180.22492324
 H     10   7   6     1.087365564128   110.89088501   301.40711947
 H     10   7   6     1.087059662015   110.34227188   181.12822408
 H     10   7   6     1.087114151047   110.36253902    61.42572919

---------------------------
INTERNAL COORDINATES (A.U.)
---------------------------
 C      0   0   0     0.000000000000     0.00000000     0.00000000
 C      1   0   0     2.812549582804     0.00000000     0.00000000
 C      2   1   0     2.537512523113   122.19312135     0.00000000
 C      3   2   1     2.739450085863   123.09584590   180.14206019
 O      4   3   2     2.323230811876   122.19691663   182.69440590
 C      4   3   2     2.851694006599   116.31039682     4.44185908
 C      6   4   3     2.895775345290   113.03505060   326.80221309
 C      2   1   3     2.823500042614   116.31758592   180.24614491
 C      7   6   4     2.891882004349   110.00064088   294.80269736
 C      7   6   4     2.891015116541   109.65764235   174.67163829
 H      1   2   3     2.052060883247   111.47207311     7.55512496
 H      1   2   3     2.058431535189   109.52880132   247.05446777
 H      1   2   3     2.056340125331   110.07122002   129.17762743
 H      3   2   1     2.043366297691   121.19073098     0.87069072
 H      6   4   3     2.068609570627   106.33612682    86.92764046
 H      6   4   3     2.063010316698   108.73269069   202.41572309
 H      8   2   1     2.069162643405   107.73487313    83.97698026
 H      8   2   1     2.062044279821   109.72609762   327.59687760
 H      9   7   6     2.055522804160   110.90620552    59.68653405
 H      9   7   6     2.055101865346   110.31167447   299.97395224
 H      9   7   6     2.054598297270   110.45414929   180.22492324
 H     10   7   6     2.054823123659   110.89088501   301.40711947
 H     10   7   6     2.054245052441   110.34227188   181.12822408
 H     10   7   6     2.054348021789   110.36253902    61.42572919

---------------------
BASIS SET INFORMATION
---------------------
There are 3 groups of distinct atoms

 Group   1 Type C   : 11s6p1d contracted to 5s3p1d pattern {62111/411/1}
 Group   2 Type O   : 11s6p2d contracted to 5s3p2d pattern {62111/411/11}
 Group   3 Type H   : 4s1p contracted to 2s1p pattern {31/1}

Atom   0C    basis set group =>   1
Atom   1C    basis set group =>   1
Atom   2C    basis set group =>   1
Atom   3C    basis set group =>   1
Atom   4O    basis set group =>   2
Atom   5C    basis set group =>   1
Atom   6C    basis set group =>   1
Atom   7C    basis set group =>   1
Atom   8C    basis set group =>   1
Atom   9C    basis set group =>   1
Atom  10H    basis set group =>   3
Atom  11H    basis set group =>   3
Atom  12H    basis set group =>   3
Atom  13H    basis set group =>   3
Atom  14H    basis set group =>   3
Atom  15H    basis set group =>   3
Atom  16H    basis set group =>   3
Atom  17H    basis set group =>   3
Atom  18H    basis set group =>   3
Atom  19H    basis set group =>   3
Atom  20H    basis set group =>   3
Atom  21H    basis set group =>   3
Atom  22H    basis set group =>   3
Atom  23H    basis set group =>   3
---------------------------------
AUXILIARY/J BASIS SET INFORMATION
---------------------------------
There are 3 groups of distinct atoms

 Group   1 Type C   : 12s5p4d2f1g contracted to 6s4p3d1f1g pattern {711111/2111/211/2/1}
 Group   2 Type O   : 12s5p4d2f1g contracted to 6s4p3d1f1g pattern {711111/2111/211/2/1}
 Group   3 Type H   : 5s2p1d contracted to 3s1p1d pattern {311/2/1}

Atom   0C    basis set group =>   1
Atom   1C    basis set group =>   1
Atom   2C    basis set group =>   1
Atom   3C    basis set group =>   1
Atom   4O    basis set group =>   2
Atom   5C    basis set group =>   1
Atom   6C    basis set group =>   1
Atom   7C    basis set group =>   1
Atom   8C    basis set group =>   1
Atom   9C    basis set group =>   1
Atom  10H    basis set group =>   3
Atom  11H    basis set group =>   3
Atom  12H    basis set group =>   3
Atom  13H    basis set group =>   3
Atom  14H    basis set group =>   3
Atom  15H    basis set group =>   3
Atom  16H    basis set group =>   3
Atom  17H    basis set group =>   3
Atom  18H    basis set group =>   3
Atom  19H    basis set group =>   3
Atom  20H    basis set group =>   3
Atom  21H    basis set group =>   3
Atom  22H    basis set group =>   3
Atom  23H    basis set group =>   3

Checking for AutoStart:
The File: sp_gas.gbw exists
Trying to determine its content:
     ... Fine, the file contains calculation information
     ... Fine, the calculation information was read
     ... Fine, the file contains a basis set
     ... Fine, the basis set was read
     ... Fine, the file contains a geometry
     ... Fine, the geometry was read
     ... Fine, the file contains a set of orbitals
     ... Fine, the orbitals can be read
     => possible old guess file was deleted
     => GBW file was renamed to GES file
     => GES file is set as startup file
     => Guess is set to MORead
     ... now leaving AutoStart

------------------------------------------------------------------------------
                             ORCA STARTUP CALCULATIONS
                           -- RI-GTO INTEGRALS CHOSEN --
------------------------------------------------------------------------------
------------------------------------------------------------------------------
                   ___                                                        
                  /   \      - P O W E R E D   B Y -                         
                 /     \                                                     
                 |  |  |   _    _      __       _____    __    __             
                 |  |  |  | |  | |    /  \     |  _  \  |  |  /  |          
                  \  \/   | |  | |   /    \    | | | |  |  | /  /          
                 / \  \   | |__| |  /  /\  \   | |_| |  |  |/  /          
                |  |  |   |  __  | /  /__\  \  |    /   |      \           
                |  |  |   | |  | | |   __   |  |    \   |  |\   \          
                \     /   | |  | | |  |  |  |  | |\  \  |  | \   \       
                 \___/    |_|  |_| |__|  |__|  |_| \__\ |__|  \__/        
                                                                              
                      - O R C A' S   B I G   F R I E N D -                    
                                      &                                       
                       - I N T E G R A L  F E E D E R -                       
                                                                              
 v1 FN, 2020, v2 2021, v3 2022-2024                                           
------------------------------------------------------------------------------


----------------------
SHARK INTEGRAL PACKAGE
----------------------

Number of atoms                             ...     24
Number of basis functions                   ...    265
Number of shells                            ...    133
Maximum angular momentum                    ...      2
Integral batch strategy                     ... SHARK/LIBINT Hybrid
RI-J (if used) integral strategy            ... SPLIT-RIJ (Revised 2003 algorithm where possible)
Printlevel                                  ...      1
Contraction scheme used                     ... SEGMENTED contraction
Prescreening option                         ... SCHWARTZ
   Thresh                                   ... 1.000e-10
   Tcut                                     ... 1.000e-11
   Tpresel                                  ... 1.000e-11 
Coulomb Range Separation                    ... NOT USED
Exchange Range Separation                   ... NOT USED
Multipole approximations                    ... NOT USED
Finite Nucleus Model                        ... NOT USED
CABS basis                                  ... NOT available
Auxiliary Coulomb fitting basis             ... AVAILABLE
   # of basis functions in Aux-J            ...    644
   # of shells in Aux-J                     ...    220
   Maximum angular momentum in Aux-J        ...      4
Auxiliary J/K fitting basis                 ... NOT available
Auxiliary Correlation fitting basis         ... NOT available
Auxiliary 'external' fitting basis          ... NOT available

Checking pre-screening integrals            ... done (  0.0 sec) Dimension = 133
Check shell pair data                       ... done (  0.0 sec)
Shell pair information
Shell pair cut-off parameter TPreSel        ...   1.0e-11
Total number of shell pairs                 ...      8911
Shell pairs after pre-screening             ...      7956
Total number of primitive shell pairs       ...     31888
Primitive shell pairs kept                  ...     19900
          la=0 lb=0:   2691 shell pairs
          la=1 lb=0:   3081 shell pairs
          la=1 lb=1:    909 shell pairs
          la=2 lb=0:    768 shell pairs
          la=2 lb=1:    444 shell pairs
          la=2 lb=2:     63 shell pairs

Calculating one electron integrals          ... done (  0.0 sec)
Calculating RI/J V-Matrix + Cholesky decomp.... done (  0.1 sec)
Calculating Nuclear repulsion               ... done (  0.0 sec) ENN=    550.371129813303 Eh

Diagonalization of the overlap matrix:
Smallest eigenvalue                        ... 6.056e-05
Time for diagonalization                   ...    0.007 sec
Threshold for overlap eigenvalues          ... 1.000e-07
Number of eigenvalues below threshold      ... 0
Time for construction of square roots      ...    0.016 sec
Total time needed                          ...    0.030 sec

-------------------
DFT GRID GENERATION
-------------------

General Integration Accuracy     IntAcc      ... 4.388
Radial Grid Type                 RadialGrid  ... OptM3 with GC (2021)
Angular Grid (max. ang.)         AngularGrid ... 4 (Lebedev-302)
Angular grid pruning method      GridPruning ... 4 (adaptive)
Weight generation scheme         WeightScheme... mBecke (2022)
Basis function cutoff            BFCut       ... 1.0000e-10
Integration weight cutoff        WCut        ... 1.0000e-14
Partially contracted basis set               ... off
Rotationally invariant grid construction     ... off
Angular grids for H and He will be reduced by one unit
Diffuse basis detected: some atoms will have their outermost
                        angular grid increased by 1.

Total number of grid points                  ...   104532
Total number of batches                      ...     1645
Average number of points per batch           ...       63
Average number of grid points per atom       ...     4356
Initializing property integral containers    ... done (  0.0 sec)

SHARK setup successfully completed in   1.6 seconds

Maximum memory used throughout the entire STARTUP-calculation: 49.3 MB
-------------------------------------------------------------------------------
                                 ORCA GUESS
                   Start orbitals & Density for SCF / CASSCF
-------------------------------------------------------------------------------

------------
SCF SETTINGS
------------
Hamiltonian:
 Density Functional     Method          .... DFT(GTOs)
  Functional kind                       .... Exchange
  Functional name                       .... Re-regularized SCAN exchange by Furness et al
  Functional family                     .... MGGA
  Functional refs                              
    [ 0] J. W. Furness, A. D. Kaplan, J. Ning, J. P. Perdew, and J. Sun.,  J. Phys. Chem. Lett. 11, 8208-8215 (2020), doi: 10.1021/acs.jpclett.0c02405
    [ 1] J. W. Furness, A. D. Kaplan, J. Ning, J. P. Perdew, and J. Sun.,  J. Phys. Chem. Lett. 11, 9248-9248 (2020), doi: 10.1021/acs.jpclett.0c03077
  Functional external parameters        .... 6
    Parameter  0 _c1        =  6.670000e-01 : c1 parameter        
    Parameter  1 _c2        =  8.000000e-01 : c2 parameter        
    Parameter  2 _d         =  1.240000e+00 : d parameter         
    Parameter  3 _k1        =  6.500000e-02 : k1 parameter        
    Parameter  4 _eta       =  1.000000e-03 : eta parameter       
    Parameter  5 _dp2       =  3.610000e-01 : dp2 parameter       
  Functional kind                       .... Correlation
  Functional name                       .... Re-regularized SCAN correlation by Furness et al
  Functional family                     .... MGGA
  Functional refs                              
    [ 0] J. W. Furness, A. D. Kaplan, J. Ning, J. P. Perdew, and J. Sun.,  J. Phys. Chem. Lett. 11, 8208-8215 (2020), doi: 10.1021/acs.jpclett.0c02405
    [ 1] J. W. Furness, A. D. Kaplan, J. Ning, J. P. Perdew, and J. Sun.,  J. Phys. Chem. Lett. 11, 9248-9248 (2020), doi: 10.1021/acs.jpclett.0c03077
  Functional external parameters        .... 1
    Parameter  0 _eta       =  1.000000e-03 : Regularization parameter
 Gradients option       PostSCFGGA      .... off
 RI-approximation to the Coulomb term is turned on
   Number of AuxJ basis functions       .... 644


General Settings:
 Integral files         IntName         .... sp_gas
 Hartree-Fock type      HFTyp           .... RHF
 Total Charge           Charge          ....    0
 Multiplicity           Mult            ....    1
 Number of Electrons    NEL             ....   76
 Basis Dimension        Dim             ....  265
 Nuclear Repulsion      ENuc            ....    550.3711298133 Eh

Convergence Acceleration:
 AO-DIIS                CNVDIIS         .... on
   Start iteration      DIISMaxIt       ....    12
   Startup error        DIISStart       ....  0.200000
   # of expansion vecs  DIISMaxEq       ....     5
   Bias factor          DIISBfac        ....   1.050
   Max. coefficient     DIISMaxC        ....  10.000
 MO-DIIS                CNVKDIIS        .... off
 Trust-Rad. Augm. Hess. CNVTRAH         .... auto
   Auto Start mean grad. ratio tolernc. ....  1.125000
   Auto Start start iteration           ....     1
   Auto Start num. interpolation iter.  ....    10
   Max. Number of Micro iterations      ....    24
   Max. Number of Macro iterations      .... Maxiter - #DIIS iter
   Number of Davidson start vectors     ....     2
   Converg. threshold    (grad. norm)   ....   3.330e-04
   Grad. Scal. Fac. for Micro threshold ....   0.100
   Minimum threshold for Micro iter.    ....   1.000e-02
   NR start threshold (gradient norm)   ....   1.000e-04
   Initial trust radius                 ....   0.400
   Minimum AH scaling param. (alpha)    ....   1.000
   Maximum AH scaling param. (alpha)    .... 1000.000
   Quad. conv. algorithm                .... NR
   White noise on init. David. guess    .... on
   Maximum white noise                  ....   0.010
   Pseudo random numbers                .... off
   Inactive MOs                         .... canonical
   Orbital update algorithm             .... Taylor
   Preconditioner                       .... Diag
   Full preconditioner red. dimension   ....   250
   COSX micro iterations for RIJONX calc.... off
 SOSCF                  CNVSOSCF        .... on
   Start iteration      SOSCFMaxIt      ....   150
   Startup grad/error   SOSCFStart      ....  0.003300
   Hessian update       SOSCFHessUp     .... L-BFGS
 Level Shifting         CNVShift        .... on
   Level shift para.    LevelShift      ....    0.2500
   Turn off err/grad.   ShiftErr        ....    0.0010
 Zerner damping         CNVZerner       .... off
 Static damping         CNVDamp         .... on
   Fraction old density DampFac         ....    0.7000
   Max. Damping (<1)    DampMax         ....    0.9800
   Min. Damping (>=0)   DampMin         ....    0.0000
   Turn off err/grad.   DampErr         ....    0.1000

SCF Procedure:
 Maximum # iterations   MaxIter         ....   125
 SCF integral mode      SCFMode         .... Direct
   Integral package                     .... SHARK and LIBINT hybrid scheme
 Reset frequency        DirectResetFreq ....    20
 Integral Threshold     Thresh          ....  1.000e-10 Eh
 Primitive CutOff       TCut            ....  1.000e-11 Eh

Convergence Tolerance:
 Convergence Check Mode ConvCheckMode   .... Total+1el-Energy
 Convergence forced     ConvForced      .... 0
 Energy Change          TolE            ....  1.000e-06 Eh
 1-El. energy change                    ....  1.000e-03 Eh
 Orbital Gradient       TolG            ....  3.330e-04
 Orbital Rotation angle TolX            ....  3.330e-04
 DIIS Error             TolErr          ....  1.000e-06

---------------------
INITIAL GUESS: MOREAD
---------------------
Guess MOs are being read from file: sp_gas.ges
Input Geometry matches current geometry (good)
Atom 0: N(Shells)= 9 and 6 - projection required
Input basis set needs projection
NBasis(read)= 168
NBasis(calc)= 265
Basis set overlap was calculated
Using GuessMode=FMatrix for the initial guess
C*T matrix was formed
Effective Fockian was calculated
Effective Fockian was diagonalized
Initial density was built
                      ------------------
                      INITIAL GUESS DONE (   0.0 sec)
                      ------------------
             **** ENERGY FILE WAS UPDATED (sp_gas.en.tmp) ****
Finished Guess after   0.3 sec
Maximum memory used throughout the entire GUESS-calculation: 20.6 MB

-------------------------------------------------------------------------------------------
                                      ORCA LEAN-SCF
                              memory conserving SCF solver
-------------------------------------------------------------------------------------------

----------------------------------------D-I-I-S--------------------------------------------
Iteration    Energy (Eh)           Delta-E    RMSDP     MaxDP     DIISErr   Damp  Time(sec)
-------------------------------------------------------------------------------------------
               ***  Starting incremental Fock matrix formation  ***
    1    -426.2872420862978515     0.00e+00  5.73e-03  2.74e-01  6.23e-01  0.700   4.4
    2    -426.3504602397732697    -6.32e-02  4.55e-03  1.48e-01  4.38e-01  0.700   3.8
    3    -426.3951752400676014    -4.47e-02  3.36e-03  1.08e-01  3.07e-01  0.700   3.7
    4    -426.4265755997480483    -3.14e-02  2.43e-03  7.69e-02  2.15e-01  0.700   3.6
                               ***Turning on AO-DIIS***
    5    -426.4486029543440964    -2.20e-02  1.77e-03  5.47e-02  1.50e-01  0.700   3.6
    6    -426.4640448533475592    -1.54e-02  1.26e-03  3.87e-02  1.05e-01  0.700   3.5
    7    -426.4748699894222455    -1.08e-02  8.91e-04  2.86e-02  7.37e-02  0.700   3.5
    8    -426.4824545604540162    -7.58e-03  2.10e-03  7.04e-02  5.16e-02  0.000   3.4
                              *** Initializing SOSCF ***
---------------------------------------S-O-S-C-F--------------------------------------
Iteration    Energy (Eh)           Delta-E    RMSDP     MaxDP     MaxGrad    Time(sec)
--------------------------------------------------------------------------------------
    9    -426.5001761188659657    -1.77e-02  1.22e-05  5.27e-04  3.39e-04     3.6
               *** Restarting incremental Fock matrix formation ***
   10    -426.5001761627726182    -4.39e-08  5.15e-05  4.42e-03  1.21e-04     4.5
   11    -426.5001745189975964     1.64e-06  2.92e-05  2.50e-03  3.04e-04     2.9
   12    -426.5001763823080410    -1.86e-06  4.87e-06  2.22e-04  3.67e-05     2.8
                  *** Gradient check signals convergence ***

               *****************************************************
               *                     SUCCESS                       *
               *           SCF CONVERGED AFTER  12 CYCLES          *
               *****************************************************

             **** ENERGY FILE WAS UPDATED (sp_gas.en.tmp) ****

----------------
TOTAL SCF ENERGY
----------------

Total Energy       :       -426.50017638230804 Eh          -11605.65982 eV

Components:
Nuclear Repulsion  :        550.37112981330279 Eh           14976.35983 eV
Electronic Energy  :       -976.87130619561083 Eh          -26582.01965 eV
One Electron Energy:      -1667.65879267575474 Eh          -45379.30279 eV
Two Electron Energy:        690.78748648014391 Eh           18797.28314 eV

Virial components:
Potential Energy   :       -851.20066379734499 Eh          -23162.34761 eV
Kinetic Energy     :        424.70048741503689 Eh           11556.68779 eV
Virial Ratio       :          2.00423754862686

DFT components:
N(Alpha)           :       38.000078074247 electrons
N(Beta)            :       38.000078074247 electrons
N(Total)           :       76.000156148494 electrons
E(X)               :      -60.144122970091 Eh       
E(C)               :       -2.421120751407 Eh       
E(XC)              :      -62.565243721498 Eh       

---------------
SCF CONVERGENCE
---------------

  Last Energy change         ...    1.8633e-06  Tolerance :   1.0000e-06
  Last MAX-Density change    ...    2.2235e-04  Tolerance :   1.0000e-05
  Last RMS-Density change    ...    4.8667e-06  Tolerance :   1.0000e-06
  Last DIIS Error            ...    3.3875e-04  Tolerance :   1.0000e-06
  Last Orbital Gradient      ...    3.6669e-05  Tolerance :   3.3300e-04
  Last Orbital Rotation      ...    1.9880e-04  Tolerance :   3.3300e-04


----------------
ORBITAL ENERGIES
----------------

  NO   OCC          E(Eh)            E(eV) 
   0   2.0000     -18.921012      -514.8669 
   1   2.0000     -10.104588      -274.9598 
   2   2.0000     -10.070092      -274.0211 
   3   2.0000     -10.058494      -273.7055 
   4   2.0000     -10.047361      -273.4026 
   5   2.0000     -10.043032      -273.2848 
   6   2.0000     -10.031876      -272.9812 
   7   2.0000     -10.030088      -272.9326 
   8   2.0000     -10.026330      -272.8303 
   9   2.0000     -10.022780      -272.7337 
  10   2.0000      -0.982997       -26.7487 
  11   2.0000      -0.833567       -22.6825 
  12   2.0000      -0.775548       -21.1037 
  13   2.0000      -0.712775       -19.3956 
  14   2.0000      -0.674420       -18.3519 
  15   2.0000      -0.665142       -18.0994 
  16   2.0000      -0.660306       -17.9678 
  17   2.0000      -0.549482       -14.9522 
  18   2.0000      -0.535353       -14.5677 
  19   2.0000      -0.480445       -13.0736 
  20   2.0000      -0.451454       -12.2847 
  21   2.0000      -0.451327       -12.2812 
  22   2.0000      -0.423673       -11.5287 
  23   2.0000      -0.417931       -11.3725 
  24   2.0000      -0.401803       -10.9336 
  25   2.0000      -0.394761       -10.7420 
  26   2.0000      -0.376769       -10.2524 
  27   2.0000      -0.371889       -10.1196 
  28   2.0000      -0.364063        -9.9066 
  29   2.0000      -0.358436        -9.7535 
  30   2.0000      -0.351820        -9.5735 
  31   2.0000      -0.338668        -9.2156 
  32   2.0000      -0.332659        -9.0521 
  33   2.0000      -0.306805        -8.3486 
  34   2.0000      -0.300618        -8.1802 
  35   2.0000      -0.294216        -8.0060 
  36   2.0000      -0.241588        -6.5739 
  37   2.0000      -0.201848        -5.4926 
  38   0.0000      -0.077368        -2.1053 
  39   0.0000       0.031451         0.8558 
  40   0.0000       0.063536         1.7289 
  41   0.0000       0.090882         2.4730 
  42   0.0000       0.102972         2.8020 
  43   0.0000       0.111552         3.0355 
  44   0.0000       0.116892         3.1808 
  45   0.0000       0.122158         3.3241 
  46   0.0000       0.123706         3.3662 
  47   0.0000       0.127559         3.4711 
  48   0.0000       0.137044         3.7292 
*Only the first 10 virtual orbitals were printed.

                    ********************************
                    * MULLIKEN POPULATION ANALYSIS *
                    ********************************

-----------------------
MULLIKEN ATOMIC CHARGES
-----------------------
   0 C :   -0.528887
   1 C :    0.196404
   2 C :   -0.287755
   3 C :    0.212060
   4 O :   -0.341469
   5 C :   -0.348320
   6 C :    0.107572
   7 C :   -0.362773
   8 C :   -0.497986
   9 C :   -0.483454
  10 H :    0.160404
  11 H :    0.169602
  12 H :    0.159624
  13 H :    0.169779
  14 H :    0.175371
  15 H :    0.183769
  16 H :    0.190730
  17 H :    0.168610
  18 H :    0.173229
  19 H :    0.160115
  20 H :    0.151695
  21 H :    0.153017
  22 H :    0.156458
  23 H :    0.162206
Sum of atomic charges:    0.0000000

--------------------------------
MULLIKEN REDUCED ORBITAL CHARGES
--------------------------------
  0 C s       :     3.377438  s :     3.377438
      pz      :     1.077667  p :     3.124015
      px      :     1.040800
      py      :     1.005548
      dz2     :     0.004656  d :     0.027434
      dxz     :     0.001862
      dyz     :     0.008044
      dx2y2   :     0.006022
      dxy     :     0.006851

  1 C s       :     3.124167  s :     3.124167
      pz      :     0.854878  p :     2.630958
      px      :     0.864786
      py      :     0.911294
      dz2     :     0.003922  d :     0.048472
      dxz     :     0.005007
      dyz     :     0.009293
      dx2y2   :     0.014753
      dxy     :     0.015497

  2 C s       :     3.183801  s :     3.183801
      pz      :     1.036635  p :     3.069385
      px      :     1.101423
      py      :     0.931327
      dz2     :     0.003308  d :     0.034568
      dxz     :     0.002279
      dyz     :     0.005265
      dx2y2   :     0.011130
      dxy     :     0.012587

  3 C s       :     3.205013  s :     3.205013
      pz      :     0.738174  p :     2.490109
      px      :     0.949369
      py      :     0.802566
      dz2     :     0.005902  d :     0.092818
      dxz     :     0.006752
      dyz     :     0.017630
      dx2y2   :     0.027449
      dxy     :     0.035086

  4 O s       :     3.834480  s :     3.834480
      pz      :     1.379132  p :     4.482060
      px      :     1.762846
      py      :     1.340082
      dz2     :     0.002873  d :     0.024928
      dxz     :     0.000881
      dyz     :     0.010757
      dx2y2   :     0.007070
      dxy     :     0.003348

  5 C s       :     3.207989  s :     3.207989
      pz      :     1.066462  p :     3.105456
      px      :     1.002363
      py      :     1.036631
      dz2     :     0.009658  d :     0.034876
      dxz     :     0.003632
      dyz     :     0.004038
      dx2y2   :     0.008452
      dxy     :     0.009095

  6 C s       :     2.977525  s :     2.977525
      pz      :     0.940324  p :     2.859782
      px      :     0.958127
      py      :     0.961332
      dz2     :     0.013752  d :     0.055121
      dxz     :     0.009608
      dyz     :     0.009263
      dx2y2   :     0.010390
      dxy     :     0.012107

  7 C s       :     3.275653  s :     3.275653
      pz      :     1.100397  p :     3.049694
      px      :     0.906469
      py      :     1.042828
      dz2     :     0.009252  d :     0.037426
      dxz     :     0.004850
      dyz     :     0.004799
      dx2y2   :     0.010513
      dxy     :     0.008012

  8 C s       :     3.338371  s :     3.338371
      pz      :     0.928359  p :     3.132738
      px      :     1.106269
      py      :     1.098110
      dz2     :     0.007362  d :     0.026877
      dxz     :     0.005691
      dyz     :     0.005214
      dx2y2   :     0.003761
      dxy     :     0.004849

  9 C s       :     3.345955  s :     3.345955
      pz      :     1.067104  p :     3.110414
      px      :     0.950342
      py      :     1.092967
      dz2     :     0.008409  d :     0.027085
      dxz     :     0.003978
      dyz     :     0.002157
      dx2y2   :     0.005098
      dxy     :     0.007443

 10 H s       :     0.821455  s :     0.821455
      pz      :     0.003599  p :     0.018141
      px      :     0.010418
      py      :     0.004124

 11 H s       :     0.812004  s :     0.812004
      pz      :     0.008621  p :     0.018395
      px      :     0.003860
      py      :     0.005913

 12 H s       :     0.821997  s :     0.821997
      pz      :     0.008191  p :     0.018378
      px      :     0.003530
      py      :     0.006657

 13 H s       :     0.810665  s :     0.810665
      pz      :     0.004524  p :     0.019556
      px      :     0.011503
      py      :     0.003529

 14 H s       :     0.806571  s :     0.806571
      pz      :     0.010906  p :     0.018059
      px      :     0.003664
      py      :     0.003488

 15 H s       :     0.798527  s :     0.798527
      pz      :     0.003913  p :     0.017703
      px      :     0.005942
      py      :     0.007849

 16 H s       :     0.791321  s :     0.791321
      pz      :     0.010728  p :     0.017949
      px      :     0.003597
      py      :     0.003623

 17 H s       :     0.813514  s :     0.813514
      pz      :     0.004876  p :     0.017876
      px      :     0.003703
      py      :     0.009297

 18 H s       :     0.808210  s :     0.808210
      pz      :     0.004781  p :     0.018561
      px      :     0.009790
      py      :     0.003990

 19 H s       :     0.821661  s :     0.821661
      pz      :     0.004186  p :     0.018224
      px      :     0.006704
      py      :     0.007334

 20 H s       :     0.830069  s :     0.830069
      pz      :     0.004644  p :     0.018236
      px      :     0.004475
      py      :     0.009117

 21 H s       :     0.828742  s :     0.828742
      pz      :     0.011015  p :     0.018241
      px      :     0.003514
      py      :     0.003713

 22 H s       :     0.825311  s :     0.825311
      pz      :     0.004432  p :     0.018231
      px      :     0.004399
      py      :     0.009399

 23 H s       :     0.819560  s :     0.819560
      pz      :     0.004170  p :     0.018234
      px      :     0.006963
      py      :     0.007101


------------------------
MULLIKEN OVERLAP CHARGES
------------------------
B(  0-C ,  1-C ) :   0.2570 B(  0-C ,  7-C ) :  -0.0763 B(  0-C , 10-H ) :   0.8576 
B(  0-C , 11-H ) :   0.8737 B(  0-C , 12-H ) :   0.7983 B(  1-C ,  2-C ) :  -0.6679 
B(  1-C ,  3-C ) :   0.3058 B(  1-C ,  4-O ) :   0.0628 B(  1-C ,  5-C ) :   0.3641 
B(  1-C ,  7-C ) :  -0.4252 B(  1-C ,  8-C ) :  -0.0664 B(  1-C ,  9-C ) :   0.0988 
B(  1-C , 10-H ) :  -0.1359 B(  1-C , 11-H ) :  -0.1257 B(  1-C , 12-H ) :  -0.0557 
B(  1-C , 13-H ) :  -0.1394 B(  1-C , 16-H ) :  -0.0596 B(  1-C , 17-H ) :  -0.0960 
B(  2-C ,  3-C ) :  -0.1780 B(  2-C ,  4-O ) :  -0.2649 B(  2-C ,  5-C ) :  -0.8270 
B(  2-C ,  6-C ) :   0.2074 B(  2-C ,  7-C ) :   0.1697 B(  2-C , 13-H ) :   0.8422 
B(  3-C ,  4-O ) :   1.1863 B(  3-C ,  5-C ) :   0.1093 B(  3-C ,  6-C ) :   0.0885 
B(  3-C ,  7-C ) :  -0.0596 B(  4-O ,  5-C ) :  -0.2107 B(  5-C ,  6-C ) :  -0.4271 
B(  5-C ,  7-C ) :  -0.3521 B(  5-C ,  8-C ) :  -0.3060 B(  5-C ,  9-C ) :  -0.3680 
B(  5-C , 14-H ) :   0.6720 B(  5-C , 15-H ) :   0.7933 B(  5-C , 16-H ) :  -0.0511 
B(  6-C ,  8-C ) :   0.4143 B(  6-C ,  9-C ) :   0.7729 B(  6-C , 14-H ) :  -0.0789 
B(  6-C , 15-H ) :  -0.0691 B(  6-C , 17-H ) :  -0.1170 B(  6-C , 19-H ) :  -0.0884 
B(  6-C , 20-H ) :  -0.0904 B(  6-C , 21-H ) :  -0.0985 B(  6-C , 22-H ) :  -0.0868 
B(  6-C , 23-H ) :  -0.0874 B(  7-C ,  8-C ) :  -0.1763 B(  7-C ,  9-C ) :  -0.4519 
B(  7-C , 16-H ) :   0.7898 B(  7-C , 17-H ) :   0.8568 B(  8-C ,  9-C ) :  -0.2542 
B(  8-C , 18-H ) :   0.8047 B(  8-C , 19-H ) :   0.8052 B(  8-C , 20-H ) :   0.8127 
B(  9-C , 21-H ) :   0.8419 B(  9-C , 22-H ) :   0.8254 B(  9-C , 23-H ) :   0.8295 
B( 11-H , 12-H ) :  -0.0524 


                     *******************************
                     * LOEWDIN POPULATION ANALYSIS *
                     *******************************

----------------------
LOEWDIN ATOMIC CHARGES
----------------------
   0 C :   -0.384767
   1 C :   -0.061405
   2 C :   -0.174406
   3 C :    0.220169
   4 O :   -0.471855
   5 C :   -0.251297
   6 C :   -0.190241
   7 C :   -0.265546
   8 C :   -0.390920
   9 C :   -0.400178
  10 H :    0.163668
  11 H :    0.169936
  12 H :    0.167798
  13 H :    0.183204
  14 H :    0.184872
  15 H :    0.184971
  16 H :    0.182629
  17 H :    0.172522
  18 H :    0.167300
  19 H :    0.161823
  20 H :    0.157055
  21 H :    0.156418
  22 H :    0.157695
  23 H :    0.160555

-------------------------------
LOEWDIN REDUCED ORBITAL CHARGES
-------------------------------
  0 C s       :     2.955176  s :     2.955176
      pz      :     1.144878  p :     3.365321
      px      :     1.119030
      py      :     1.101413
      dz2     :     0.011515  d :     0.064271
      dxz     :     0.003496
      dyz     :     0.019612
      dx2y2   :     0.013746
      dxy     :     0.015901

  1 C s       :     2.887845  s :     2.887845
      pz      :     0.882356  p :     3.074327
      px      :     1.070691
      py      :     1.121280
      dz2     :     0.007190  d :     0.099234
      dxz     :     0.008742
      dyz     :     0.016612
      dx2y2   :     0.032445
      dxy     :     0.034245

  2 C s       :     2.905189  s :     2.905189
      pz      :     1.033839  p :     3.191597
      px      :     1.096749
      py      :     1.061009
      dz2     :     0.006363  d :     0.077620
      dxz     :     0.004136
      dyz     :     0.009810
      dx2y2   :     0.028044
      dxy     :     0.029268

  3 C s       :     2.808916  s :     2.808916
      pz      :     0.754376  p :     2.771133
      px      :     1.010899
      py      :     1.005859
      dz2     :     0.013806  d :     0.199782
      dxz     :     0.012160
      dyz     :     0.032380
      dx2y2   :     0.063246
      dxy     :     0.078190

  4 O s       :     3.568796  s :     3.568796
      pz      :     1.380854  p :     4.674897
      px      :     1.764205
      py      :     1.529839
      dz2     :     0.028221  d :     0.228162
      dxz     :     0.008897
      dyz     :     0.042491
      dx2y2   :     0.072381
      dxy     :     0.076172

  5 C s       :     2.920768  s :     2.920768
      pz      :     1.115761  p :     3.255165
      px      :     1.062858
      py      :     1.076546
      dz2     :     0.021886  d :     0.075364
      dxz     :     0.007215
      dyz     :     0.008468
      dx2y2   :     0.017753
      dxy     :     0.020042

  6 C s       :     2.874384  s :     2.874384
      pz      :     1.084967  p :     3.205954
      px      :     1.059374
      py      :     1.061613
      dz2     :     0.028704  d :     0.109903
      dxz     :     0.018047
      dyz     :     0.017367
      dx2y2   :     0.020944
      dxy     :     0.024841

  7 C s       :     2.911006  s :     2.911006
      pz      :     1.129419  p :     3.273295
      px      :     1.046252
      py      :     1.097623
      dz2     :     0.021065  d :     0.081245
      dxz     :     0.009413
      dyz     :     0.010622
      dx2y2   :     0.022492
      dxy     :     0.017654

  8 C s       :     2.959047  s :     2.959047
      pz      :     1.061847  p :     3.368463
      px      :     1.152346
      py      :     1.154271
      dz2     :     0.017783  d :     0.063410
      dxz     :     0.012528
      dyz     :     0.011384
      dx2y2   :     0.009479
      dxy     :     0.012235

  9 C s       :     2.965826  s :     2.965826
      pz      :     1.140863  p :     3.370279
      px      :     1.079368
      py      :     1.150048
      dz2     :     0.020482  d :     0.064074
      dxz     :     0.008864
      dyz     :     0.005273
      dx2y2   :     0.012009
      dxy     :     0.017445

 10 H s       :     0.792884  s :     0.792884
      pz      :     0.007852  p :     0.043448
      px      :     0.026004
      py      :     0.009592

 11 H s       :     0.786203  s :     0.786203
      pz      :     0.021334  p :     0.043861
      px      :     0.008773
      py      :     0.013753

 12 H s       :     0.788432  s :     0.788432
      pz      :     0.020353  p :     0.043771
      px      :     0.007774
      py      :     0.015643

 13 H s       :     0.771835  s :     0.771835
      pz      :     0.010196  p :     0.044960
      px      :     0.027164
      py      :     0.007601

 14 H s       :     0.770329  s :     0.770329
      pz      :     0.027498  p :     0.044798
      px      :     0.008918
      py      :     0.008383

 15 H s       :     0.771454  s :     0.771454
      pz      :     0.009236  p :     0.043576
      px      :     0.014444
      py      :     0.019896

 16 H s       :     0.773057  s :     0.773057
      pz      :     0.027198  p :     0.044313
      px      :     0.008455
      py      :     0.008660

 17 H s       :     0.783494  s :     0.783494
      pz      :     0.011750  p :     0.043984
      px      :     0.008781
      py      :     0.023453

 18 H s       :     0.787343  s :     0.787343
      pz      :     0.011654  p :     0.045357
      px      :     0.024715
      py      :     0.008988

 19 H s       :     0.794301  s :     0.794301
      pz      :     0.009758  p :     0.043876
      px      :     0.016241
      py      :     0.017877

 20 H s       :     0.799112  s :     0.799112
      pz      :     0.010938  p :     0.043833
      px      :     0.010252
      py      :     0.022643

 21 H s       :     0.799897  s :     0.799897
      pz      :     0.027554  p :     0.043684
      px      :     0.008034
      py      :     0.008096

 22 H s       :     0.798437  s :     0.798437
      pz      :     0.010196  p :     0.043868
      px      :     0.010307
      py      :     0.023365

 23 H s       :     0.795622  s :     0.795622
      pz      :     0.009431  p :     0.043823
      px      :     0.017001
      py      :     0.017391


---------------------------------
LOEWDIN BOND ORDERS (THRESH 0.050000)
---------------------------------
B(  0-C ,  1-C ) :   1.1335 B(  0-C ,  2-C ) :   0.1018 B(  0-C ,  7-C ) :   0.0819 
B(  0-C , 10-H ) :   0.9154 B(  0-C , 11-H ) :   0.9016 B(  0-C , 12-H ) :   0.9034 
B(  1-C ,  2-C ) :   1.7623 B(  1-C ,  3-C ) :   0.1132 B(  1-C ,  4-O ) :   0.1059 
B(  1-C ,  6-C ) :   0.0639 B(  1-C ,  7-C ) :   1.0760 B(  1-C , 13-H ) :   0.0578 
B(  2-C ,  3-C ) :   1.0765 B(  2-C ,  4-O ) :   0.2224 B(  2-C ,  5-C ) :   0.0786 
B(  2-C ,  7-C ) :   0.0830 B(  2-C , 13-H ) :   0.8527 B(  3-C ,  4-O ) :   2.2843 
B(  3-C ,  5-C ) :   0.9797 B(  3-C ,  6-C ) :   0.0642 B(  4-O ,  5-C ) :   0.2126 
B(  5-C ,  6-C ) :   1.0279 B(  5-C ,  7-C ) :   0.0619 B(  5-C ,  8-C ) :   0.0651 
B(  5-C ,  9-C ) :   0.0752 B(  5-C , 14-H ) :   0.8486 B(  5-C , 15-H ) :   0.8631 
B(  6-C ,  7-C ) :   1.0255 B(  6-C ,  8-C ) :   1.0738 B(  6-C ,  9-C ) :   1.0811 
B(  7-C ,  8-C ) :   0.0652 B(  7-C ,  9-C ) :   0.0757 B(  7-C , 16-H ) :   0.8519 
B(  7-C , 17-H ) :   0.8653 B(  8-C ,  9-C ) :   0.0723 B(  8-C , 18-H ) :   0.9027 
B(  8-C , 19-H ) :   0.9149 B(  8-C , 20-H ) :   0.9172 B(  9-C , 21-H ) :   0.9176 
B(  9-C , 22-H ) :   0.9150 B(  9-C , 23-H ) :   0.9146 

------------------------------------------
LOEWDIN REDUCED ORBITAL POPULATIONS PER MO
-------------------------------------------
THRESHOLD FOR PRINTING IS 0.1%%
                      0         1         2         3         4         5   
                 -18.92101 -10.10459 -10.07009 -10.05849 -10.04736 -10.04303
                   2.00000   2.00000   2.00000   2.00000   2.00000   2.00000
                  --------  --------  --------  --------  --------  --------
 0 C  s               0.0       0.0       0.0       0.0       0.0      99.7
 1 C  s               0.0       0.0      99.6       0.0       0.0       0.0
 2 C  py              0.0       0.1       0.1       0.0       0.0       0.0
 3 C  s               0.0      99.2       0.0       0.0       0.0       0.0
 4 O  s              99.9       0.0       0.0       0.0       0.0       0.0
 4 O  py              0.0       0.2       0.0       0.0       0.0       0.0
 4 O  dx2y2           0.0       0.2       0.0       0.0       0.0       0.0
 6 C  s               0.0       0.0       0.0      99.6       0.0       0.0
 7 C  s               0.0       0.0       0.0       0.0      99.7       0.0

                      6         7         8         9        10        11   
                 -10.03188 -10.03009 -10.02633 -10.02278  -0.98300  -0.83357
                   2.00000   2.00000   2.00000   2.00000   2.00000   2.00000
                  --------  --------  --------  --------  --------  --------
 0 C  s               0.0       0.0       0.0       0.0       0.0       3.8
 0 C  px              0.0       0.0       0.0       0.0       0.0       0.8
 0 C  py              0.0       0.0       0.0       0.0       0.0       0.9
 1 C  s               0.0       0.0       0.0       0.0       0.2      14.3
 1 C  px              0.0       0.0       0.0       0.0       0.0       0.8
 1 C  py              0.0       0.1       0.0       0.0       0.2       0.1
 1 C  dz2             0.0       0.0       0.0       0.0       0.0       0.1
 2 C  s               0.0      99.6       0.0       0.0       1.5       6.9
 2 C  px              0.0       0.0       0.0       0.0       0.5       1.1
 2 C  py              0.0       0.0       0.0       0.0       1.7       1.8
 3 C  s               0.0       0.0       0.0       0.0      17.9       1.5
 3 C  pz              0.0       0.0       0.0       0.0       0.2       0.1
 3 C  px              0.1       0.0       0.0       0.0       1.1       0.4
 3 C  py              0.0       0.1       0.0       0.0      10.8       4.3
 3 C  dz2             0.0       0.0       0.0       0.0       0.5       0.0
 3 C  dx2y2           0.0       0.0       0.0       0.0       0.7       0.0
 3 C  dxy             0.0       0.0       0.0       0.0       0.3       0.0
 4 O  s               0.0       0.0       0.0       0.0      53.1       1.4
 4 O  pz              0.0       0.0       0.0       0.0       0.1       0.0
 4 O  px              0.0       0.0       0.0       0.0       0.5       0.0
 4 O  py              0.0       0.0       0.0       0.0       5.5       0.1
 4 O  dz2             0.0       0.0       0.0       0.0       0.2       0.1
 4 O  dx2y2           0.0       0.0       0.0       0.0       0.3       0.0
 4 O  dxy             0.0       0.0       0.0       0.0       0.1       0.0
 5 C  s              99.7       0.0       0.0       0.0       1.3       6.1
 5 C  pz              0.0       0.0       0.0       0.0       0.2       0.3
 5 C  px              0.0       0.0       0.0       0.0       1.5       0.0
 5 C  py              0.0       0.0       0.0       0.0       0.3       2.3
 6 C  s               0.0       0.0       0.0       0.0       0.1      14.9
 6 C  px              0.0       0.0       0.1       0.0       0.1       0.8
 6 C  py              0.1       0.0       0.0       0.0       0.1       0.1
 7 C  s               0.0       0.0       0.0       0.0       0.0      14.0
 7 C  pz              0.0       0.0       0.0       0.0       0.0       0.3
 7 C  px              0.0       0.0       0.0       0.0       0.0       0.1
 7 C  py              0.0       0.0       0.0       0.0       0.1       1.6
 8 C  s               0.0       0.0       0.0      99.7       0.0       3.8
 8 C  pz              0.0       0.0       0.0       0.0       0.0       2.0
 9 C  s               0.0       0.0      99.7       0.0       0.0       3.5
 9 C  pz              0.0       0.0       0.0       0.0       0.0       0.2
 9 C  px              0.0       0.0       0.0       0.0       0.0       1.7
10 H  s               0.0       0.0       0.0       0.0       0.0       0.4
11 H  s               0.0       0.0       0.0       0.0       0.0       0.4
12 H  s               0.0       0.0       0.0       0.0       0.0       0.4
13 H  s               0.0       0.0       0.0       0.0       0.1       0.6
14 H  s               0.0       0.0       0.0       0.0       0.1       0.6
15 H  s               0.0       0.0       0.0       0.0       0.1       0.5
16 H  s               0.0       0.0       0.0       0.0       0.0       1.5
16 H  pz              0.0       0.0       0.0       0.0       0.0       0.1
17 H  s               0.0       0.0       0.0       0.0       0.0       1.5
17 H  py              0.0       0.0       0.0       0.0       0.0       0.1
18 H  s               0.0       0.0       0.0       0.0       0.0       0.4
19 H  s               0.0       0.0       0.0       0.0       0.0       0.4
20 H  s               0.0       0.0       0.0       0.0       0.0       0.4
21 H  s               0.0       0.0       0.0       0.0       0.0       0.4
22 H  s               0.0       0.0       0.0       0.0       0.0       0.4
23 H  s               0.0       0.0       0.0       0.0       0.0       0.4

                     12        13        14        15        16        17   
                  -0.77555  -0.71277  -0.67442  -0.66514  -0.66031  -0.54948
                   2.00000   2.00000   2.00000   2.00000   2.00000   2.00000
                  --------  --------  --------  --------  --------  --------
 0 C  s              10.8       7.0      18.6       1.3       1.3       3.6
 0 C  px              0.6       0.2       0.7       0.0       0.0       2.0
 0 C  py              1.1       0.1       0.2       0.3       0.4       6.4
 0 C  dxy             0.1       0.0       0.0       0.0       0.0       0.2
 1 C  s              15.0       0.3       0.1       0.1       0.2      10.6
 1 C  pz              0.0       0.0       0.6       0.3       0.0       0.0
 1 C  px              2.0       0.1      12.0       0.6       0.8       0.2
 1 C  py              0.1      10.7       1.4       3.8       4.0       1.0
 1 C  dz2             0.1       0.0       0.0       0.0       0.0       0.0
 1 C  dx2y2           0.0       0.1       0.1       0.1       0.1       0.0
 1 C  dxy             0.0       0.0       0.2       0.0       0.0       0.1
 2 C  s               7.6       9.4       0.1       5.2       6.4       0.5
 2 C  pz              0.0       0.0       0.0       0.1       0.0       0.0
 2 C  px              0.1       1.1       0.3       0.1       0.3       0.3
 2 C  py              2.8       1.4       0.0       0.0       0.0      20.4
 2 C  dx2y2           0.1       0.0       0.0       0.0       0.0       0.1
 2 C  dxy             0.0       0.0       0.0       0.0       0.0       0.4
 3 C  s               0.0       6.9       0.2       0.0       0.0       5.9
 3 C  pz              0.1       0.3       0.1       0.8       0.1       0.1
 3 C  px              2.4       0.8       1.2       4.6       4.2       2.8
 3 C  py              0.5       9.2       0.0       0.4       0.5       5.1
 3 C  dx2y2           0.0       0.2       0.0       0.1       0.0       0.0
 3 C  dxy             0.0       0.1       0.0       0.1       0.1       0.1
 4 O  s               0.0       4.3       0.1       0.0       0.0       3.1
 4 O  px              0.0       0.1       0.1       0.3       0.2       0.2
 4 O  py              0.0       1.2       0.0       0.0       0.0       4.0
 4 O  dz2             0.0       0.3       0.0       0.0       0.0       0.2
 4 O  dx2y2           0.1       0.4       0.0       0.1       0.1       1.0
 4 O  dxy             0.1       0.2       0.1       0.3       0.2       0.0
 5 C  s               4.4       9.9       3.9       8.7       3.8       1.6
 5 C  pz              0.1       0.0       0.0       1.1       0.1       0.2
 5 C  px              1.0       1.8       0.3       0.0       0.1       3.4
 5 C  py              0.9       0.3       0.2       0.1       0.1       0.5
 6 C  s              12.1       0.8       0.1       0.0       0.0       0.2
 6 C  pz              0.0       0.2       0.4      12.7       3.1       0.0
 6 C  px              1.3       1.0       3.7       0.3       7.7       0.3
 6 C  py              0.3       5.3       5.0       0.4       1.3       3.0
 6 C  dz2             0.0       0.0       0.0       0.3       0.1       0.0
 6 C  dx2y2           0.0       0.0       0.0       0.0       0.1       0.0
 6 C  dxy             0.0       0.0       0.2       0.0       0.0       0.0
 7 C  s               0.1       5.0      16.7       2.1       1.0       1.1
 7 C  pz              0.0       0.0       0.1       1.0       0.1       0.1
 7 C  px              7.0       0.1       0.0       0.0       0.2       4.9
 7 C  py              0.5       0.9       0.1       0.1       0.0       0.8
 8 C  s               5.4       1.1       1.5      24.8       5.7       0.1
 8 C  pz              1.4       0.1       0.0       0.5       0.2       0.1
 8 C  px              0.1       0.1       0.2       0.0       0.4       0.1
 8 C  py              0.0       0.3       0.2       0.0       0.1       0.3
 9 C  s               6.9       3.1       2.6       0.4      26.0       0.1
 9 C  pz              0.3       0.1       0.0       0.8       0.2       0.0
 9 C  px              1.1       0.1       0.1       0.0       0.6       0.3
 9 C  py              0.2       0.2       0.3       0.0       0.1       0.6
10 H  s               1.6       1.1       4.8       0.2       0.2       1.8
10 H  px              0.1       0.1       0.4       0.0       0.0       0.1
11 H  s               1.5       1.5       4.4       0.4       0.4       2.7
11 H  pz              0.1       0.1       0.2       0.0       0.0       0.1
11 H  py              0.0       0.0       0.1       0.0       0.0       0.0
12 H  s               1.5       1.5       4.2       0.4       0.4       2.8
12 H  pz              0.1       0.1       0.2       0.0       0.0       0.1
12 H  py              0.1       0.1       0.1       0.0       0.0       0.0
13 H  s               1.0       1.3       0.0       1.3       1.6       0.5
13 H  px              0.1       0.1       0.0       0.1       0.1       0.0
14 H  s               0.6       1.9       0.8       2.7       0.7       0.8
14 H  pz              0.1       0.2       0.1       0.2       0.1       0.1
15 H  s               0.6       1.5       1.1       1.9       0.9       1.9
16 H  s               0.0       1.0       4.0       0.9       0.1       0.7
16 H  pz              0.0       0.1       0.4       0.1       0.0       0.0
17 H  s               0.0       1.4       3.6       0.4       0.3       1.3
17 H  py              0.0       0.1       0.3       0.0       0.0       0.1
18 H  s               0.6       0.1       0.3       5.7       1.6       0.0
18 H  px              0.0       0.0       0.0       0.4       0.1       0.0
19 H  s               0.8       0.2       0.5       5.6       1.2       0.2
19 H  px              0.0       0.0       0.0       0.2       0.1       0.0
19 H  py              0.0       0.0       0.0       0.2       0.0       0.0
20 H  s               0.7       0.3       0.3       5.9       1.1       0.0
20 H  py              0.0       0.0       0.0       0.4       0.1       0.0
21 H  s               0.9       0.5       0.5       0.3       6.4       0.0
21 H  pz              0.1       0.0       0.0       0.0       0.5       0.0
22 H  s               0.9       0.7       0.5       0.0       6.3       0.0
22 H  py              0.1       0.0       0.0       0.0       0.4       0.0
23 H  s               0.9       0.5       0.8       0.1       6.0       0.2
23 H  px              0.0       0.0       0.0       0.0       0.2       0.0
23 H  py              0.0       0.0       0.0       0.0       0.3       0.0

                     18        19        20        21        22        23   
                  -0.53535  -0.48045  -0.45145  -0.45133  -0.42367  -0.41793
                   2.00000   2.00000   2.00000   2.00000   2.00000   2.00000
                  --------  --------  --------  --------  --------  --------
 0 C  s               0.2       0.1       0.1       0.3       0.0       0.0
 0 C  pz              0.1       0.1       2.7       0.0      14.1       0.0
 0 C  px              1.7       0.5       0.0       8.9       0.6       7.6
 0 C  py              0.1       0.5       2.4       0.0       1.8       0.3
 1 C  s               0.3       1.1       0.0       0.2       0.3       0.6
 1 C  pz              0.4       0.2       4.5       0.2       7.9       0.0
 1 C  px              2.7       3.2       2.4       0.7       2.1       0.3
 1 C  py              2.2       0.0       0.1       7.4       0.0       1.9
 1 C  dxy             0.0       0.1       0.0       0.0       0.0       0.0
 2 C  s               0.9       3.0       0.0       0.2       0.2       0.0
 2 C  pz              0.2       0.1       0.6       0.8       2.8       1.2
 2 C  px              2.7      15.9       1.3       1.3       0.1       0.4
 2 C  py              0.6       0.4       1.8       5.2       0.5       1.1
 3 C  s               3.0       1.2       0.3       0.1       1.1       0.0
 3 C  pz              0.5       0.4       0.1       2.2       1.0       6.0
 3 C  px              2.3       1.1       5.2       2.2       0.7       4.1
 3 C  py              0.3       0.7       1.0       0.0       0.3       0.2
 4 O  s               1.7       0.0       0.8       0.7       1.3       0.0
 4 O  pz              0.2       0.0       0.2       0.5       0.8       2.2
 4 O  px              1.0       0.3       3.5       0.3       1.7       2.7
 4 O  py              1.2       0.1       0.4       2.0       2.6       0.0
 4 O  dyz             0.1       0.0       0.0       0.1       0.1       0.3
 4 O  dxy             0.4       0.2       0.4       0.1       0.2       0.2
 5 C  s               0.2       2.0       0.2       0.1       0.4       0.1
 5 C  pz              0.2       5.4       0.4       4.9       0.8      19.0
 5 C  px              3.7       4.1       1.7       6.0       1.3       0.1
 5 C  py              6.6       2.3       7.0       0.5       0.3       0.8
 5 C  dx2y2           0.3       0.0       0.0       0.0       0.0       0.0
 6 C  s              12.7       1.2       0.1       0.3       0.6       0.2
 6 C  pz              0.6       1.5       3.0       2.3       0.5       0.2
 6 C  px              0.5       0.9       0.0       2.8       4.7       1.6
 6 C  py              0.1       0.1       7.4       4.7       0.3       1.4
 6 C  dyz             0.0       0.0       0.0       0.0       0.0       0.2
 7 C  s               0.5       1.7       0.0       0.0       0.0       0.9
 7 C  pz              0.2       4.7      10.9       2.1       6.8       3.5
 7 C  px              5.0       2.4       4.8       3.4       0.0       0.7
 7 C  py              4.7       6.5       2.9       5.8       0.0       0.5
 7 C  dz2             0.0       0.1       0.0       0.0       0.0       0.1
 7 C  dxy             0.2       0.0       0.0       0.0       0.0       0.0
 8 C  s               2.6       0.9       0.5       0.5       0.0       0.0
 8 C  pz              6.4       3.3       2.5       4.2       1.9       0.0
 8 C  px              0.1       1.0       0.1       0.6       9.1       2.9
 8 C  py              0.0       0.0       4.9       2.1       0.0       8.5
 8 C  dz2             0.2       0.1       0.0       0.1       0.0       0.0
 9 C  s               3.8       0.3       0.0       0.0       0.2       0.1
 9 C  pz              0.5       0.3       2.4       2.7       7.7       1.6
 9 C  px              7.7       0.6       0.0       0.1       1.6       1.9
 9 C  py              0.6       0.0       4.6       4.0       0.0       0.0
 9 C  dx2y2           0.1       0.0       0.0       0.0       0.0       0.0
10 H  s               0.8       0.2       0.1       3.6       0.2       3.6
10 H  px              0.0       0.0       0.0       0.1       0.0       0.1
11 H  s               0.0       0.3       0.0       0.0       6.6       0.3
12 H  s               0.0       0.0       2.2       0.0       1.7       0.0
12 H  py              0.0       0.0       0.0       0.0       0.1       0.0
13 H  s               1.5       9.8       0.3       1.6       0.6       0.3
13 H  px              0.1       0.4       0.0       0.1       0.0       0.0
14 H  s               0.3       4.5       0.1       1.4       1.0       8.1
14 H  pz              0.0       0.2       0.0       0.0       0.0       0.2
15 H  s               0.3       3.0       0.8       2.5       0.1       1.3
15 H  py              0.0       0.1       0.0       0.1       0.0       0.0
16 H  s               0.6       5.1       2.7       0.6       2.0       3.7
16 H  pz              0.0       0.2       0.1       0.0       0.1       0.1
17 H  s               1.1       3.0       4.4       1.9       0.8       0.2
17 H  pz              0.0       0.1       0.0       0.0       0.0       0.1
17 H  py              0.0       0.1       0.2       0.0       0.0       0.0
18 H  s               1.6       0.1       0.7       1.2       4.3       1.6
19 H  s               1.9       1.2       2.6       0.0       0.7       0.3
20 H  s               2.1       1.4       0.1       2.0       0.0       3.8
20 H  py              0.1       0.1       0.0       0.1       0.0       0.1
21 H  s               2.0       0.0       0.9       1.3       3.6       0.8
21 H  pz              0.1       0.0       0.0       0.0       0.1       0.0
22 H  s               3.0       0.2       1.9       0.6       0.0       0.0
22 H  py              0.1       0.0       0.0       0.0       0.0       0.0
23 H  s               2.6       0.3       0.5       1.1       0.1       0.4
23 H  py              0.1       0.0       0.0       0.0       0.0       0.0

                     24        25        26        27        28        29   
                  -0.40180  -0.39476  -0.37677  -0.37189  -0.36406  -0.35844
                   2.00000   2.00000   2.00000   2.00000   2.00000   2.00000
                  --------  --------  --------  --------  --------  --------
 0 C  s               0.2       0.0       0.0       0.1       0.0       0.1
 0 C  pz              0.1      32.3       0.0       0.6       2.5       0.2
 0 C  px              4.5       0.3      15.0       1.0       0.4       3.1
 0 C  py             10.9       0.2       7.2       8.9       2.5       8.1
 0 C  dz2             0.1       0.0       0.1       0.1       0.0       0.1
 0 C  dyz             0.0       0.3       0.0       0.0       0.0       0.0
 0 C  dx2y2           0.0       0.0       0.2       0.0       0.0       0.1
 0 C  dxy             0.2       0.0       0.0       0.0       0.0       0.0
 1 C  s               0.6       0.0       0.0       0.1       0.0       0.3
 1 C  pz              0.3       1.8       0.0       0.0       0.4       0.0
 1 C  px              3.7       0.0       0.8       2.9       2.1       0.5
 1 C  py              7.9       1.0       0.2       6.4       0.2       2.0
 1 C  dxz             0.0       0.1       0.0       0.0       0.1       0.0
 1 C  dx2y2           0.0       0.0       0.4       0.0       0.1       0.1
 1 C  dxy             0.1       0.0       0.0       0.1       0.0       0.2
 2 C  s               1.0       0.1       0.5       0.2       0.1       0.4
 2 C  pz              0.3       0.0       0.2       0.1       0.1       0.4
 2 C  px              1.4       2.5       0.2       1.2       9.6       3.3
 2 C  py              0.4       0.6       0.5       1.8       0.1       2.8
 2 C  dxy             0.1       0.0       0.0       0.2       0.2       0.1
 3 C  s               1.5       0.3       0.1       0.3       0.4       0.0
 3 C  pz              0.1       0.1       1.5       2.3       0.5       6.5
 3 C  px              0.0       0.0       1.6       1.3       0.0       3.6
 3 C  py              2.7       0.0       0.7       4.4       4.3       1.3
 4 O  s               5.2       0.3       0.7       3.6       1.2       0.0
 4 O  pz              0.2       0.1       2.0       0.2       1.4       8.0
 4 O  px              1.4       0.3       0.4       2.3       0.7       4.0
 4 O  py             17.5       1.1       3.6      15.4       3.8       0.2
 4 O  dyz             0.0       0.0       0.1       0.1       0.0       0.3
 4 O  dx2y2           0.1       0.0       0.0       0.1       0.1       0.1
 4 O  dxy             0.1       0.0       0.1       0.0       0.1       0.1
 5 C  s               0.3       0.3       0.0       0.1       0.0       0.5
 5 C  pz              0.0       0.0       2.6       0.0       0.2       0.1
 5 C  px              0.5       0.0       0.0       8.8       0.0       5.8
 5 C  py              1.7       0.0       0.4       5.2       0.0       0.3
 5 C  dxy             0.1       0.0       0.0       0.0       0.0       0.2
 6 C  s               0.5       0.0       0.0       0.0       0.0       0.1
 6 C  pz              2.3       0.8       0.8       0.4       0.7       0.1
 6 C  px              0.1       3.0       1.1       0.6       2.9       0.0
 6 C  py              0.0       0.1       0.2       1.1       0.0       0.0
 6 C  dxz             0.0       0.0       0.0       0.0       0.1       0.0
 6 C  dxy             0.0       0.0       0.1       0.1       0.0       0.0
 7 C  s               0.4       0.1       0.7       0.0       0.1       0.0
 7 C  pz              0.3       3.3       3.0       0.5       3.3       0.3
 7 C  px              0.2       0.0       0.8       0.1       2.1       1.5
 7 C  py              0.6       0.1       0.1       1.3      11.2       0.9
 7 C  dyz             0.0       0.0       0.0       0.0       0.1       0.0
 7 C  dxy             0.2       0.0       0.0       0.0       0.0       0.0
 8 C  s               0.1       0.0       0.0       0.0       0.0       0.0
 8 C  pz              1.0       0.3       0.3       0.5       0.5       0.3
 8 C  px              2.3      10.0       1.0       0.0       0.8       0.2
 8 C  py              0.2       1.5       0.5       5.2       0.1       1.6
 9 C  pz              8.1       1.2       0.5       1.6       6.2       1.1
 9 C  px              3.8       0.9       7.2       1.6       5.6       0.1
 9 C  py              0.0       2.3      12.4       2.0       4.5      12.9
 9 C  dxy             0.0       0.0       0.1       0.0       0.0       0.1
10 H  s               0.6       0.6      11.0       0.0       0.6       4.1
10 H  pz              0.0       0.2       0.0       0.0       0.0       0.0
[...]
 5 C  dxz             1.1       0.4       0.0       0.0       0.0       0.0
 5 C  dyz             1.1       0.2       0.0       0.0       0.0       0.0
 5 C  dx2y2           1.6       1.0       0.0       0.0       0.0       0.0
 5 C  dxy             7.3       0.3       0.1       0.0       0.0       0.0
 6 C  s               0.1       0.0       0.0       0.0       5.2      12.2
 6 C  pz              0.3       0.0       0.1       0.0       0.0       0.0
 6 C  px              0.4       0.2       0.1       0.0       0.0       0.0
 6 C  py              0.5       0.0       0.0       0.0       0.0       0.0
 6 C  dz2             0.0       0.2       0.0       0.0       0.0       0.0
 6 C  dxz             0.6       0.0       0.0       0.0       0.0       0.0
 6 C  dxy             1.0       0.0       0.0       0.0       0.0       0.0
 7 C  s               0.1       0.4       0.0       1.7       5.1       9.2
 7 C  pz              0.1       0.7       0.0       0.0       0.0       0.0
 7 C  px              0.2       1.8       0.0       0.0       0.0       0.0
 7 C  py              0.6       1.2       0.0       0.0       0.0       0.0
 7 C  dz2             0.3       0.4       0.0       0.0       0.0       0.0
 7 C  dxz             0.2       0.5       0.0       0.0       0.0       0.0
 7 C  dyz             0.0       0.6       0.0       0.0       0.0       0.0
 7 C  dx2y2           0.2       4.1       0.0       0.0       0.0       0.0
 8 C  s               0.1       0.1       0.1       0.1      21.8      20.9
 8 C  px              0.1       0.3       0.0       0.0       0.0       0.0
 8 C  py              0.1       0.0       0.0       0.0       0.0       0.0
 8 C  dxz             0.0       0.2       0.0       0.0       0.0       0.0
 8 C  dxy             0.0       0.2       0.0       0.0       0.0       0.0
 9 C  s               0.3       0.0       0.1       0.9      16.9       0.5
 9 C  px              0.4       0.0       0.0       0.0       0.0       0.0
 9 C  dz2             0.3       0.0       0.0       0.0       0.0       0.0
 9 C  dx2y2           0.2       0.0       0.0       0.0       0.0       0.0
10 H  s               0.6       1.1       0.0       0.0       0.0       0.0
10 H  px              0.9       2.2       0.0       0.0       0.0       0.0
10 H  py              0.3       0.1       0.0       0.0       0.0       0.0
11 H  s               0.0       0.1       0.0       0.0       0.0       0.0
11 H  py              0.0       0.1       0.0       0.0       0.0       0.0
13 H  s               0.9       4.3       0.2       0.0       0.0       0.0
13 H  pz              0.1       0.5       0.0       0.0       0.0       0.0
13 H  px              2.1       9.7       0.2       0.0       0.0       0.0
13 H  py              0.6       0.2       0.0       0.0       0.0       0.0
14 H  s               1.7       0.0       0.1       0.0       0.0       0.0
14 H  pz              3.2       0.0       0.2       0.0       0.0       0.0
14 H  px              0.2       0.2       0.0       0.0       0.0       0.0
14 H  py              0.4       0.1       0.0       0.0       0.0       0.0
15 H  s               6.8       0.7       0.1       0.0       0.0       0.0
15 H  pz              0.9       0.1       0.1       0.0       0.0       0.0
15 H  px              6.2       0.7       0.0       0.0       0.0       0.0
15 H  py              7.9       0.8       0.1       0.0       0.0       0.0
16 H  s               0.1       0.5       0.0       0.0       0.0       0.0
16 H  pz              0.1       0.8       0.0       0.0       0.0       0.0
16 H  px              0.0       0.2       0.0       0.0       0.0       0.0
16 H  py              0.1       0.5       0.0       0.0       0.0       0.0
17 H  s               0.0       1.8       0.0       0.0       0.0       0.0
17 H  pz              0.0       1.1       0.0       0.0       0.0       0.0
17 H  py              0.0       2.9       0.0       0.0       0.0       0.0
18 H  s               0.2       0.1       0.0       0.0       0.0       0.0
18 H  pz              0.1       0.0       0.0       0.0       0.0       0.0
18 H  px              0.3       0.2       0.0       0.0       0.0       0.0
19 H  s               0.0       0.2       0.0       0.0       0.0       0.0
19 H  px              0.1       0.1       0.0       0.0       0.0       0.0
19 H  py              0.0       0.3       0.0       0.0       0.0       0.0
21 H  pz              0.1       0.0       0.0       0.0       0.0       0.0

                    258       259       260       261       262       263   
                  22.07148  22.12288  22.15581  22.17409  22.20128  22.26595
                   0.00000   0.00000   0.00000   0.00000   0.00000   0.00000
                  --------  --------  --------  --------  --------  --------
 0 C  s               3.6       0.4       5.9       3.0       0.0       0.4
 1 C  s               3.2       0.5      16.5       0.1       0.6      30.6
 2 C  s               1.1       2.8       1.4       0.5       1.1      47.4
 3 C  s               3.9       1.2      66.0       5.7       3.0      13.7
 3 C  py              0.0       0.0       0.1       0.0       0.0       0.0
 4 O  s               0.0       0.0       0.2       0.0       0.0       0.0
 5 C  s              21.1       8.1       1.7      41.8       0.6       7.1
 6 C  s               5.0       3.1       5.0       0.2      69.3       0.1
 7 C  s              34.5       1.2       0.2      47.5       0.2       0.1
 8 C  s               8.0      24.3       0.0       0.0      24.6       0.0
 9 C  s              19.4      58.0       2.4       0.9       0.3       0.2

                    264   
                  43.67558
                   0.00000
                  --------
 4 O  s              99.9


                      *****************************
                      * MAYER POPULATION ANALYSIS *
                      *****************************

  NA   - Mulliken gross atomic population
  ZA   - Total nuclear charge
  QA   - Mulliken gross atomic charge
  VA   - Mayer's total valence
  BVA  - Mayer's bonded valence
  FA   - Mayer's free valence

  ATOM       NA         ZA         QA         VA         BVA        FA
  0 C      6.5289     6.0000    -0.5289     3.8354     3.8354    -0.0000
  1 C      5.8036     6.0000     0.1964     3.2410     3.2410     0.0000
  2 C      6.2878     6.0000    -0.2878     3.7778     3.7778     0.0000
  3 C      5.7879     6.0000     0.2121     4.0192     4.0192     0.0000
  4 O      8.3415     8.0000    -0.3415     2.0063     2.0063    -0.0000
  5 C      6.3483     6.0000    -0.3483     3.4436     3.4436     0.0000
  6 C      5.8924     6.0000     0.1076     3.5621     3.5621    -0.0000
  7 C      6.3628     6.0000    -0.3628     3.5079     3.5079    -0.0000
  8 C      6.4980     6.0000    -0.4980     3.6972     3.6972     0.0000
  9 C      6.4835     6.0000    -0.4835     3.6999     3.6999     0.0000
 10 H      0.8396     1.0000     0.1604     0.9633     0.9633    -0.0000
 11 H      0.8304     1.0000     0.1696     0.9547     0.9547    -0.0000
 12 H      0.8404     1.0000     0.1596     0.9577     0.9577    -0.0000
 13 H      0.8302     1.0000     0.1698     0.9636     0.9636     0.0000
 14 H      0.8246     1.0000     0.1754     0.9590     0.9590     0.0000
 15 H      0.8162     1.0000     0.1838     0.9610     0.9610     0.0000
 16 H      0.8093     1.0000     0.1907     0.9525     0.9525    -0.0000
 17 H      0.8314     1.0000     0.1686     0.9638     0.9638    -0.0000
 18 H      0.8268     1.0000     0.1732     0.9600     0.9600     0.0000
 19 H      0.8399     1.0000     0.1601     0.9627     0.9627     0.0000
 20 H      0.8483     1.0000     0.1517     0.9637     0.9637    -0.0000
 21 H      0.8470     1.0000     0.1530     0.9646     0.9646     0.0000
 22 H      0.8435     1.0000     0.1565     0.9632     0.9632     0.0000
 23 H      0.8378     1.0000     0.1622     0.9629     0.9629     0.0000

  Mayer bond orders larger than 0.100000
B(  0-C ,  1-C ) :   0.8494 B(  0-C , 10-H ) :   0.9909 B(  0-C , 11-H ) :   0.9717 
B(  0-C , 12-H ) :   0.9580 B(  1-C ,  2-C ) :   1.6448 B(  1-C ,  7-C ) :   0.8302 
B(  2-C ,  3-C ) :   1.1070 B(  2-C , 13-H ) :   0.9382 B(  3-C ,  4-O ) :   1.9118 
B(  3-C ,  5-C ) :   0.9432 B(  5-C ,  6-C ) :   0.8729 B(  5-C , 14-H ) :   0.9449 
B(  5-C , 15-H ) :   0.9638 B(  6-C ,  7-C ) :   0.8987 B(  6-C ,  8-C ) :   0.9555 
B(  6-C ,  9-C ) :   0.9403 B(  7-C , 16-H ) :   0.9691 B(  7-C , 17-H ) :   0.9897 
B(  8-C , 18-H ) :   0.9605 B(  8-C , 19-H ) :   0.9713 B(  8-C , 20-H ) :   0.9750 
B(  9-C , 21-H ) :   0.9831 B(  9-C , 22-H ) :   0.9763 B(  9-C , 23-H ) :   0.9758 


-------
TIMINGS
-------

Total SCF time: 0 days 0 hours 0 min 43 sec 

Total time                  ....      43.682 sec
Sum of individual times     ....      43.047 sec  ( 98.5%)

SCF preparation             ....       0.187 sec  (  0.4%)
Fock matrix formation       ....      41.593 sec  ( 95.2%)
  Startup                   ....       0.066 sec  (  0.2% of F)
  Split-RI-J                ....       9.452 sec  ( 22.7% of F)
  XC integration            ....      31.388 sec  ( 75.5% of F)
    XC Preparation          ....       0.000 sec  (  0.0% of XC)
    Basis function eval.    ....       5.354 sec  ( 17.1% of XC)
    Density eval.           ....      10.769 sec  ( 34.3% of XC)
    XC-Functional eval.     ....       3.125 sec  ( 10.0% of XC)
    XC-Potential eval.      ....      10.900 sec  ( 34.7% of XC)
Diagonalization             ....       0.000 sec  (  0.0%)
Density matrix formation    ....       0.300 sec  (  0.7%)
Total Energy calculation    ....       0.043 sec  (  0.1%)
Population analysis         ....       0.168 sec  (  0.4%)
Orbital Transformation      ....       0.069 sec  (  0.2%)
Orbital Orthonormalization  ....       0.000 sec  (  0.0%)
DIIS solution               ....       0.533 sec  (  1.2%)
  MO trafo                  ....       0.000 sec  (  0.0 % of DIIS)
  Orb grad                  ....       0.000 sec  (  0.0 % of DIIS)
  Energy W gradient         ....       0.000 sec  (  0.0 % of DIIS)
  DIIS error                ....       0.021 sec  (  4.0 % of DIIS)
  DIIS work                 ....       0.454 sec  ( 85.0 % of DIIS)
  Form Q                    ....       0.000 sec  (  0.0 % of DIIS)
  Form QpQm                 ....       0.000 sec  (  0.0 % of DIIS)
  Exp/Cayley                ....       0.000 sec  (  0.0 % of DIIS)
  Orb update                ....       0.000 sec  (  0.0 % of DIIS)
  Wake-sleep                ....       0.024 sec  (  4.5 % of DIIS)
SOSCF solution              ....       0.154 sec  (  0.4%)
  MO trafo                  ....       0.067 sec  ( 43.5 % of SOSCF)
  Orb grad                  ....       0.002 sec  (  1.3 % of SOSCF)
  Rot update                ....       0.042 sec  ( 26.9 % of SOSCF)
  Step                      ....       0.043 sec  ( 28.2 % of SOSCF)
Finished LeanSCF after  43.8 sec

Maximum memory used throughout the entire LEANSCF-calculation: 31.5 MB


-------------------------------------------------------------------------------
                          DFT DISPERSION CORRECTION                            
                                                                               
                                DFTD4 V3.4.0                                   
-------------------------------------------------------------------------------
The R2SCAN3C composite method is recognized
Using three-body term ABC
Active option DFTDOPT                   ...         5   

-------------------------   ----------------
Dispersion correction           -0.008503780
-------------------------   ----------------

------------------   -----------------
gCP correction             0.010137124
------------------   -----------------

-------------------------   --------------------
FINAL SINGLE POINT ENERGY      -426.498543038610
-------------------------   --------------------


------------------------------------------------------------------------------
                              ORCA PROPERTY CALCULATIONS
------------------------------------------------------------------------------

GBWName                                 ... sp_gas.gbw
Number of atoms                         ...     24
Number of basis functions               ...    265
Max core memory                         ...   1024 MB

Electric properties:
Dipole moment                           ... YES
Quadrupole moment                       ...  NO
Static polarizability (Dipole/Dipole)   ...  NO
Static polarizability (Dipole/Quad.)    ...  NO
Static polarizability (Quad./Quad.)     ...  NO
Static polarizability (Velocity)        ...  NO

Atomic electric properties:
Dipole moment                           ...  NO
Quadrupole moment                       ...  NO
Static polarizability                   ...  NO

Choice of electric origin               ... Center of mass
Position of electric origin             ...    -0.000014    -0.000028    -0.000001

General magnetic properties:
Magnetizability                         ...  NO

EPR properties:
g-Tensor (aka g-matrix)                 ...  NO
Zero-Field splitting spin-orbit         ...  NO
Zero-field splitting spin-spin          ...  NO
Hyperfine couplings                     ...  NO (   0 nuclei)
Quadrupole couplings                    ...  NO (   0 nuclei)
Contact density                         ...  NO (   0 nuclei)

NMR properties:
Chemical shifts                         ...  NO (   0 nuclei)
Spin-rotation constants                 ...  NO (   0 nuclei)
Spin-spin couplings                     ...  NO (   0 nuclei,    0 pairs)

Choice of magnetic origin               ... GIAO
Position of magnetic origin             ...     0.000000     0.000000     0.000000

Properties with geometric perturbations:
SCF Hessian                             ...  NO
IR spectrum                             ...  NO
VCD spectrum                            ...  NO
X-ray spectroscopy properties:
SCF XES/XAS/RIXS spectra                ...  NO


-------------
DIPOLE MOMENT
-------------

Method             : SCF
Type of density    : Electron Density
Multiplicity       :   1
Irrep              :   0
Energy             :  -426.5001763823080410 Eh
Relativity type    : 
Basis              : AO
                                X                 Y                 Z
Electronic contribution:      5.604844279       7.585999276       0.968775333
Nuclear contribution   :     -6.015883968      -9.328257548      -0.790638940
                        -----------------------------------------
Total Dipole Moment    :     -0.411039689      -1.742258272       0.178136394
                        -----------------------------------------
Magnitude (a.u.)       :      1.798930262
Magnitude (Debye)      :      4.572517342



--------------------
Rotational spectrum 
--------------------
 
Rotational constants in cm-1:             0.050710             0.045285             0.028714 
Rotational constants in MHz :          1520.246839          1357.598349           860.818656 

Dipole components along the rotational axes: 
x,y,z [a.u.] :     0.410950    -1.742279     0.178137 
x,y,z [Debye]:     1.044553    -4.428522     0.452788 

 

Dipole moment calculation done in   0.0 sec 

Maximum memory used throughout the entire PROP-calculation: 18.8 MB

--------------------------------
SUGGESTED CITATIONS FOR THIS RUN
--------------------------------

Below you find a list of papers that are relevant to this ORCA run
We neither can nor want to force you to cite these papers, but we appreciate if you do
You receive ORCA, which is the product of decades of hard work by many enthusiastic individuals, for free
The only thing we kindly ask in return is that you cite our papers,
We deeply appreciate it, if you show your appreciation for ORCA by not just citing the generic ORCA reference.

Please note that relegating all ORCA citations to the supporting information does *not* help us.
SI sections are not indexed - citations you put there will not count into any citation statistics
But we need these citations in order to attract the funding resources that allow us to do what we are doing

Therefore, if you are a happy ORCA user, please consider citing a few of the papers listed below in the main body of your paper

In addition to the list printed below, the program has created the file sp_gas.bibtex that contains the list in bibtex format
You can import this file easily into all common literature databanks and citation aid programs


List of essential papers. We consider these as the minimum necessary citations

  1. Neese,F.
     Software update: the ORCA program system, version 5.0
     WIRES Comput. Molec. Sci., 2022 12(1)e1606
     doi.org/10.1002/wcms.1606
  2. Grimme,S.; Hansen,A.; Ehlert,S.; Mewes,J.
     r2SCAN-3c: A 'Swiss army knife' composite electronic-structure method
     J. Chem. Phys., 2021 154 064103
     doi.org/10.1063/5.0040021

List of papers to cite with high priority. The work reported in these papers was absolutely
necessary for this run to complete.
Our perspective: the developers of density functionals and basis sets usually get cited in chemistry papers
Good! But without the algorithms to do something with them, the functionals or basis sets would not do anything.
Hence, in our opinion, the algorithm design and method developments papers are equally worthy of getting cited

  1. Neese,F.
     An improvement of the resolution of the identity approximation for the formation of the Coulomb matrix
     J. Comp. Chem., 2003 24(14)1740-1747
     doi.org/10.1002/jcc.10318
  2. Neese,F.
     The SHARK Integral Generation and Digestion System
     J. Comp. Chem., 2022  1-16
     doi.org/10.1002/jcc.26942
  3. Lehtola,S.; Steigemann,C.; Oliveira,M.; Marques,M.
     Recent developments in Libxc - A comprehensive library of functionals for density functional theory
     Software X, 2018 7 
     doi.org/10.1016/j.softx.2017.11.002
  4. Caldeweyher,E.; Bannwarth,C.; Grimme,S.
     Extension of the D3 dispersion coefficient model
     J. Chem. Phys., 2017 147 034112-XXXX
     doi.org/10.1063/1.4993215
  5. Caldeweyher,E.; Ehlert,S.; Hansen,A.; Neugebauer,H.; Spicher,S.; Bannwarth,C.; Grimme,S.
     A generally applicable atomic-charge dependent London dispersion correction
     J. Chem. Phys., 2019 150 154122-XXXX
     doi.org/10.1063/1.5090222
  6. Caldeweyher,E.; Mewes,J.; Ehlert,S.; Grimme,S.
     Extension and evaluation of the D4 London-dispersion model for periodic systems
     Phys. Chem. Chem. Phys., 2020 22(16)8499-8512
     doi.org/10.1039/D0CP00502A

List of suggested additional citations. These are papers that are important in the 'surrounding' of 
of this run, or papers that preceded the highly important papers. If you like your results we are grateful for a citation.

  1. Neese,F.
     The ORCA program system
     WIRES Comput. Molec. Sci., 2012 2(1)73-78
     doi.org/10.1002/wcms.81
  2. Neese,F.
     Software update: the ORCA program system, version 4.0
     WIRES Comput. Molec. Sci., 2018 8(1)1-6
     doi.org/10.1002/wcms.1327
  3. Neese,F.; Wennmohs,F.; Becker,U.; Riplinger,C.
     The ORCA quantum chemistry program package
     J. Chem. Phys., 2020 152 Art. No. L224108
     doi.org/10.1063/5.0004608

List of optional additional citations

  1. Neese,F.
     Approximate second-order SCF convergence for spin unrestricted wavefunctions
     Chem. Phys. Lett., 2000 325(1-3)93-98
     doi.org/10.1016/s0009-2614(00)00662-x

Timings for individual modules:

Sum of individual times          ...       45.812 sec (=   0.764 min)
Startup calculation              ...        1.609 sec (=   0.027 min)   3.5 %
SCF iterations                   ...       44.090 sec (=   0.735 min)  96.2 %
Property calculations            ...        0.113 sec (=   0.002 min)   0.2 %
                             ****ORCA TERMINATED NORMALLY****
TOTAL RUN TIME: 0 days 0 hours 0 minutes 46 seconds 456 msec
