      -----------------------------------------------------------      
     |                   =====================                   |     
     |                           x T B                           |     
     |                   =====================                   |     
     |                         S. Grimme                         |     
     |          Mulliken Center for Theoretical Chemistry        |     
     |                    University of Bonn                     |     
      -----------------------------------------------------------      

   * xtb version 6.7.1 (edcfbbe) compiled by 'albert@albert-system' on 2024-07-22

   xtb is free software: you can redistribute it and/or modify it under
   the terms of the GNU Lesser General Public License as published by
   the Free Software Foundation, either version 3 of the License, or
   (at your option) any later version.
   
   xtb is distributed in the hope that it will be useful,
   but WITHOUT ANY WARRANTY; without even the implied warranty of
   MERCHANTABILITY or FITNESS FOR A PARTICULAR PURPOSE.  See the
   GNU Lesser General Public License for more details.
   
   Cite this work as:
   * C. Bannwarth, E. Caldeweyher, S. Ehlert, A. Hansen, P. Pracht,
     J. Seibert, S. Spicher, S. Grimme, WIREs Comput. Mol. Sci., 2020, 11,
     e01493. DOI: 10.1002/wcms.1493
   
   for GFN2-xTB:
   * C. Bannwarth, S. Ehlert and S. Grimme., J. Chem. Theory Comput., 2019,
     15, 1652-1671. DOI: 10.1021/acs.jctc.8b01176
   for GFN1-xTB:
   * S. Grimme, C. Bannwarth, P. Shushkov, J. Chem. Theory Comput., 2017,
     13, 1989-2009. DOI: 10.1021/acs.jctc.7b00118
   for GFN0-xTB:
   * P. Pracht, E. Caldeweyher, S. Ehlert, S. Grimme, ChemRxiv, 2019, preprint.
     DOI: 10.26434/chemrxiv.8326202.v1
   for GFN-FF:
   * S. Spicher and S. Grimme, Angew. Chem. Int. Ed., 2020, 59, 15665-15673.
     DOI: 10.1002/anie.202004239
   
   for ALPB and GBSA implicit solvation:
   * S. Ehlert, M. Stahn, S. Spicher, S. Grimme, J. Chem. Theory Comput.,
     2021, 17, 4250-4261. DOI: 10.1021/acs.jctc.1c00471
   
   for ddCOSMO and CPCM-X implicit solvation:
   * M. Stahn, S. Ehlert, S. Grimme, J. Phys. Chem. A,
     2023, XX, XXXX-XXXX. DOI: 10.1021/acs.jpca.3c04382
   
   for DFT-D4:
   * E. Caldeweyher, C. Bannwarth and S. Grimme, J. Chem. Phys., 2017,
     147, 034112. DOI: 10.1063/1.4993215
   * E. Caldeweyher, S. Ehlert, A. Hansen, H. Neugebauer, S. Spicher,
     C. Bannwarth and S. Grimme, J. Chem. Phys., 2019, 150, 154122.
     DOI: 10.1063/1.5090222
   * E. Caldeweyher, J.-M. Mewes, S. Ehlert and S. Grimme, Phys. Chem. Chem. Phys.
     2020, 22, 8499-8512. DOI: 10.1039/D0CP00502A
   
   for sTDA-xTB:
   * S. Grimme and C. Bannwarth, J. Chem. Phys., 2016, 145, 054103.
     DOI: 10.1063/1.4959605
   
   in the mass-spec context:
   * V. Asgeirsson, C. Bauer and S. Grimme, Chem. Sci., 2017, 8, 4879.
     DOI: 10.1039/c7sc00601b
   * J. Koopman and S. Grimme, ACS Omega 2019, 4, 12, 15120-15133.
     DOI: 10.1021/acsomega.9b02011
   
   for metadynamics refer to:
   * S. Grimme, J. Chem. Theory Comput., 2019, 155, 2847-2862
     DOI: 10.1021/acs.jctc.9b00143
   
   for SPH calculations refer to:
   * S. Spicher and S. Grimme, J. Chem. Theory Comput., 2021, 17, 1701-1714
     DOI: 10.1021/acs.jctc.0c01306
   
   for ONIOM refer to:
   * C. Plett, A. Katbashev, S. Ehlert, S. Grimme, M. Bursch,
     Phys. Chem. Chem. Phys., 2023, 25, 17860-17868. DOI: 10.1039/D3CP02178E
   
   for DIPRO refer to:
   * J. Kohn, N. Gildemeister, S. Grimme, D. Fazzi, A. Hansen,
     J. Chem. Phys., 2023, just accepted.
   
   for PTB refer to:
   * S. Grimme, M. Mueller, A. Hansen, J. Chem. Phys., 2023, 158, 124111.
     DOI: 10.1063/5.0137838
   
   with help from (in alphabetical order)
   P. Atkinson, C. Bannwarth, F. Bohle, G. Brandenburg, E. Caldeweyher
   M. Checinski, S. Dohm, S. Ehlert, S. Ehrlich, I. Gerasimov, C. Hölzer
   A. Katbashev, J. Kohn, J. Koopman, C. Lavigne, S. Lehtola, F. März, M. Müller,
   F. Musil, H. Neugebauer, J. Pisarek, C. Plett, P. Pracht, F. Pultar,
   J. Seibert, P. Shushkov, S. Spicher, M. Stahn, M. Steiner, T. Strunk,
   J. Stückrath, T. Rose, and J. Unsleber
   
 * started run on 2025/04/03 at 21:46:33.933     
   ID    Z sym.   atoms
    1    6 C      1-4, 6-8
    2    7 N      5
    3    1 H      9-17

           -------------------------------------------------
          |                Calculation Setup                |
           -------------------------------------------------

          program call               : /srv/scratch/z5358697/.xtb/bin/xtb gas.coord --gfn2 --sp --chrg 0 --norestart --parallel 1
          hostname                   : k156
          coordinate file            : gas.coord
          omp threads                :                     1


           -------------------------------------------------
          |                 G F N 2 - x T B                 |
           -------------------------------------------------

        Reference                      10.1021/acs.jctc.8b01176
      * Hamiltonian:
        H0-scaling (s, p, d)           1.850000    2.230000    2.230000
        zeta-weighting                 0.500000
      * Dispersion:
        s8                             2.700000
        a1                             0.520000
        a2                             5.000000
        s9                             5.000000
      * Repulsion:
        kExp                           1.500000    1.000000
        rExp                           1.000000
      * Coulomb:
        alpha                          2.000000
        third order                    shell-resolved
        anisotropic                    true
        a3                             3.000000
        a5                             4.000000
        cn-shift                       1.200000
        cn-exp                         4.000000
        max-rad                        5.000000


          ...................................................
          :                      SETUP                      :
          :.................................................:
          :  # basis functions                  41          :
          :  # atomic orbitals                  41          :
          :  # shells                           25          :
          :  # electrons                        42          :
          :  max. iterations                   250          :
          :  Hamiltonian                  GFN2-xTB          :
          :  restarted?                      false          :
          :  GBSA solvation                  false          :
          :  PC potential                    false          :
          :  electronic temp.          300.0000000     K    :
          :  accuracy                    1.0000000          :
          :  -> integral cutoff          0.2500000E+02      :
          :  -> integral neglect         0.1000000E-07      :
          :  -> SCF convergence          0.1000000E-05 Eh   :
          :  -> wf. convergence          0.1000000E-03 e    :
          :  Broyden damping             0.4000000          :
          :  net charge                          0          :
          :  unpaired electrons                  0          :
          ...................................................

 iter      E             dE          RMSdq      gap      omega  full diag
   1    -22.8583812 -0.228584E+02  0.394E+00    3.76       0.0  T
   2    -22.8754889 -0.171078E-01  0.236E+00    3.56       1.0  T
   3    -22.8723095  0.317947E-02  0.881E-01    3.54       1.0  T
   4    -22.8776495 -0.534008E-02  0.232E-01    3.34       1.0  T
   5    -22.8780732 -0.423678E-03  0.636E-02    3.38       1.0  T
   6    -22.8780891 -0.158780E-04  0.300E-02    3.37       1.0  T
   7    -22.8780889  0.149251E-06  0.108E-02    3.37       2.2  T
   8    -22.8780900 -0.105766E-05  0.334E-03    3.37       7.3  T
   9    -22.8780901 -0.851378E-07  0.118E-03    3.37      20.6  T
  10    -22.8780901 -0.454246E-09  0.428E-04    3.37      56.7  T
  11    -22.8780901 -0.201932E-08  0.153E-04    3.37     158.7  T

   *** convergence criteria satisfied after 11 iterations ***

         #    Occupation            Energy/Eh            Energy/eV
      -------------------------------------------------------------
         1        2.0000           -0.6547498             -17.8166
       ...           ...                  ...                  ...
        15        2.0000           -0.4670122             -12.7080
        16        2.0000           -0.4647157             -12.6456
        17        2.0000           -0.4512427             -12.2789
        18        2.0000           -0.4283813             -11.6568
        19        2.0000           -0.4145764             -11.2812
        20        2.0000           -0.3997470             -10.8777
        21        2.0000           -0.3596050              -9.7853 (HOMO)
        22                         -0.2357746              -6.4158 (LUMO)
        23                         -0.2252604              -6.1296
        24                         -0.1029553              -2.8016
        25                          0.0951550               2.5893
        26                          0.1235764               3.3627
       ...                                ...                  ...
        41                          0.6382937              17.3689
      -------------------------------------------------------------
                  HL-Gap            0.1238304 Eh            3.3696 eV
             Fermi-level           -0.2976898 Eh           -8.1006 eV

 SCC (total)                   0 d,  0 h,  0 min,  0.023 sec
 SCC setup                      ...        0 min,  0.000 sec (  0.787%)
 Dispersion                     ...        0 min,  0.000 sec (  0.427%)
 classical contributions        ...        0 min,  0.000 sec (  0.087%)
 integral evaluation            ...        0 min,  0.002 sec (  6.960%)
 iterations                     ...        0 min,  0.017 sec ( 76.022%)
 molecular gradient             ...        0 min,  0.003 sec ( 15.043%)
 printout                       ...        0 min,  0.000 sec (  0.592%)

         :::::::::::::::::::::::::::::::::::::::::::::::::::::
         ::                     SUMMARY                     ::
         :::::::::::::::::::::::::::::::::::::::::::::::::::::
         :: total energy             -22.495127995010 Eh    ::
         :: gradient norm              0.006493455149 Eh/a0 ::
         :: HOMO-LUMO gap              3.369596181536 eV    ::
         ::.................................................::
         :: SCC energy               -22.878062340995 Eh    ::
         :: -> isotropic ES            0.010934097642 Eh    ::
         :: -> anisotropic ES          0.003723017160 Eh    ::
         :: -> anisotropic XC          0.018676572963 Eh    ::
         :: -> dispersion             -0.012265491744 Eh    ::
         :: repulsion energy           0.382934345984 Eh    ::
         :: add. restraining           0.000000000000 Eh    ::
         :: total charge               0.000000000000 e     ::
         :::::::::::::::::::::::::::::::::::::::::::::::::::::

           -------------------------------------------------
          |                Property Printout                |
           -------------------------------------------------

    * Orbital Energies and Occupations

         #    Occupation            Energy/Eh            Energy/eV
      -------------------------------------------------------------
         1        2.0000           -0.6547498             -17.8166
       ...           ...                  ...                  ...
         9        2.0000           -0.5177707             -14.0893
        10        2.0000           -0.5101648             -13.8823
        11        2.0000           -0.4960166             -13.4973
        12        2.0000           -0.4926402             -13.4054
        13        2.0000           -0.4774824             -12.9930
        14        2.0000           -0.4727290             -12.8636
        15        2.0000           -0.4670122             -12.7080
        16        2.0000           -0.4647157             -12.6456
        17        2.0000           -0.4512427             -12.2789
        18        2.0000           -0.4283813             -11.6568
        19        2.0000           -0.4145764             -11.2812
        20        2.0000           -0.3997470             -10.8777
        21        2.0000           -0.3596050              -9.7853 (HOMO)
        22                         -0.2357746              -6.4158 (LUMO)
        23                         -0.2252604              -6.1296
        24                         -0.1029553              -2.8016
        25                          0.0951550               2.5893
        26                          0.1235764               3.3627
        27                          0.1399310               3.8077
        28                          0.1520368               4.1371
        29                          0.1742765               4.7423
        30                          0.1827475               4.9728
        31                          0.1921242               5.2280
        32                          0.2160389               5.8787
       ...                                ...                  ...
        41                          0.6382937              17.3689
      -------------------------------------------------------------
                  HL-Gap            0.1238304 Eh            3.3696 eV
             Fermi-level           -0.2976898 Eh           -8.1006 eV

     #   Z          covCN         q      C6AA      α(0)
     1   6 C        3.758    -0.110    22.655     6.786
     2   6 C        2.972     0.032    27.291     8.569
     3   6 C        2.920    -0.056    29.386     8.890
     4   6 C        2.905     0.056    26.745     8.480
     5   7 N        1.841    -0.243    27.202     7.729
     6   6 C        2.953     0.102    25.747     8.323
     7   6 C        2.923    -0.060    29.504     8.908
     8   6 C        3.760    -0.118    22.809     6.808
     9   1 H        0.925     0.050     2.323     2.384
    10   1 H        0.925     0.049     2.328     2.386
    11   1 H        0.925     0.043     2.407     2.426
    12   1 H        0.926     0.030     2.585     2.514
    13   1 H        0.925     0.033     2.539     2.492
    14   1 H        0.926     0.030     2.590     2.517
    15   1 H        0.925     0.063     2.164     2.300
    16   1 H        0.925     0.050     2.321     2.382
    17   1 H        0.925     0.050     2.318     2.381

 Mol. C6AA /au·bohr⁶  :       3018.072065
 Mol. C8AA /au·bohr⁸  :      70464.627169
 Mol. α(0) /au        :         86.275079


Wiberg/Mayer (AO) data.
largest (>0.10) Wiberg bond orders for each atom

 ---------------------------------------------------------------------------
     #   Z sym  total        # sym  WBO       # sym  WBO       # sym  WBO
 ---------------------------------------------------------------------------
     1   6 C    3.996 --     2 C    1.028    11 H    0.986    10 H    0.971
                             9 H    0.970
     2   6 C    3.987 --     7 C    1.434     3 C    1.389     1 C    1.028
     3   6 C    3.991 --     4 C    1.451     2 C    1.389    12 H    0.970
                             6 C    0.108
     4   6 C    3.984 --     3 C    1.451     5 N    1.423    13 H    0.964
                             7 C    0.110
     5   7 N    3.054 --     4 C    1.423     6 C    1.416
     6   6 C    3.979 --     5 N    1.416     7 C    1.389     8 C    1.023
                             3 C    0.108
     7   6 C    3.991 --     2 C    1.434     6 C    1.389    14 H    0.968
                             4 C    0.110
     8   6 C    3.995 --     6 C    1.023    15 H    0.984    16 H    0.971
                            17 H    0.970
     9   1 H    0.997 --     1 C    0.970
    10   1 H    0.997 --     1 C    0.971
    11   1 H    0.998 --     1 C    0.986
    12   1 H    0.998 --     3 C    0.970
    13   1 H    0.999 --     4 C    0.964
    14   1 H    0.999 --     7 C    0.968
    15   1 H    0.996 --     8 C    0.984
    16   1 H    0.997 --     8 C    0.971
    17   1 H    0.997 --     8 C    0.970
 ---------------------------------------------------------------------------

Topologies differ in total number of bonds
Writing topology from bond orders to xtbtopo.mol

molecular dipole:
                 x           y           z       tot (Debye)
 q only:       -0.318      -0.431       0.001
   full:       -0.709      -0.621       0.001       2.396
molecular quadrupole (traceless):
                xx          xy          yy          xz          yz          zz
 q only:        2.264      -2.025      -0.070      -0.012      -0.003      -2.194
  q+dip:        1.790      -3.639       1.910      -0.021      -0.004      -3.700
   full:        0.748      -3.851       0.661      -0.022      -0.005      -1.409


           -------------------------------------------------
          | TOTAL ENERGY              -22.495127995010 Eh   |
          | GRADIENT NORM               0.006493455149 Eh/α |
          | HOMO-LUMO GAP               3.369596181536 eV   |
           -------------------------------------------------

------------------------------------------------------------------------
 * finished run on 2025/04/03 at 21:46:33.982     
------------------------------------------------------------------------
 total:
 * wall-time:     0 d,  0 h,  0 min,  0.048 sec
 *  cpu-time:     0 d,  0 h,  0 min,  0.019 sec
 * ratio c/w:     0.397 speedup
 SCF:
 * wall-time:     0 d,  0 h,  0 min,  0.023 sec
 *  cpu-time:     0 d,  0 h,  0 min,  0.011 sec
 * ratio c/w:     0.477 speedup

