
                                 *****************
                                 * O   R   C   A *
                                 *****************

                                            #,                                       
                                            ###                                      
                                            ####                                     
                                            #####                                    
                                            ######                                   
                                           ########,                                 
                                     ,,################,,,,,                         
                               ,,#################################,,                 
                          ,,##########################################,,             
                       ,#########################################, ''#####,          
                    ,#############################################,,   '####,        
                  ,##################################################,,,,####,       
                ,###########''''           ''''###############################       
              ,#####''   ,,,,##########,,,,          '''####'''          '####       
            ,##' ,,,,###########################,,,                        '##       
           ' ,,###''''                  '''############,,,                           
         ,,##''                                '''############,,,,        ,,,,,,###''
      ,#''                                            '''#######################'''  
     '                                                          ''''####''''         
             ,#######,   #######,   ,#######,      ##                                
            ,#'     '#,  ##    ##  ,#'     '#,    #''#        ,####,   ,####,        
            ##       ##  ##   ,#'  ##            #'  '#       #'       #'  '#        
            ##       ##  #######   ##           ,######,      #####,   #    #        
            '#,     ,#'  ##    ##  '#,     ,#' ,#      #,     #,   #   #,  ,#        
             '#######'   ##     ##  '#######'  #'      '#     '####' # '####'        



                #########################################################
                #                        -***-                          #
                #          Department of theory and spectroscopy        #
                #                                                       #
                #                      Frank Neese                      #
                #                                                       #
                #     Directorship, Architecture, Infrastructure        #
                #                    SHARK, DRIVERS                     #
                #        Core code/Algorithms in most modules           #
                #                                                       #
                #        Max Planck Institute fuer Kohlenforschung      #
                #                Kaiser Wilhelm Platz 1                 #
                #                 D-45470 Muelheim/Ruhr                 #
                #                      Germany                          #
                #                                                       #
                #                  All rights reserved                  #
                #                        -***-                          #
                #########################################################


                         Program Version 6.0.0  -   RELEASE  -


 With contributions from (in alphabetic order):
   Daniel Aravena         : Magnetic Suceptibility
   Michael Atanasov       : Ab Initio Ligand Field Theory (pilot matlab implementation)
   Alexander A. Auer      : GIAO ZORA, VPT2 properties, NMR spectrum
   Ute Becker             : All parallelization in ORCA, NUMFREQ, NUMCALC
   Giovanni Bistoni       : ED, misc. LED, open-shell LED, HFLD
   Martin Brehm           : Molecular dynamics
   Dmytro Bykov           : pre 5.0 version of the SCF Hessian
   Marcos Casanova-Páez   : Triplet and SCS-CIS(D). UHF-(DLPNO)-IP/EA/STEOM-CCSD. UHF-CVS-IP/STEOM-CCSD
   Vijay G. Chilkuri      : MRCI spin determinant printing, contributions to CSF-ICE
   Pauline Colinet        : FMM embedding
   Dipayan Datta          : RHF DLPNO-CCSD density
   Achintya Kumar Dutta   : EOM-CC, STEOM-CC
   Nicolas Foglia         : Exact transition moments, OPA infrastructure, MCD improvements
   Dmitry Ganyushin       : Spin-Orbit,Spin-Spin,Magnetic field MRCI
   Miquel Garcia          : C-PCM and meta-GGA Hessian, CCSD/C-PCM, Gaussian charge scheme
   Tiago L. C. Gouveia    : GS-ROHF, GS-ROCIS
   Yang Guo               : DLPNO-NEVPT2, F12-NEVPT2, CIM, IAO-localization
   Andreas Hansen         : Spin unrestricted coupled pair/coupled cluster methods
   Ingolf Harden          : AUTO-CI MPn and infrastructure 
   Benjamin Helmich-Paris : MC-RPA, TRAH-(SCF,CASSCF), AVAS, COSX integrals, SCF dyn. polar.
   Lee Huntington         : MR-EOM, pCC
   Robert Izsak           : Overlap fitted RIJCOSX, COSX-SCS-MP3, EOM
   Riya Kayal             : Wick's Theorem for AUTO-CI, AUTO-CI UHF-CCSDT
   Emily Kempfer          : AUTO-CI, RHF CISDT and CCSDT
   Christian Kollmar      : KDIIS, OOCD, Brueckner-CCSD(T), CCSD density, CASPT2, CASPT2-K, improved NEVPT2
   Axel Koslowski         : Symmetry handling
   Simone Kossmann        : Meta GGA functionals, TD-DFT gradient, OOMP2, (MP2 Hessian; deprecated post 5.0)
   Lucas Lang             : DCDCAS
   Marvin Lechner         : AUTO-CI (C++ implementation), FIC-MRCC
   Spencer Leger          : CASSCF response
   Dagmar Lenk            : GEPOL surface, SMD, ORCA-2-JSON
   Dimitrios Liakos       : Extrapolation schemes; Compound Job, initial MDCI parallelization
   Dimitrios Manganas     : Further ROCIS development; embedding schemes. LFT, Crystal Embedding
   Dimitrios Pantazis     : SARC Basis sets
   Anastasios Papadopoulos: AUTO-CI, single reference methods and gradients
   Taras Petrenko         : pre 6.0 DFT Hessian and TD-DFT gradient, (ASA, deprecated), ECA, 1-Electron XAS/XES, NRVS
   Peter Pinski           : DLPNO-MP2, DLPNO-MP2 Gradient
   Christoph Reimann      : Effective Core Potentials
   Marius Retegan         : Local ZFS, SOC
   Christoph Riplinger    : Optimizer, TS searches, QM/MM, DLPNO-CCSD(T), (RO)-DLPNO pert. Triples
   Michael Roemelt        : Original ROCIS implementation
   Masaaki Saitow         : Open-shell DLPNO-CCSD energy and density
   Barbara Sandhoefer     : DKH picture change effects
   Kantharuban Sivalingam : CASSCF convergence/infrastructure, NEVPT2 and variants, FIC-MRCI
   Bernardo de Souza      : ESD, SOC TD-DFT
   Georgi Stoychev        : AutoAux, RI-MP2 NMR, DLPNO-MP2 response, X2C
   Van Anh Tran           : RI-MP2 g-tensors
   Willem Van den Heuvel  : Paramagnetic NMR
   Zikuan Wang            : NOTCH, Electric field optimization 
   Frank Wennmohs         : Technical directorship and infrastructure
   Hang Xu                : AUTO-CI-Response properties 


 We gratefully acknowledge several colleagues who have allowed us to
 interface, adapt or use parts of their codes:
   Stefan Grimme, W. Hujo, H. Kruse, P. Pracht,  : VdW corrections, initial TS optimization,
                  C. Bannwarth, S. Ehlert,         DFT functionals, gCP, sTDA/sTD-DF
                  L. Wittmann, M. Mueller
   Ed Valeev, F. Pavosevic, A. Kumar             : LibInt (2-el integral package), F12 methods
   Garnet Chan, S. Sharma, J. Yang, R. Olivares  : DMRG
   Ulf Ekstrom                                   : XCFun DFT Library
   Mihaly Kallay                                 : mrcc  (arbitrary order and MRCC methods)
   Frank Weinhold                                : gennbo (NPA and NBO analysis)
   Simon Mueller                                 : openCOSMO-RS
   Christopher J. Cramer and Donald G. Truhlar   : smd solvation model
   Lars Goerigk                                  : TD-DFT with DH, B97 family of functionals
   V. Asgeirsson, H. Jonsson                     : NEB implementation
   FAccTs GmbH                                   : IRC, NEB, NEB-TS, DLPNO-Multilevel, CI-OPT
                                                   MM, QMMM, 2- and 3-layer-ONIOM, Crystal-QMMM,
                                                   LR-CPCM, SF, NACMEs, symmetry and pop. for TD-DFT,
                                                   nearIR, NL-DFT gradient (VV10), updates on ESD,
                                                   ML-optimized integration grids, MBIS, APM,
                                                   GOAT, DOCKER, SOLVATOR, interface openCOSMO-RS
   S Lehtola, MJT Oliveira, MAL Marques          : LibXC Library
   Liviu Ungur et al                             : ANISO software


 Your calculation uses the libint2 library for the computation of 2-el integrals
 For citations please refer to: http://libint.valeyev.net

 Your ORCA version has been built with support for libXC version: 6.2.2
 For citations please refer to: https://libxc.gitlab.io

 This ORCA versions uses:
   CBLAS   interface :  Fast vector & matrix operations
   LAPACKE interface :  Fast linear algebra routines
   SCALAPACK package :  Parallel linear algebra routines
   Shared memory     :  Shared parallel matrices
   BLAS/LAPACK       :  OpenBLAS 0.3.27  USE64BITINT DYNAMIC_ARCH NO_AFFINITY SkylakeX SINGLE_THREADED
        Core in use  :  SkylakeX
   Copyright (c) 2011-2014, The OpenBLAS Project


Your calculation utilizes the geometrical counterpoise correction gCP
Please cite in your paper:
H.Kruse, S. Grimme J.Chem.Phys., 136, (2012), 154101 
   

Your calculation utilizes the atom-pairwise dispersion correction
based on EEQ partial charges (D4)


================================================================================

----- Orbital basis set information -----
Your calculation utilizes the basis: def2-SV(P)
   F. Weigend and R. Ahlrichs, Phys. Chem. Chem. Phys. 7, 3297 (2005).

----- AuxJ basis set information -----
Your calculation utilizes the auxiliary basis: def2/J
   F. Weigend, Phys. Chem. Chem. Phys. 8, 1057 (2006).

================================================================================
                                        WARNINGS
                       Please study these warnings very carefully!
================================================================================


================================================================================
                                       INPUT FILE
================================================================================
NAME = sp.inp
|  1> ! pbe def2-sv(p) def2/J RI DEFGRID1 loosescf d4 GCP(DFT/SV(P)) printgap
|  2> %output
|  3>     printlevel normal
|  4> end
|  5> * xyz 0 1
|  6> C -1.5556241641 -0.1248425618 0.5450453994
|  7> C -0.6720228419 0.4778509863 -0.5394791296
|  8> C 0.6691472698 -0.2468181043 -0.6488136896
|  9> N 1.4319393183 -0.1081757016 0.5852772598
| 10> H -1.8063612254 -1.1539134022 0.2996412289
| 11> H -1.0285564897 -0.1170286301 1.4944300123
| 12> H -2.4769768115 0.4430711083 0.6457805006
| 13> H -0.4875559588 1.531253978 -0.3158508638
| 14> H -1.1782728213 0.4237005932 -1.505188535
| 15> H 0.4926004359 -1.3146979062 -0.8068423586
| 16> H 1.2105991711 0.1387127299 -1.5314543503
| 17> H 1.6263213989 0.8734255023 0.75488961
| 18> H 2.3207231657 -0.5866518005 0.4963827139
| 19> *
| 20> 
| 21>                          ****END OF INPUT****
================================================================================

                       ****************************
                       * Single Point Calculation *
                       ****************************

---------------------------------
CARTESIAN COORDINATES (ANGSTROEM)
---------------------------------
  C     -1.555624   -0.124843    0.545045
  C     -0.672023    0.477851   -0.539479
  C      0.669147   -0.246818   -0.648814
  N      1.431939   -0.108176    0.585277
  H     -1.806361   -1.153913    0.299641
  H     -1.028556   -0.117029    1.494430
  H     -2.476977    0.443071    0.645781
  H     -0.487556    1.531254   -0.315851
  H     -1.178273    0.423701   -1.505189
  H      0.492600   -1.314698   -0.806842
  H      1.210599    0.138713   -1.531454
  H      1.626321    0.873426    0.754890
  H      2.320723   -0.586652    0.496383

----------------------------
CARTESIAN COORDINATES (A.U.)
----------------------------
  NO LB      ZA    FRAG     MASS         X           Y           Z
   0 C     6.0000    0    12.011   -2.939704   -0.235918    1.029987
   1 C     6.0000    0    12.011   -1.269939    0.903007   -1.019468
   2 C     6.0000    0    12.011    1.264505   -0.466419   -1.226080
   3 N     7.0000    0    14.007    2.705973   -0.204422    1.106014
   4 H     1.0000    0     1.008   -3.413528   -2.180580    0.566240
   5 H     1.0000    0     1.008   -1.943690   -0.221152    2.824063
   6 H     1.0000    0     1.008   -4.680808    0.837283    1.220348
   7 H     1.0000    0     1.008   -0.921347    2.893651   -0.596872
   8 H     1.0000    0     1.008   -2.226613    0.800678   -2.844394
   9 H     1.0000    0     1.008    0.930880   -2.484419   -1.524711
  10 H     1.0000    0     1.008    2.287701    0.262129   -2.894029
  11 H     1.0000    0     1.008    3.073302    1.650535    1.426535
  12 H     1.0000    0     1.008    4.385531   -1.108611    0.938027

--------------------------------
INTERNAL COORDINATES (ANGSTROEM)
--------------------------------
 C      0   0   0     0.000000000000     0.00000000     0.00000000
 C      1   0   0     1.523215107435     0.00000000     0.00000000
 C      2   1   0     1.528344400127   111.86201392     0.00000000
 N      3   2   1     1.457413426750   110.70810923   296.94063515
 H      1   2   3     1.087234599969   110.33916898   296.77232903
 H      1   2   3     1.085906319227   109.75979989    56.20199915
 H      1   2   3     1.086997791245   110.54547840   176.55135012
 H      2   1   3     1.092563725898   109.49340618   239.20605391
 H      2   1   3     1.091703239160   109.94982551   120.83698624
 H      3   2   1     1.093850591302   109.36576352    55.13479902
 H      3   2   1     1.104924758281   108.76731918   172.52943776
 H      4   3   2     1.014935301434   109.49676114   298.48135152
 H      4   3   2     1.013300717906   109.86882445   180.43857337

---------------------------
INTERNAL COORDINATES (A.U.)
---------------------------
 C      0   0   0     0.000000000000     0.00000000     0.00000000
 C      1   0   0     2.878459396103     0.00000000     0.00000000
 C      2   1   0     2.888152354552   111.86201392     0.00000000
 N      3   2   1     2.754112240458   110.70810923   296.94063515
 H      1   2   3     2.054575637265   110.33916898   296.77232903
 H      1   2   3     2.052065550434   109.75979989    56.20199915
 H      1   2   3     2.054128133630   110.54547840   176.55135012
 H      2   1   3     2.064646225804   109.49340618   239.20605391
 H      2   1   3     2.063020141528   109.94982551   120.83698624
 H      3   2   1     2.067078048989   109.36576352    55.13479902
 H      3   2   1     2.088005191739   108.76731918   172.52943776
 H      4   3   2     1.917949763359   109.49676114   298.48135152
 H      4   3   2     1.914860848148   109.86882445   180.43857337

---------------------
BASIS SET INFORMATION
---------------------
There are 3 groups of distinct atoms

 Group   1 Type C   : 7s4p1d contracted to 3s2p1d pattern {511/31/1}
 Group   2 Type N   : 7s4p1d contracted to 3s2p1d pattern {511/31/1}
 Group   3 Type H   : 4s contracted to 2s pattern {31}

Atom   0C    basis set group =>   1
Atom   1C    basis set group =>   1
Atom   2C    basis set group =>   1
Atom   3N    basis set group =>   2
Atom   4H    basis set group =>   3
Atom   5H    basis set group =>   3
Atom   6H    basis set group =>   3
Atom   7H    basis set group =>   3
Atom   8H    basis set group =>   3
Atom   9H    basis set group =>   3
Atom  10H    basis set group =>   3
Atom  11H    basis set group =>   3
Atom  12H    basis set group =>   3
---------------------------------
AUXILIARY/J BASIS SET INFORMATION
---------------------------------
There are 3 groups of distinct atoms

 Group   1 Type C   : 12s5p4d2f1g contracted to 6s4p3d1f1g pattern {711111/2111/211/2/1}
 Group   2 Type N   : 12s5p4d2f1g contracted to 6s4p3d1f1g pattern {711111/2111/211/2/1}
 Group   3 Type H   : 5s2p1d contracted to 3s1p1d pattern {311/2/1}

Atom   0C    basis set group =>   1
Atom   1C    basis set group =>   1
Atom   2C    basis set group =>   1
Atom   3N    basis set group =>   2
Atom   4H    basis set group =>   3
Atom   5H    basis set group =>   3
Atom   6H    basis set group =>   3
Atom   7H    basis set group =>   3
Atom   8H    basis set group =>   3
Atom   9H    basis set group =>   3
Atom  10H    basis set group =>   3
Atom  11H    basis set group =>   3
Atom  12H    basis set group =>   3
------------------------------------------------------------------------------
                             ORCA STARTUP CALCULATIONS
                           -- RI-GTO INTEGRALS CHOSEN --
------------------------------------------------------------------------------
------------------------------------------------------------------------------
                   ___                                                        
                  /   \      - P O W E R E D   B Y -                         
                 /     \                                                     
                 |  |  |   _    _      __       _____    __    __             
                 |  |  |  | |  | |    /  \     |  _  \  |  |  /  |          
                  \  \/   | |  | |   /    \    | | | |  |  | /  /          
                 / \  \   | |__| |  /  /\  \   | |_| |  |  |/  /          
                |  |  |   |  __  | /  /__\  \  |    /   |      \           
                |  |  |   | |  | | |   __   |  |    \   |  |\   \          
                \     /   | |  | | |  |  |  |  | |\  \  |  | \   \       
                 \___/    |_|  |_| |__|  |__|  |_| \__\ |__|  \__/        
                                                                              
                      - O R C A' S   B I G   F R I E N D -                    
                                      &                                       
                       - I N T E G R A L  F E E D E R -                       
                                                                              
 v1 FN, 2020, v2 2021, v3 2022-2024                                           
------------------------------------------------------------------------------


----------------------
SHARK INTEGRAL PACKAGE
----------------------

Number of atoms                             ...     13
Number of basis functions                   ...     74
Number of shells                            ...     42
Maximum angular momentum                    ...      2
Integral batch strategy                     ... SHARK/LIBINT Hybrid
RI-J (if used) integral strategy            ... SPLIT-RIJ (Revised 2003 algorithm where possible)
Printlevel                                  ...      1
Contraction scheme used                     ... SEGMENTED contraction
Prescreening option                         ... SCHWARTZ
   Thresh                                   ... 1.000e-09
   Tcut                                     ... 1.000e-10
   Tpresel                                  ... 1.000e-10 
Coulomb Range Separation                    ... NOT USED
Exchange Range Separation                   ... NOT USED
Multipole approximations                    ... NOT USED
Finite Nucleus Model                        ... NOT USED
CABS basis                                  ... NOT available
Auxiliary Coulomb fitting basis             ... AVAILABLE
   # of basis functions in Aux-J            ...    295
   # of shells in Aux-J                     ...    105
   Maximum angular momentum in Aux-J        ...      4
Auxiliary J/K fitting basis                 ... NOT available
Auxiliary Correlation fitting basis         ... NOT available
Auxiliary 'external' fitting basis          ... NOT available

Checking pre-screening integrals            ... done (  0.0 sec) Dimension = 42
Check shell pair data                       ... done (  0.0 sec)
Shell pair information
Shell pair cut-off parameter TPreSel        ...   1.0e-10
Total number of shell pairs                 ...       903
Shell pairs after pre-screening             ...       899
Total number of primitive shell pairs       ...      3649
Primitive shell pairs kept                  ...      2864
          la=0 lb=0:    461 shell pairs
          la=1 lb=0:    240 shell pairs
          la=1 lb=1:     36 shell pairs
          la=2 lb=0:    120 shell pairs
          la=2 lb=1:     32 shell pairs
          la=2 lb=2:     10 shell pairs

Calculating one electron integrals          ... done (  0.0 sec)
Calculating RI/J V-Matrix + Cholesky decomp.... done (  0.0 sec)
Calculating Nuclear repulsion               ... done (  0.0 sec) ENN=    133.982516166916 Eh

Diagonalization of the overlap matrix:
Smallest eigenvalue                        ... 2.717e-03
Time for diagonalization                   ...    0.001 sec
Threshold for overlap eigenvalues          ... 1.000e-07
Number of eigenvalues below threshold      ... 0
Time for construction of square roots      ...    0.013 sec
Total time needed                          ...    0.022 sec

-------------------
DFT GRID GENERATION
-------------------

General Integration Accuracy     IntAcc      ... 4.159
Radial Grid Type                 RadialGrid  ... OptM3 with GC (2021)
Angular Grid (max. ang.)         AngularGrid ... 3 (Lebedev-194)
Angular grid pruning method      GridPruning ... 4 (adaptive)
Weight generation scheme         WeightScheme... mBecke (2022)
Basis function cutoff            BFCut       ... 1.0000e-10
Integration weight cutoff        WCut        ... 1.0000e-14
Partially contracted basis set               ... off
Rotationally invariant grid construction     ... off
Angular grids for H and He will be reduced by one unit

Total number of grid points                  ...    25857
Total number of batches                      ...      411
Average number of points per batch           ...       62
Average number of grid points per atom       ...     1989
Initializing property integral containers    ... done (  0.0 sec)

SHARK setup successfully completed in   0.4 seconds

Maximum memory used throughout the entire STARTUP-calculation: 12.4 MB
-------------------------------------------------------------------------------
                                 ORCA GUESS
                   Start orbitals & Density for SCF / CASSCF
-------------------------------------------------------------------------------

------------
SCF SETTINGS
------------
Hamiltonian:
 Density Functional     Method          .... DFT(GTOs)
 Exchange Functional    Exchange        .... PBE
   PBE kappa parameter   XKappa         ....  0.804000
   PBE mue parameter    XMuePBE         ....  0.219520
 Correlation Functional Correlation     .... PBE
   PBE beta parameter  CBetaPBE         ....  0.066725
 LDA part of GGA corr.  LDAOpt          .... PW91-LDA
 Gradients option       PostSCFGGA      .... off
   NL short-range parameter             ....  6.400000
 RI-approximation to the Coulomb term is turned on
   Number of AuxJ basis functions       .... 295


General Settings:
 Integral files         IntName         .... sp
 Hartree-Fock type      HFTyp           .... RHF
 Total Charge           Charge          ....    0
 Multiplicity           Mult            ....    1
 Number of Electrons    NEL             ....   34
 Basis Dimension        Dim             ....   74
 Nuclear Repulsion      ENuc            ....    133.9825161669 Eh

Convergence Acceleration:
 AO-DIIS                CNVDIIS         .... on
   Start iteration      DIISMaxIt       ....    12
   Startup error        DIISStart       ....  0.200000
   # of expansion vecs  DIISMaxEq       ....     5
   Bias factor          DIISBfac        ....   1.050
   Max. coefficient     DIISMaxC        ....  10.000
 MO-DIIS                CNVKDIIS        .... off
 Trust-Rad. Augm. Hess. CNVTRAH         .... auto
   Auto Start mean grad. ratio tolernc. ....  1.125000
   Auto Start start iteration           ....    50
   Auto Start num. interpolation iter.  ....    10
   Max. Number of Micro iterations      ....    24
   Max. Number of Macro iterations      .... Maxiter - #DIIS iter
   Number of Davidson start vectors     ....     2
   Converg. threshold    (grad. norm)   ....   1.000e-04
   Grad. Scal. Fac. for Micro threshold ....   0.100
   Minimum threshold for Micro iter.    ....   1.000e-02
   NR start threshold (gradient norm)   ....   1.000e-04
   Initial trust radius                 ....   0.400
   Minimum AH scaling param. (alpha)    ....   1.000
   Maximum AH scaling param. (alpha)    .... 1000.000
   Quad. conv. algorithm                .... NR
   White noise on init. David. guess    .... on
   Maximum white noise                  ....   0.010
   Pseudo random numbers                .... off
   Inactive MOs                         .... canonical
   Orbital update algorithm             .... Taylor
   Preconditioner                       .... Diag
   Full preconditioner red. dimension   ....   250
 SOSCF                  CNVSOSCF        .... on
   Start iteration      SOSCFMaxIt      ....   150
   Startup grad/error   SOSCFStart      ....  0.003300
   Hessian update       SOSCFHessUp     .... L-BFGS
 Level Shifting         CNVShift        .... on
   Level shift para.    LevelShift      ....    0.2500
   Turn off err/grad.   ShiftErr        ....    0.0010
 Zerner damping         CNVZerner       .... off
 Static damping         CNVDamp         .... on
   Fraction old density DampFac         ....    0.7000
   Max. Damping (<1)    DampMax         ....    0.9800
   Min. Damping (>=0)   DampMin         ....    0.0000
   Turn off err/grad.   DampErr         ....    0.1000

SCF Procedure:
 Maximum # iterations   MaxIter         ....   125
 SCF integral mode      SCFMode         .... Direct
   Integral package                     .... SHARK and LIBINT hybrid scheme
 Reset frequency        DirectResetFreq ....    20
 Integral Threshold     Thresh          ....  1.000e-09 Eh
 Primitive CutOff       TCut            ....  1.000e-10 Eh

Convergence Tolerance:
 Convergence Check Mode ConvCheckMode   .... Total+1el-Energy
 Convergence forced     ConvForced      .... 0
 Energy Change          TolE            ....  1.000e-05 Eh
 1-El. energy change                    ....  1.000e-02 Eh
 Orbital Gradient       TolG            ....  1.000e-04
 Orbital Rotation angle TolX            ....  1.000e-04
 DIIS Error             TolErr          ....  5.000e-04

------------------------------
INITIAL GUESS: MODEL POTENTIAL
------------------------------
Loading Hartree-Fock densities                     ... done
Calculating cut-offs                               ... done
Initializing the effective Hamiltonian             ... done
Setting up the integral package (SHARK)            ... done
Starting the Coulomb interaction                   ... done (   0.0 sec)
Making the grid                                    ... done (   0.1 sec)
Mapping shells                                     ... done
Starting the XC term evaluation                    ... done (   0.1 sec)
  promolecular density results
     # of electrons  =     33.999076556
     EX              =    -24.534992291
     EC              =     -1.092835416
     EX+EC           =    -25.627827708
Transforming the Hamiltonian                       ... done (   0.0 sec)
Diagonalizing the Hamiltonian                      ... done (   0.0 sec)
Back transforming the eigenvectors                 ... done (   0.0 sec)
Now organizing SCF variables                       ... done
                      ------------------
                      INITIAL GUESS DONE (   0.2 sec)
                      ------------------
             **** ENERGY FILE WAS UPDATED (sp.en.tmp) ****
Finished Guess after   0.4 sec
Maximum memory used throughout the entire GUESS-calculation: 9.6 MB

-------------------------------------------------------------------------------------------
                                      ORCA LEAN-SCF
                              memory conserving SCF solver
-------------------------------------------------------------------------------------------

----------------------------------------D-I-I-S--------------------------------------------
Iteration    Energy (Eh)           Delta-E    RMSDP     MaxDP     DIISErr   Damp  Time(sec)
-------------------------------------------------------------------------------------------
               ***  Starting incremental Fock matrix formation  ***
    1    -173.9093613343234779     0.00e+00  6.98e-03  9.13e-02  2.37e-01  0.700   0.3
    2    -173.9970759105699472    -8.77e-02  4.79e-03  4.73e-02  9.44e-02  0.700   0.4
                               ***Turning on AO-DIIS***
    3    -174.0251222406726583    -2.80e-02  1.84e-03  1.53e-02  1.98e-02  0.700   0.4
    4    -174.0420465731027662    -1.69e-02  2.51e-03  2.35e-02  9.12e-03  0.000   0.4
    5    -174.0818443586375110    -3.98e-02  8.51e-04  7.65e-03  1.13e-02  0.000   0.3
                              *** Initializing SOSCF ***
---------------------------------------S-O-S-C-F--------------------------------------
Iteration    Energy (Eh)           Delta-E    RMSDP     MaxDP     MaxGrad    Time(sec)
--------------------------------------------------------------------------------------
    6    -174.0823590317916683    -5.15e-04  3.21e-04  3.01e-03  2.28e-03     0.4
               *** Restarting incremental Fock matrix formation ***
    7    -174.0824000159269644    -4.10e-05  2.55e-04  2.67e-03  2.84e-04     0.3
    8    -174.0823979866784157     2.03e-06  7.93e-05  1.31e-03  6.27e-04     0.4
                 **** Energy Check signals convergence ****

               *****************************************************
               *                     SUCCESS                       *
               *           SCF CONVERGED AFTER   8 CYCLES          *
               *****************************************************

             **** ENERGY FILE WAS UPDATED (sp.en.tmp) ****

----------------
TOTAL SCF ENERGY
----------------

Total Energy       :       -174.08239798667842 Eh           -4737.02287 eV

Components:
Nuclear Repulsion  :        133.98251616691579 Eh            3645.84962 eV
Electronic Energy  :       -308.06491415359420 Eh           -8382.87249 eV
One Electron Energy:       -499.03934669769484 Eh          -13579.55099 eV
Two Electron Energy:        190.97443254410064 Eh            5196.67850 eV

Virial components:
Potential Energy   :       -346.63138481049555 Eh           -9432.31951 eV
Kinetic Energy     :        172.54898682381713 Eh            4695.29664 eV
Virial Ratio       :          2.00888681638234

DFT components:
N(Alpha)           :       16.999924670249 electrons
N(Beta)            :       16.999924670249 electrons
N(Total)           :       33.999849340498 electrons
E(X)               :      -25.206599081177 Eh       
E(C)               :       -1.107172069719 Eh       
E(XC)              :      -26.313771150896 Eh       

---------------
SCF CONVERGENCE
---------------

  Last Energy change         ...   -2.0292e-06  Tolerance :   1.0000e-05
  Last MAX-Density change    ...    1.3094e-03  Tolerance :   1.0000e-03
  Last RMS-Density change    ...    7.9330e-05  Tolerance :   1.0000e-04
  Last DIIS Error            ...    2.2788e-03  Tolerance :   5.0000e-04
  Last Orbital Gradient      ...    6.2748e-04  Tolerance :   1.0000e-04
  Last Orbital Rotation      ...    2.9848e-04  Tolerance :   1.0000e-04


----------------
ORBITAL ENERGIES
----------------

  NO   OCC          E(Eh)            E(eV) 
   0   2.0000     -13.955148      -379.7389 
   1   2.0000      -9.903183      -269.4793 
   2   2.0000      -9.879296      -268.8293 
   3   2.0000      -9.860950      -268.3301 
   4   2.0000      -0.791797       -21.5459 
   5   2.0000      -0.681076       -18.5330 
   6   2.0000      -0.584988       -15.9183 
   7   2.0000      -0.511488       -13.9183 
   8   2.0000      -0.439031       -11.9467 
   9   2.0000      -0.403838       -10.9890 
  10   2.0000      -0.392717       -10.6864 
  11   2.0000      -0.354967        -9.6591 
  12   2.0000      -0.332848        -9.0573 
  13   2.0000      -0.299787        -8.1576 
  14   2.0000      -0.287617        -7.8264 
  15   2.0000      -0.285145        -7.7592 
  16   2.0000      -0.179386        -4.8813 
  17   0.0000       0.033193         0.9032 
  18   0.0000       0.068256         1.8574 
  19   0.0000       0.075688         2.0596 
  20   0.0000       0.091882         2.5002 
  21   0.0000       0.113408         3.0860 
  22   0.0000       0.122000         3.3198 
  23   0.0000       0.131691         3.5835 
  24   0.0000       0.144010         3.9187 
  25   0.0000       0.155479         4.2308 
  26   0.0000       0.190857         5.1935 
  27   0.0000       0.211235         5.7480 
*Only the first 10 virtual orbitals were printed.

                    ********************************
                    * MULLIKEN POPULATION ANALYSIS *
                    ********************************

-----------------------
MULLIKEN ATOMIC CHARGES
-----------------------
   0 C :   -0.271422
   1 C :   -0.198818
   2 C :   -0.075809
   3 N :   -0.460918
   4 H :    0.090756
   5 H :    0.111354
   6 H :    0.096725
   7 H :    0.078750
   8 H :    0.085073
   9 H :    0.077177
  10 H :    0.066176
  11 H :    0.198323
  12 H :    0.202633
Sum of atomic charges:    0.0000000

--------------------------------
MULLIKEN REDUCED ORBITAL CHARGES
--------------------------------
  0 C s       :     3.090890  s :     3.090890
      pz      :     1.068189  p :     3.151346
      px      :     1.037900
      py      :     1.045257
      dz2     :     0.008553  d :     0.029186
      dxz     :     0.005949
      dyz     :     0.002633
      dx2y2   :     0.005998
      dxy     :     0.006052

  1 C s       :     3.074683  s :     3.074683
      pz      :     1.039265  p :     3.087796
      px      :     1.004333
      py      :     1.044198
      dz2     :     0.009235  d :     0.036339
      dxz     :     0.008709
      dyz     :     0.002916
      dx2y2   :     0.009790
      dxy     :     0.005689

  2 C s       :     3.036432  s :     3.036432
      pz      :     0.923704  p :     2.987764
      px      :     0.995361
      py      :     1.068699
      dz2     :     0.014555  d :     0.051614
      dxz     :     0.014299
      dyz     :     0.006435
      dx2y2   :     0.010322
      dxy     :     0.006003

  3 N s       :     3.528509  s :     3.528509
      pz      :     1.458325  p :     3.909224
      px      :     1.264538
      py      :     1.186360
      dz2     :     0.007555  d :     0.023185
      dxz     :     0.002840
      dyz     :     0.001913
      dx2y2   :     0.006564
      dxy     :     0.004313

  4 H s       :     0.909244  s :     0.909244

  5 H s       :     0.888646  s :     0.888646

  6 H s       :     0.903275  s :     0.903275

  7 H s       :     0.921250  s :     0.921250

  8 H s       :     0.914927  s :     0.914927

  9 H s       :     0.922823  s :     0.922823

 10 H s       :     0.933824  s :     0.933824

 11 H s       :     0.801677  s :     0.801677

 12 H s       :     0.797367  s :     0.797367


------------------------
MULLIKEN OVERLAP CHARGES
------------------------
B(  0-C ,  1-C ) :   0.8835 B(  0-C ,  2-C ) :  -0.1176 B(  0-C ,  4-H ) :   0.7542 
B(  0-C ,  5-H ) :   0.7607 B(  0-C ,  6-H ) :   0.7362 B(  0-C ,  7-H ) :  -0.0638 
B(  1-C ,  2-C ) :   0.8793 B(  1-C ,  3-N ) :  -0.1385 B(  1-C ,  4-H ) :  -0.0515 
B(  1-C ,  5-H ) :  -0.0663 B(  1-C ,  7-H ) :   0.7280 B(  1-C ,  8-H ) :   0.6818 
B(  1-C , 10-H ) :  -0.0842 B(  2-C ,  3-N ) :   0.7825 B(  2-C ,  7-H ) :  -0.0533 
B(  2-C ,  9-H ) :   0.7104 B(  2-C , 10-H ) :   0.7106 B(  2-C , 11-H ) :  -0.0774 
B(  3-N ,  5-H ) :   0.0667 B(  3-N ,  9-H ) :  -0.0679 B(  3-N , 10-H ) :  -0.0622 
B(  3-N , 11-H ) :   0.6335 B(  3-N , 12-H ) :   0.6271 B(  4-H ,  6-H ) :  -0.0514 
B(  7-H ,  8-H ) :  -0.0616 B(  9-H , 10-H ) :  -0.0900 B( 11-H , 12-H ) :  -0.0642 



                     *******************************
                     * LOEWDIN POPULATION ANALYSIS *
                     *******************************

----------------------
LOEWDIN ATOMIC CHARGES
----------------------
   0 C :   -0.344027
   1 C :   -0.241760
   2 C :   -0.176796
   3 N :   -0.416103
   4 H :    0.115449
   5 H :    0.122046
   6 H :    0.114801
   7 H :    0.110773
   8 H :    0.115727
   9 H :    0.108963
  10 H :    0.086796
  11 H :    0.200093
  12 H :    0.204038

-------------------------------
LOEWDIN REDUCED ORBITAL CHARGES
-------------------------------
  0 C s       :     2.943876  s :     2.943876
      pz      :     1.117782  p :     3.329298
      px      :     1.098726
      py      :     1.112790
      dz2     :     0.019200  d :     0.070852
      dxz     :     0.016124
      dyz     :     0.006679
      dx2y2   :     0.014128
      dxy     :     0.014721

  1 C s       :     2.912349  s :     2.912349
      pz      :     1.088421  p :     3.241377
      px      :     1.063125
      py      :     1.089832
      dz2     :     0.021631  d :     0.088034
      dxz     :     0.021609
      dyz     :     0.007103
      dx2y2   :     0.022735
      dxy     :     0.014956

  2 C s       :     2.909566  s :     2.909566
      pz      :     0.997154  p :     3.148992
      px      :     1.044112
      py      :     1.107726
      dz2     :     0.035684  d :     0.118238
      dxz     :     0.032407
      dyz     :     0.012726
      dx2y2   :     0.023147
      dxy     :     0.014274

  3 N s       :     3.261046  s :     3.261046
      pz      :     1.524757  p :     4.108407
      px      :     1.317232
      py      :     1.266418
      dz2     :     0.013786  d :     0.046650
      dxz     :     0.006543
      dyz     :     0.003512
      dx2y2   :     0.013500
      dxy     :     0.009309

  4 H s       :     0.884551  s :     0.884551

  5 H s       :     0.877954  s :     0.877954

  6 H s       :     0.885199  s :     0.885199

  7 H s       :     0.889227  s :     0.889227

  8 H s       :     0.884273  s :     0.884273

  9 H s       :     0.891037  s :     0.891037

 10 H s       :     0.913204  s :     0.913204

 11 H s       :     0.799907  s :     0.799907

 12 H s       :     0.795962  s :     0.795962


---------------------------------
LOEWDIN BOND ORDERS (THRESH 0.050000)
---------------------------------
B(  0-C ,  1-C ) :   1.1321 B(  0-C ,  2-C ) :   0.0521 B(  0-C ,  4-H ) :   0.9411 
B(  0-C ,  5-H ) :   0.9352 B(  0-C ,  6-H ) :   0.9410 B(  1-C ,  2-C ) :   1.1047 
B(  1-C ,  3-N ) :   0.0563 B(  1-C ,  7-H ) :   0.9066 B(  1-C ,  8-H ) :   0.9068 
B(  2-C ,  3-N ) :   1.1961 B(  2-C ,  9-H ) :   0.9123 B(  2-C , 10-H ) :   0.9094 
B(  3-N , 11-H ) :   0.9216 B(  3-N , 12-H ) :   0.9210 

------------------------------------------
LOEWDIN REDUCED ORBITAL POPULATIONS PER MO
-------------------------------------------
THRESHOLD FOR PRINTING IS 0.1%%
                      0         1         2         3         4         5   
                 -13.95515  -9.90318  -9.87930  -9.86095  -0.79180  -0.68108
                   2.00000   2.00000   2.00000   2.00000   2.00000   2.00000
                  --------  --------  --------  --------  --------  --------
 0 C  s               0.0       0.0       0.0      99.7       0.6      19.7
 0 C  pz              0.0       0.0       0.1       0.0       0.1       1.5
 0 C  px              0.0       0.0       0.0       0.0       0.3       0.9
 0 C  py              0.0       0.0       0.0       0.0       0.0       0.4
 1 C  s               0.0       0.0      99.6       0.0       3.4      27.1
 1 C  pz              0.0       0.0       0.0       0.1       0.1       0.5
 1 C  px              0.0       0.1       0.0       0.0       1.5       0.3
 1 C  py              0.0       0.0       0.0       0.0       0.4       0.5
 2 C  s               0.0      99.6       0.0       0.0      16.5       3.8
 2 C  pz              0.0       0.0       0.0       0.0       4.4       0.7
 2 C  px              0.0       0.0       0.1       0.0       1.3       7.2
 2 C  py              0.0       0.0       0.0       0.0       0.2       0.4
 2 C  dxz             0.0       0.0       0.0       0.0       0.3       0.1
 3 N  s              99.8       0.0       0.0       0.0      43.1       6.5
 3 N  pz              0.0       0.1       0.0       0.0       2.4       0.2
 3 N  px              0.0       0.0       0.0       0.0       0.1       1.7
 3 N  py              0.0       0.0       0.0       0.0       0.2       0.1
 4 H  s               0.0       0.0       0.0       0.1       0.1       3.9
 5 H  s               0.0       0.0       0.0       0.1       0.2       3.6
 6 H  s               0.0       0.0       0.0       0.1       0.1       3.8
 7 H  s               0.0       0.0       0.1       0.0       0.6       5.2
 8 H  s               0.0       0.0       0.1       0.0       0.5       5.6
 9 H  s               0.0       0.1       0.0       0.0       2.4       0.9
10 H  s               0.0       0.1       0.0       0.0       2.3       0.7
11 H  s               0.0       0.0       0.0       0.0       9.3       1.8
12 H  s               0.0       0.0       0.0       0.0       9.2       2.5

                      6         7         8         9        10        11   
                  -0.58499  -0.51149  -0.43903  -0.40384  -0.39272  -0.35497
                   2.00000   2.00000   2.00000   2.00000   2.00000   2.00000
                  --------  --------  --------  --------  --------  --------
 0 C  s              20.0       5.7       0.1       0.5       0.1       0.0
 0 C  pz              0.6       3.2       3.3       0.2       5.0      12.2
 0 C  px              0.8       1.1       0.7       8.4       2.3      16.3
 0 C  py              0.0       2.9       0.0       1.1      12.1       0.3
 1 C  s               0.9      11.9       1.0       0.8       0.1       0.1
 1 C  pz              4.6       1.7       5.7       8.2       1.8       2.7
 1 C  px              9.1       0.3       6.6       0.0       0.1       9.3
 1 C  py              0.0       7.2       0.1       0.0      22.3       0.0
 1 C  dxy             0.2       0.0       0.0       0.0       0.0       0.0
 2 C  s              16.5       7.1       0.3       0.5       0.1       0.1
 2 C  pz              2.7       0.3       3.4      25.2       0.5       6.5
 2 C  px              0.5       2.5       0.1       1.4      12.9       4.8
 2 C  py              0.0       7.5       7.6       3.8       2.8       0.1
 2 C  dz2             0.0       0.0       0.1       0.0       0.1       0.2
 2 C  dxz             0.0       0.0       0.0       0.1       0.0       0.3
 2 C  dyz             0.0       0.0       0.1       0.0       0.0       0.0
 2 C  dxy             0.0       0.1       0.0       0.1       0.0       0.1
 3 N  s               3.5       0.7       0.0       0.5       0.3       0.4
 3 N  pz              2.9       3.7       0.1       1.6       5.6       6.7
 3 N  px              3.6       1.8      18.0       5.4       0.1      11.3
 3 N  py              0.4       4.3      21.9      14.0       3.9       0.5
 3 N  dz2             0.1       0.1       0.0       0.0       0.1       0.1
 3 N  dx2y2           0.0       0.0       0.2       0.1       0.0       0.0
 3 N  dxy             0.0       0.0       0.1       0.0       0.0       0.0
 4 H  s               5.4       4.0       0.0       1.9       3.7       0.5
 5 H  s               5.6       3.0       1.7       0.0       0.8      11.5
 6 H  s               6.5       2.1       0.0       2.5       5.2       5.2
 7 H  s               0.2       8.8       0.1       0.8       8.6       0.6
 8 H  s               0.4       6.3       5.7       1.2       1.3       3.7
 9 H  s               4.9       7.0       1.9       0.1       1.5       0.1
10 H  s               5.6       2.4       0.0      14.5       4.2       0.8
11 H  s               2.3       3.7       5.3       6.5       3.6       0.1
12 H  s               2.2       0.2      15.8       0.1       0.4       5.1

                     12        13        14        15        16        17   
                  -0.33285  -0.29979  -0.28762  -0.28515  -0.17939   0.03319
                   2.00000   2.00000   2.00000   2.00000   2.00000   0.00000
                  --------  --------  --------  --------  --------  --------
 0 C  s               0.0       0.5       0.1       0.0       0.0       2.5
 0 C  pz              0.0      23.2       4.6       0.6       1.3       0.3
 0 C  px              0.1       8.5       9.0       6.6       0.0       0.2
 0 C  py             24.9       0.9       5.6       7.5       0.0       0.0
 0 C  dz2             0.0       0.0       0.7       0.1       0.0       0.0
 0 C  dxz             0.0       0.2       0.1       0.2       0.0       0.0
 0 C  dyz             0.0       0.1       0.0       0.0       0.0       0.1
 0 C  dx2y2           0.2       0.0       0.1       0.3       0.0       0.1
 0 C  dxy             0.1       0.2       0.0       0.2       0.0       0.1
 1 C  s               0.1       0.2       0.0       0.2       0.2       4.1
 1 C  pz              1.9      21.4       5.3       0.4       0.1       0.4
 1 C  px              2.8       5.2       7.3       9.9       0.7       0.2
 1 C  py              0.0       2.9       8.3      12.3       0.3       1.9
 1 C  dz2             0.0       0.0       0.8       0.1       0.0       0.0
 1 C  dxz             0.1       0.4       0.1       0.1       0.0       0.3
 1 C  dx2y2           0.0       0.0       0.3       0.6       0.0       0.0
 1 C  dxy             0.1       0.2       0.0       0.2       0.0       0.1
 2 C  s               0.2       0.0       0.1       0.7       0.2       4.5
 2 C  pz              1.4       2.2       0.1       0.3       2.3       3.8
 2 C  px              1.1       5.4       2.7      11.7       0.5       0.4
 2 C  py             18.7       1.0       2.0      10.7       0.5       0.3
 2 C  dz2             0.1       0.0       0.2       0.0       1.0       0.0
 2 C  dxz             0.0       0.4       0.1       0.0       0.3       0.3
 2 C  dyz             0.1       0.0       0.0       0.0       0.2       0.1
 2 C  dx2y2           0.3       0.1       0.3       0.3       0.0       0.0
 2 C  dxy             0.1       0.1       0.0       0.1       0.0       0.0
 3 N  s               0.0       0.9       0.1       0.0       7.1      10.9
 3 N  pz              5.3       1.7       2.2       0.3      43.5       0.1
 3 N  px              0.0       2.4       0.9       0.9      19.6       2.5
 3 N  py              4.5       1.0       0.0       1.7      10.9       0.7
 3 N  dz2             0.0       0.0       0.0       0.0       0.0       0.1
 3 N  dx2y2           0.1       0.0       0.0       0.1       0.0       0.0
 3 N  dxy             0.1       0.0       0.0       0.1       0.0       0.0
 4 H  s              12.3       0.1       9.1       3.1       0.1       1.7
 5 H  s               0.0       4.5       9.8       2.8       0.4       1.4
 6 H  s               4.5       3.1       0.7      10.5       0.0       2.6
 7 H  s               0.1       0.5      12.6       6.3       0.0       6.6
 8 H  s               0.2       5.9      11.0       2.5       0.1       5.5
 9 H  s              14.1       0.9       4.3       5.0       1.3       4.4
10 H  s               0.4       5.9       0.9       0.2       7.7       9.7
11 H  s               4.9       0.0       0.4       1.2       0.9      17.3
12 H  s               1.0       0.0       0.2       2.2       0.7      16.9

                     18        19        20        21        22        23   
                   0.06826   0.07569   0.09188   0.11341   0.12200   0.13169
                   0.00000   0.00000   0.00000   0.00000   0.00000   0.00000
                  --------  --------  --------  --------  --------  --------
 0 C  s               6.2       0.8      13.2       2.1       1.6       2.2
 0 C  pz              0.1       0.3       1.6       0.3       0.6       2.0
 0 C  px              2.4       0.8       0.3       2.6       0.3       0.3
 0 C  py              2.1       1.1       0.4       8.2       0.7       2.7
 0 C  dz2             0.2       0.0       0.2       0.1       0.2       0.1
 0 C  dxz             0.0       0.0       0.0       0.1       0.2       0.2
 0 C  dyz             0.1       0.1       0.0       0.3       0.0       0.1
 0 C  dx2y2           0.0       0.0       0.0       0.2       0.0       0.0
 0 C  dxy             0.0       0.2       0.0       0.1       0.3       0.4
 1 C  s               3.0       5.0       1.3       0.5       4.8       4.9
 1 C  pz              3.2       0.2       0.8       1.5       7.1       1.9
 1 C  px              0.7       0.1       1.2       0.5       2.2       0.3
 1 C  py              0.1       6.4       0.0       0.5       0.5       2.7
 1 C  dz2             0.1       0.1       0.2       0.0       0.3       0.3
 1 C  dxz             0.0       0.0       0.0       0.6       0.0       0.2
 1 C  dyz             0.1       0.0       0.3       0.1       0.1       0.0
 1 C  dx2y2           0.0       0.5       0.1       0.2       0.3       0.0
 1 C  dxy             0.0       0.0       0.0       0.4       0.0       0.2
 2 C  s               1.7       1.0       5.2       1.7       6.2       0.0
 2 C  pz              0.3       0.5       3.4       0.7       2.1       1.8
 2 C  px              0.7       0.7       2.0       0.3       0.9       0.2
 2 C  py              2.5       3.5       1.3       5.2       0.0       4.3
 2 C  dz2             0.1       0.1       0.2       0.1       0.0       0.0
 2 C  dxz             0.1       0.1       0.0       0.8       0.1       0.2
 2 C  dyz             0.2       0.2       0.0       0.1       0.2       0.2
 2 C  dx2y2           0.0       0.4       0.0       0.1       0.1       0.1
 2 C  dxy             0.2       0.1       0.0       0.0       0.1       0.3
 3 N  s               5.6       1.4       1.5       0.3       1.0       0.3
 3 N  pz              0.1       0.7       0.1       0.5       0.3       0.0
 3 N  px              1.6       2.5       0.1       0.3       0.2       1.5
 3 N  py              1.8       3.9       0.0       5.8       0.1       4.8
 3 N  dz2             0.0       0.0       0.1       0.0       0.0       0.0
 3 N  dyz             0.2       0.0       0.0       0.1       0.0       0.2
 3 N  dx2y2           0.1       0.0       0.0       0.2       0.0       0.0
 3 N  dxy             0.0       0.1       0.0       0.0       0.1       0.2
 4 H  s              15.8       0.6       9.2       3.6       0.5      13.5
 5 H  s               0.2       0.4      16.5       0.3       1.8       0.5
 6 H  s               5.7       5.3       6.2      24.8       4.9       0.1
 7 H  s               0.0      25.8       0.2       2.6       0.3      18.9
 8 H  s              12.6       0.9       5.7       1.3      36.4       0.6
 9 H  s               9.6      12.5       0.1      14.5       5.1       6.7
10 H  s               0.2       0.1      24.8       2.1      16.8       7.2
11 H  s              16.6       3.6       1.9       7.6       1.6      12.2
12 H  s               5.8      20.0       1.8       8.9       1.9       7.5

                     24        25        26        27        28        29   
                   0.14401   0.15548   0.19086   0.21123   0.22604   0.39308
                   0.00000   0.00000   0.00000   0.00000   0.00000   0.00000
                  --------  --------  --------  --------  --------  --------
 0 C  s               1.1       0.2       0.8       0.4       0.8       0.1
 0 C  pz              0.6      10.5       5.0       5.9       7.1       0.0
 0 C  px              9.9       4.9       3.8       4.6       3.6       0.1
 0 C  py              3.1       4.5       0.7       1.7       5.2      22.4
 0 C  dz2             0.4       0.2       0.0       0.4       0.3       0.2
 0 C  dxz             0.0       0.4       2.1       1.2       1.0       0.6
 0 C  dyz             0.0       0.1       0.0       0.4       2.0       1.0
 0 C  dx2y2           0.1       0.8       0.4       0.1       0.0       3.2
 0 C  dxy             0.6       0.0       0.8       0.1       0.4       1.9
 1 C  s               0.2       0.2       9.1       0.3       0.1       0.5
 1 C  pz              0.4       2.0       4.3       2.8       6.8       8.3
 1 C  px              1.6       1.9       6.3       4.3      18.3       0.0
 1 C  py              0.8       0.9      14.4       4.1       0.3       0.7
 1 C  dz2             0.2       0.1       0.9       0.6       1.0       0.6
 1 C  dxz             0.0       0.2       0.7       2.2       0.3       0.3
 1 C  dyz             0.7       0.0       1.5       0.1       1.0       0.4
 1 C  dx2y2           0.0       0.1       1.3       0.1       0.1       1.8
 1 C  dxy             0.3       0.5       1.6       0.2       2.1       0.6
 2 C  s               0.4       0.6       6.9       3.7       0.0       2.9
 2 C  pz              2.0       0.4       7.2      17.0       4.1       7.8
 2 C  px              5.2       1.0       9.8       5.0      14.3       2.9
 2 C  py              3.4       0.1       4.4       2.2       3.9       1.2
 2 C  dz2             0.6       0.2       0.0       2.3       2.1       0.1
 2 C  dxz             0.1       0.1       0.0       3.6       0.6       0.0
 2 C  dyz             0.2       0.0       1.1       0.1       0.2       1.2
 2 C  dx2y2           0.2       0.1       2.2       0.1       0.0       0.2
 2 C  dxy             0.2       0.2       2.1       0.3       1.5       0.2
 3 N  s               0.6       0.1       0.9       1.7       0.5       0.1
 3 N  pz              0.8       0.3       0.1      10.9       3.2       1.3
 3 N  px              0.9       3.2       1.7       6.4       1.3       0.5
 3 N  py              3.8       0.2       0.3       0.3       2.1       2.1
 3 N  dz2             0.1       0.0       0.0       0.6       0.4       0.2
 3 N  dxz             0.1       0.0       0.5       1.2       0.0       0.1
 3 N  dyz             0.0       0.0       0.1       0.0       0.3       0.0
 3 N  dx2y2           0.2       0.0       0.1       0.1       0.0       0.7
 3 N  dxy             0.0       0.0       0.2       0.0       0.1       0.5
 4 H  s               3.6      16.7       0.1       1.0       3.3      14.8
 5 H  s              11.9      31.2       1.2       0.5       0.9       0.1
 6 H  s              17.4       0.1       0.0       2.2       1.6       4.9
 7 H  s               2.9       5.4       2.5       4.4       0.8       4.3
 8 H  s               0.3       5.3       1.2       1.4       0.4       3.6
 9 H  s               9.6       1.8       2.3       1.2       3.1       0.8
10 H  s               5.0       0.7       1.0       0.9       0.8       2.6
11 H  s               6.3       0.2       0.0       1.7       3.6       2.7
12 H  s               4.2       4.7       0.0       1.4       0.5       1.7

                     30        31        32        33        34        35   
                   0.41230   0.42048   0.43750   0.46085   0.55763   0.56924
                   0.00000   0.00000   0.00000   0.00000   0.00000   0.00000
                  --------  --------  --------  --------  --------  --------
 0 C  s               3.3       0.1       0.1       0.4       0.6       0.7
 0 C  pz             12.1      16.4       2.2       5.1       0.6       6.5
 0 C  px             16.7       8.2       3.5       1.7       0.8       4.6
 0 C  py              2.0       0.1       0.4       0.1      17.3       2.3
 0 C  dz2             0.7       4.1       0.4       0.2       0.0       0.4
 0 C  dxz             0.8       3.2       0.1       0.8       0.2       0.0
 0 C  dyz             0.7       0.0       0.1       0.0       1.1       0.7
 0 C  dx2y2           0.0       0.1       1.2       0.4       1.0       0.1
 0 C  dxy             2.0       0.1       0.0       0.2       0.3       0.8
 1 C  s               1.1       0.2       2.2       0.5       2.7       3.1
 1 C  pz              7.5       1.1       0.5       2.5       4.1       0.3
 1 C  px              3.9       6.4      12.0       0.1       2.6       4.9
 1 C  py              5.3       1.1      11.4       0.0       7.8       5.2
 1 C  dz2             0.2       3.5       0.0       0.0       0.0       0.0
 1 C  dxz             2.9       0.4       0.3       0.8       0.0       0.1
 1 C  dyz             1.2       0.4       0.3       0.0       1.0       0.0
 1 C  dx2y2           1.2       0.0       0.4       0.8       0.3       0.1
 1 C  dxy             0.3       0.0       2.9       0.1       0.3       0.4
 2 C  s               0.2       2.0       0.4       9.9       1.3       0.6
 2 C  pz              0.5       2.2       4.1      16.8       5.6       5.5
 2 C  px              0.4       3.6      10.8      18.6       2.2       2.5
 2 C  py              3.3       0.7       7.9       4.3      18.5       0.5
 2 C  dz2             0.7       0.3       0.0       0.4       0.6       1.0
 2 C  dxz             1.5       0.3       0.1       0.3       0.5       0.9
 2 C  dyz             0.1       0.0       0.3       0.0       0.9       2.6
 2 C  dx2y2           1.7       0.5       1.6       1.3       0.0       0.0
 2 C  dxy             0.2       0.6       2.4       0.0       1.1       0.1
 3 N  s               0.6       0.5       0.0       0.3       2.1       2.5
 3 N  pz              0.4       0.5       1.4       5.1       0.3       1.5
 3 N  px              1.3       1.1       0.2       5.1       3.7       0.1
 3 N  py              0.2       0.5       2.7       0.2       1.6       2.4
 3 N  dz2             0.1       0.4       0.2       2.2       0.2       1.5
 3 N  dxz             0.0       0.2       0.4       2.1       0.0       0.4
 3 N  dyz             0.0       0.0       0.2       0.1       0.5       0.6
 3 N  dx2y2           0.1       0.3       1.8       0.1       0.7       1.3
 3 N  dxy             0.0       0.3       0.8       1.2       1.4       0.1
 4 H  s               0.2       1.7       2.8       0.3       2.1       0.1
 5 H  s               0.3      16.7       1.6       2.3       0.1       0.0
 6 H  s               6.8       4.3       0.6       0.4       0.5       2.9
 7 H  s               4.5       3.1       4.2       1.1       0.1       1.6
 8 H  s               1.4       8.4       0.8       1.7       0.0       1.2
 9 H  s               5.1       1.2       4.9       6.2       1.1       5.1
10 H  s               7.7       1.7       0.0       0.5       0.5      10.9
11 H  s               0.1       0.3       7.9       0.3       0.3      23.0
12 H  s               0.5       3.3       3.7       5.4      13.3       1.2

                     36        37        38        39        40        41   
                   0.58982   0.61760   0.64336   0.65298   0.66420   0.67128
                   0.00000   0.00000   0.00000   0.00000   0.00000   0.00000
                  --------  --------  --------  --------  --------  --------
 0 C  s               4.4       3.8      17.5       6.5       0.0       3.3
 0 C  pz              9.6       2.0       0.1      14.0       1.0       0.2
 0 C  px              4.5       1.0       4.6       1.9       1.3      19.9
 0 C  py              0.7       2.5       2.1       3.1       0.9       1.0
 0 C  dz2             0.2       0.0       0.1       0.1       0.0       0.7
 0 C  dxz             0.2       0.1       0.1       0.1       0.5       0.0
 0 C  dyz             0.2       0.1       0.2       0.1       0.0       0.0
 0 C  dx2y2           0.0       0.0       0.1       0.2       0.5       0.8
 0 C  dxy             1.1       0.0       0.1       1.2       0.0       0.1
 1 C  s               7.6       0.0      10.5       0.6       5.2      10.7
 1 C  pz              1.2       7.9       2.8       0.7       2.2      10.0
 1 C  px              2.8      36.1       0.0       5.6       7.4       0.1
 1 C  py              9.4       0.7       6.6       2.9       7.0      10.2
 1 C  dz2             0.2       0.2       0.1       1.0       0.6       0.3
 1 C  dxz             0.0       0.0       0.2       0.3       1.3       0.1
 1 C  dyz             0.1       0.1       0.2       0.1       0.0       0.0
 1 C  dx2y2           0.2       0.0       0.1       0.4       0.2       0.8
 2 C  s               1.0       5.0       6.9       2.6      21.0       1.7
 2 C  pz              2.7       4.4       1.8       0.1       7.6       0.5
 2 C  px             16.8       4.7       0.5       4.2       8.4       1.7
 2 C  py              1.3       0.4       7.5       1.5       1.9       5.3
 2 C  dz2             0.2       0.0       0.0       1.0       0.1       0.0
 2 C  dxz             0.2       0.2       0.1       0.1       0.1       0.0
 2 C  dyz             0.1       0.0       0.0       0.1       0.1       0.0
 2 C  dx2y2           0.1       0.0       0.3       0.0       0.0       0.2
 2 C  dxy             0.4       0.0       0.1       0.0       0.3       0.1
 3 N  s               1.5       0.2       0.3       1.2       0.2       0.2
 3 N  pz              0.2       0.8       0.4      15.1       0.1       0.8
 3 N  px              0.8       1.0       0.7       6.5       0.2       0.8
 3 N  py              0.3       0.2       1.4       1.8       0.9       1.0
 3 N  dz2             0.5       0.0       0.1       0.2       0.2       0.1
 3 N  dxz             0.1       0.1       0.0       0.1       0.1       0.1
 3 N  dyz             0.2       0.0       0.0       0.0       0.1       0.0
 3 N  dx2y2           0.1       0.1       0.3       0.0       0.1       0.5
 3 N  dxy             0.1       0.0       0.5       0.2       0.0       0.2
 4 H  s               1.6       1.4       7.7       0.4       1.7       0.3
 5 H  s               3.7       1.2       0.9       1.7       0.9       1.6
 6 H  s               0.6       6.3       1.3       1.5       0.3      10.2
 7 H  s               7.2       0.0       4.9       0.1       0.3       9.5
 8 H  s               4.6       0.2       3.3       4.5      15.1       0.3
 9 H  s               0.3       4.8       7.9       1.2       2.0       2.1
10 H  s               1.9      13.5       0.0       6.8       6.2       0.6
11 H  s               5.3       0.3       0.7       2.4       3.0       3.2
12 H  s               5.7       0.5       6.8       7.9       0.9       1.1

                     42        43        44        45        46        47   
                   0.68136   0.68745   0.69512   0.70310   0.71275   0.72890
                   0.00000   0.00000   0.00000   0.00000   0.00000   0.00000
                  --------  --------  --------  --------  --------  --------
 0 C  s               1.2      17.9       0.3       0.2       0.1      19.2
 0 C  pz              1.9       5.7       9.8       1.3       8.3       0.4
 0 C  px              1.8       3.2       0.1       9.9       6.1       2.0
 0 C  py              9.3       8.6      17.0       7.8       0.6       5.6
 0 C  dz2             0.2       0.0       0.7       0.6       0.0       0.4
 0 C  dxz             0.6       0.1       0.1       0.1       0.7       0.0
 0 C  dyz             0.4       0.0       0.0       0.4       0.5       0.0
 0 C  dx2y2           0.1       0.3       0.8       0.0       0.4       0.1
 0 C  dxy             0.1       0.1       0.1       1.3       0.0       0.4
 1 C  s               0.1       0.7       1.7       1.7       0.2      15.2
 1 C  pz             11.0       5.0       2.2       0.1      23.7       0.4
 1 C  px              2.6       0.0       0.7       1.5       3.3       0.1
 1 C  py             14.9       0.9       3.8       5.0       2.0       1.8
 1 C  dz2             0.7       0.1       0.0       0.0       0.2       0.0
 1 C  dxz             0.3       0.1       0.0       0.0       0.2       0.1
 1 C  dyz             0.0       0.0       0.6       0.0       0.2       0.1
 1 C  dx2y2           1.2       0.0       0.0       0.1       0.4       0.0
 1 C  dxy             0.0       0.0       0.0       0.1       0.0       0.0
 2 C  s               1.2       2.9       2.4       4.1       1.9       2.9
 2 C  pz              7.8       2.7       0.6      11.9       0.7       1.7
 2 C  px              0.1       0.1       2.7       3.0       0.4       1.2
 2 C  py              1.2       9.9       5.2      20.2       4.0       1.7
 2 C  dz2             0.1       0.2       0.5       0.0       0.0       0.2
 2 C  dxz             0.0       0.2       0.4       0.1       0.1       0.0
 2 C  dyz             0.4       0.1       0.1       0.2       0.3       0.3
 2 C  dx2y2           0.1       0.5       0.0       0.0       0.3       0.2
 3 N  s               0.6       2.1       7.2       0.6       1.3       0.5
 3 N  pz              1.9       0.0       0.8       0.8       0.1       1.5
 3 N  px              0.5       0.1       0.7       0.0      11.7       3.4
 3 N  py              0.1       2.4       0.8       0.9       3.4       4.7
 3 N  dz2             0.1       0.0       0.0       0.1       0.0       0.0
 3 N  dyz             0.0       0.0       0.1       0.0       0.3       0.0
 3 N  dx2y2           0.0       0.8       0.5       0.1       0.6       0.3
 3 N  dxy             0.0       0.2       0.0       0.0       0.4       0.0
 4 H  s               0.2      10.8       7.5       1.2       3.3      10.6
 5 H  s               8.0       2.7      11.3       3.4       6.0       3.6
 6 H  s               0.4       0.3       4.0      15.5       0.6       7.1
 7 H  s              17.3       0.4       0.1       0.7       0.2       4.3
 8 H  s               9.1       3.0       0.5       0.7       1.2       1.6
 9 H  s               2.6       8.4       2.4       4.3       0.0       3.3
10 H  s               0.5       1.1       9.7       1.7       1.1       0.5
11 H  s               0.2       7.6       4.3       0.1       1.6       4.2
12 H  s               0.9       0.5       0.1       0.0      13.4       0.1

                     48        49        50        51        52        53   
                   0.81429   0.86490   0.92746   1.02696   1.12598   1.17111
                   0.00000   0.00000   0.00000   0.00000   0.00000   0.00000
                  --------  --------  --------  --------  --------  --------
 0 C  s               0.3       1.2       5.5      25.3       1.1       2.8
 0 C  pz              2.7       0.2       1.5       0.5       0.3       0.0
 0 C  px              0.1       1.2       0.5       5.3       4.5       0.1
 0 C  py              0.0       0.6       0.1       0.6       2.3       0.1
 0 C  dz2             0.2       0.1       0.5       0.0       1.5       0.2
 0 C  dxz             0.0       0.3       0.4       0.0       0.1       0.0
 0 C  dyz             0.0       0.2       0.1       0.4       0.4       0.1
 0 C  dx2y2           0.0       0.0       0.6       0.6       0.1       0.0
 0 C  dxy             0.0       0.1       0.5       1.4       0.0       0.0
 1 C  s               0.3       6.7       9.3       9.4      21.8       0.3
 1 C  pz              0.3       1.2       2.1       0.2       5.1       1.2
 1 C  px              0.4       0.0       3.9       0.3       1.0       0.3
 1 C  py              0.8       1.6       1.6       0.6       0.2       0.0
 1 C  dz2             0.0       0.3       1.9       0.3       0.8       0.0
 1 C  dxz             0.0       0.0       0.1       0.1       0.0       0.0
 1 C  dyz             0.3       0.6       0.0       0.5       1.0       0.1
 1 C  dx2y2           0.0       0.1       0.0       0.1       0.5       0.0
 1 C  dxy             0.0       0.0       0.2       0.7       0.0       0.1
 2 C  s               1.7       4.5       3.5       3.2       7.6      22.7
 2 C  pz              0.1       1.2       0.2       7.6       0.8       0.5
 2 C  px              2.9       1.6       0.6       4.8       0.5       0.7
 2 C  py              0.7       0.3       1.1       3.2       0.7       0.1
 2 C  dz2             0.2       0.0       0.7       0.2       0.5       1.1
 2 C  dxz             0.7       0.1       0.0       0.3       0.8       0.1
 2 C  dyz             0.2       0.2       0.0       0.6       0.5       0.0
 2 C  dx2y2           0.0       0.2       0.7       0.9       0.2       0.1
 2 C  dxy             0.0       0.2       0.1       0.5       0.3       0.2
 3 N  s              26.4       0.0       3.8       7.2       1.2      39.5
 3 N  pz             40.3      12.3       1.6       1.9       0.3       9.8
 3 N  px              3.1       0.8      38.1       1.0      19.8       1.4
 3 N  py              6.5      48.9       5.8       1.0      13.4       0.0
 3 N  dz2             0.4       0.4       0.2       0.1       0.0       0.1
 3 N  dxz             0.0       0.0       0.2       0.0       1.2       8.3
 3 N  dyz             0.2       0.3       0.0       0.0       0.0       1.4
 3 N  dx2y2           0.1       0.7       0.7       0.3       1.9       0.0
 3 N  dxy             0.0       0.1       1.8       0.4       0.5       0.4
 4 H  s               0.2       0.1       1.7       4.1       0.4       0.3
 5 H  s               4.8       0.4       1.0       4.7       0.2       0.4
 6 H  s               0.6       0.0       1.8       2.2       0.4       0.0
 7 H  s               0.2       2.8       0.0       2.9       3.0       0.1
 8 H  s               0.6       3.2       3.5       1.7       1.7       0.0
 9 H  s               0.0       0.9       2.4       1.5       1.7       2.0
10 H  s               0.6       1.7       0.1       0.4       0.7       2.7
11 H  s               0.5       4.0       0.7       1.8       0.4       1.2
12 H  s               3.5       0.6       1.0       1.2       0.8       1.2

                     54        55        56        57        58        59   
                   1.39323   1.41984   1.64397   1.72276   1.79315   1.84084
                   0.00000   0.00000   0.00000   0.00000   0.00000   0.00000
                  --------  --------  --------  --------  --------  --------
 0 C  s               0.1       0.1       0.7       0.1       0.2       1.2
 0 C  pz              0.3       0.0       0.2       0.0       0.9       0.7
 0 C  px              0.2       0.1       1.0       0.3       0.0       0.3
 0 C  py              0.1       0.3       0.2       0.1       0.1       1.5
 0 C  dz2             9.7       0.0       0.0       4.5       9.0       0.0
 0 C  dxz             1.7       1.2       7.3       0.7       7.0       7.3
 0 C  dyz             0.9      15.1      11.8       4.4       0.0      30.5
 0 C  dx2y2           3.2       5.6      15.8       0.6       4.5       0.1
 0 C  dxy             5.9       0.1       4.7       6.0       0.8       0.3
 1 C  s               0.1       0.0       0.1       0.4       0.3       1.6
 1 C  pz              0.1       0.2       0.6       3.4       1.6       1.4
 1 C  px              0.0       0.0       3.6       2.2       1.4       0.3
 1 C  py              0.0       0.3       0.0       1.4       3.5       1.9
 1 C  dz2             8.0       0.3       2.0      10.7       1.4       0.0
 1 C  dxz             4.6       8.9       0.9       1.0       2.7       7.5
 1 C  dyz             0.8      21.0       3.1       1.8       1.2      27.8
 1 C  dx2y2           9.9       6.9       1.0       0.8       3.0       0.9
 1 C  dxy            13.7       0.8       1.9       1.1      16.2       0.1
 2 C  s               0.0       0.2       0.6       0.3       0.5       0.0
 2 C  pz              0.2       1.2       0.8       0.8       0.0       0.4
 2 C  px              0.4       0.1       1.0       1.9       0.7       0.1
 2 C  py              0.4       0.5       0.4       0.0       2.4       0.0
 2 C  dz2             6.5       0.0       1.1      19.6       0.0       0.8
 2 C  dxz             2.6       4.1       5.4       0.6       4.0       6.6
 2 C  dyz             1.6      15.6      17.3       9.6       0.1       0.8
 2 C  dx2y2           9.1       0.8       9.0       5.4       0.1       0.0
 2 C  dxy             9.9       3.9       1.8       0.0      28.6       0.4
 3 N  s               1.4       0.2       0.4       0.5       0.2       0.4
 3 N  pz              0.4       0.0       0.1       0.2       0.4       0.4
 3 N  px              1.7       0.4       0.3       0.5       0.2       0.3
 3 N  py              0.1       3.3       0.6       0.1       0.0       0.0
 3 N  dz2             2.2       0.0       0.0       3.6       0.7       0.5
 3 N  dxz             0.3       0.3       0.1       5.5       1.1       0.7
 3 N  dyz             0.0       4.5       3.6       5.9       1.9       0.2
 3 N  dx2y2           0.6       1.3       0.5       2.6       0.4       0.0
 3 N  dxy             1.6       0.5       1.3       0.3       0.5       0.1
 4 H  s               0.2       0.0       0.1       0.0       0.0       1.2
 5 H  s               0.3       0.0       0.1       0.0       0.2       0.6
 6 H  s               0.0       0.5       0.0       0.1       0.2       0.0
 7 H  s               0.0       0.3       0.0       0.5       2.4       1.4
 8 H  s               0.0       0.2       0.0       2.1       0.5       0.7
 9 H  s               0.3       0.0       0.0       0.0       1.2       0.0
10 H  s               0.0       0.4       0.3       0.0       0.1       0.6
11 H  s               0.2       0.6       0.2       0.1       0.1       0.0
12 H  s               0.8       0.1       0.1       0.2       0.0       0.0

                     60        61        62        63        64        65   
                   1.91880   1.94728   1.99720   2.05099   2.11706   2.20159
                   0.00000   0.00000   0.00000   0.00000   0.00000   0.00000
                  --------  --------  --------  --------  --------  --------
 0 C  s               0.0       0.2       0.0       0.0       0.0       0.0
 0 C  pz              1.3       0.2       0.4       0.1       0.4       0.1
 0 C  px              0.9       0.5       0.1       1.7       0.1       0.0
 0 C  py              0.4       0.0       1.8       0.4       0.2       0.1
 0 C  dz2             0.7       0.8       0.0      19.3       4.2      25.2
 0 C  dxz            10.8       5.2       3.2       1.8       4.2       1.9
 0 C  dyz             1.6       0.2      10.6       0.3       0.4       0.0
 0 C  dx2y2           9.6       2.6       6.1       0.0      17.2       4.1
 0 C  dxy             9.6       5.4      10.3      15.1       1.3       7.4
 1 C  s               0.1       1.7       0.2       0.3       0.0       0.0
 1 C  pz              1.0       0.1       0.0       0.2       0.7       0.2
 1 C  px              0.4       0.1       0.1       0.0       0.4       0.0
 1 C  py              0.1       0.2       0.2       0.2       0.3       0.2
 1 C  dz2             1.6       0.3       0.7       0.0      16.0      28.6
 1 C  dxz             5.6       5.7       5.1       0.1      12.6       0.3
 1 C  dyz             0.1       0.1       4.5       0.0       2.4       0.1
 1 C  dx2y2           5.6       7.7       0.4       2.4       7.1       3.6
 1 C  dxy            16.4       0.1       1.4       0.3       0.7       7.2
 2 C  s               0.5       0.6       0.4       0.0       0.1       0.1
 2 C  pz              0.1       2.9       0.5       0.2       0.1       0.0
 2 C  px              0.5       1.1       0.5       0.1       0.3       0.0
 2 C  py              2.1       0.5       0.3       1.6       0.1       0.1
 2 C  dz2             8.8       1.3      10.7       4.7       0.8       0.4
 2 C  dxz             0.2      12.9      14.1       1.5       0.0       0.5
 2 C  dyz             0.0      18.9       0.0       0.2       0.0       0.8
 2 C  dx2y2           3.0       1.4       3.6      25.1       0.3       1.6
 2 C  dxy             5.8       7.7       0.5       0.4       0.5       0.0
 3 N  s               0.6       0.3       1.1       0.5       0.0       0.1
 3 N  pz              0.2       1.0       1.3       0.0       0.0       0.1
 3 N  px              0.4       0.1       0.5       0.1       0.0       0.2
 3 N  py              0.1       0.0       0.2       0.6       0.0       0.2
 3 N  dz2             0.8       3.5       5.5       0.3       6.1       0.2
 3 N  dxz             3.0       1.7       2.9       0.1       1.9       0.2
 3 N  dyz             0.0       0.2       6.6       0.3       8.5       1.0
 3 N  dx2y2           1.0       1.2       0.0       3.7       1.0       3.0
 3 N  dxy             0.2       5.9       0.0       5.9       1.2       4.1
 4 H  s               0.5       0.1       2.8       0.0       2.3       1.9
 5 H  s               1.6       0.0       0.5       2.2       2.0       2.1
 6 H  s               0.3       0.3       1.7       4.3       0.1       0.0
 7 H  s               0.0       0.7       0.0       0.0       2.3       2.1
 8 H  s               0.8       0.3       0.0       0.0       4.0       1.9
 9 H  s               3.0       0.1       1.2       3.8       0.0       0.2
10 H  s               0.1       6.1       0.0       1.3       0.0       0.0
11 H  s               0.0       0.0       0.0       0.5       0.0       0.1
12 H  s               0.1       0.0       0.1       0.2       0.0       0.1

                     66        67        68        69        70        71   
                   2.22706   2.27915   2.35061   2.46482   2.49576   2.58965
                   0.00000   0.00000   0.00000   0.00000   0.00000   0.00000
                  --------  --------  --------  --------  --------  --------
 0 C  s               0.0       0.1       0.0       0.1       1.5       0.3
 0 C  pz              0.1       0.2       0.0       0.0       1.4       0.5
 0 C  px              0.4       0.1       0.0       0.0       1.0       0.5
 0 C  py              0.3       0.2       0.0       0.1       0.5       0.1
 0 C  dz2             1.9       0.0       6.7       0.9       1.2       0.4
 0 C  dxz             9.1       5.7       0.7       0.1      11.1       3.9
 0 C  dyz             0.1       1.2       2.6       2.1       6.6       0.2
 0 C  dx2y2           7.6       6.5       1.0       0.9       0.0       1.4
 0 C  dxy            10.2       0.3       0.4       0.5       4.1       0.9
 1 C  s               0.1       1.4       0.2       0.4       1.2       0.2
 1 C  pz              0.3       0.5       0.2       0.1       1.5       0.5
 1 C  px              0.1       0.4       0.0       0.2       0.6       2.9
 1 C  py              0.3       1.6       0.0       0.1       0.4       0.1
 1 C  dz2             2.4       0.3       2.0       0.3       0.4       7.8
 1 C  dxz             0.2       0.1       0.4       1.6      22.2       0.1
 1 C  dyz             4.3      13.2       0.3       0.0       2.6       4.7
 1 C  dx2y2           6.2       4.6      13.0      11.2       0.8       1.6
 1 C  dxy             0.2       5.8       1.1       0.8       1.9      16.3
 2 C  s               0.1       0.9       0.1       0.7       0.1       1.5
 2 C  pz              0.1       0.2       0.2       0.4       0.2       0.0
 2 C  px              0.0       0.8       0.2       0.7       0.2       1.0
 2 C  py              0.0       1.1       0.3       0.1       0.0       0.3
 2 C  dz2             1.2       0.4       5.3       1.9       2.5      10.6
 2 C  dxz             0.0      13.5       1.4       0.0       1.8       2.5
 2 C  dyz             1.4       0.8      14.3       1.8       1.0       0.1
 2 C  dx2y2           2.4       4.0       7.9       0.3       0.3      11.7
 2 C  dxy             0.2       2.3       0.4      15.7       0.3       8.2
 3 N  s               1.7       0.5       0.3       1.6       0.1       0.0
 3 N  pz              0.2       0.1       0.0       0.0       0.1       0.1
 3 N  px              0.5       0.7       0.1       0.0       0.5       0.2
 3 N  py              0.3       0.1       0.8       0.2       1.1       0.1
 3 N  dz2             0.7       0.5       0.0      21.8       6.1      15.2
 3 N  dxz             6.8       2.4       4.7       8.2       9.5       1.7
 3 N  dyz             4.2      11.7      18.3      22.6       0.6       1.8
 3 N  dx2y2          10.3       2.0       6.5       2.0       6.1       1.1
 3 N  dxy            18.6      10.7       6.6       0.0       6.3       0.0
 4 H  s               0.9       0.8       0.1       0.0       0.1       0.1
 5 H  s               1.1       0.2       0.3       0.0       0.2       0.0
 6 H  s               2.4       0.3       0.4       0.1       0.2       0.1
 7 H  s               0.1       1.3       0.3       0.6       0.1       0.0
 8 H  s               0.6       0.1       0.0       0.0       0.7       0.2
 9 H  s               0.0       0.8       1.2       0.1       0.0       0.2
10 H  s               0.1       0.4       1.3       0.1       0.0       0.5
11 H  s               1.2       0.2       0.2       0.5       1.9       0.1
12 H  s               0.9       1.3       0.0       1.1       0.9       0.2

                     72        73   
                   2.62710   2.87456
                   0.00000   0.00000
                  --------  --------
 0 C  s               0.2       0.0
 0 C  pz              0.3       0.0
 0 C  px              0.2       0.0
 0 C  dz2             0.3       0.0
 0 C  dxz             1.8       0.0
 0 C  dyz             1.1       0.1
 0 C  dxy             0.9       0.1
 1 C  s               0.1       0.1
 1 C  px              0.3       0.5
 1 C  dz2             0.5       0.6
 1 C  dxz             6.9       0.4
 1 C  dyz             0.1       0.1
 1 C  dx2y2           0.0       0.3
 1 C  dxy             1.0       0.6
 2 C  s               0.1       1.8
 2 C  pz              0.4       2.7
 2 C  px              0.1       2.0
 2 C  dz2             0.6       7.4
 2 C  dxz             1.0      12.8
 2 C  dyz             4.1       0.1
 2 C  dx2y2           0.1       0.3
 2 C  dxy             0.0       0.8
 3 N  s               0.1       2.2
 3 N  pz              0.1       2.6
 3 N  px              0.3       2.5
 3 N  py              1.9       0.1
 3 N  dz2             0.0      22.5
 3 N  dxz             0.0      33.1
 3 N  dyz             2.0       0.7
 3 N  dx2y2          40.7       2.7
 3 N  dxy            24.4       1.2
11 H  s               5.0       0.4
12 H  s               4.5       0.8


                      *****************************
                      * MAYER POPULATION ANALYSIS *
                      *****************************

  NA   - Mulliken gross atomic population
  ZA   - Total nuclear charge
  QA   - Mulliken gross atomic charge
  VA   - Mayer's total valence
  BVA  - Mayer's bonded valence
  FA   - Mayer's free valence

  ATOM       NA         ZA         QA         VA         BVA        FA
  0 C      6.2714     6.0000    -0.2714     4.0020     4.0020    -0.0000
  1 C      6.1988     6.0000    -0.1988     4.1481     4.1481    -0.0000
  2 C      6.0758     6.0000    -0.0758     4.0884     4.0884    -0.0000
  3 N      7.4609     7.0000    -0.4609     2.9671     2.9671    -0.0000
  4 H      0.9092     1.0000     0.0908     0.9579     0.9579     0.0000
  5 H      0.8886     1.0000     0.1114     0.9853     0.9853     0.0000
  6 H      0.9033     1.0000     0.0967     0.9480     0.9480     0.0000
  7 H      0.9212     1.0000     0.0788     0.9496     0.9496     0.0000
  8 H      0.9149     1.0000     0.0851     0.9469     0.9469     0.0000
  9 H      0.9228     1.0000     0.0772     0.9534     0.9534    -0.0000
 10 H      0.9338     1.0000     0.0662     0.9388     0.9388     0.0000
 11 H      0.8017     1.0000     0.1983     0.9174     0.9174     0.0000
 12 H      0.7974     1.0000     0.2026     0.9131     0.9131     0.0000

  Mayer bond orders larger than 0.100000
B(  0-C ,  1-C ) :   1.1487 B(  0-C ,  4-H ) :   0.9564 B(  0-C ,  5-H ) :   0.9476 
B(  0-C ,  6-H ) :   0.9543 B(  1-C ,  2-C ) :   1.1230 B(  1-C ,  7-H ) :   0.9288 
B(  1-C ,  8-H ) :   0.9283 B(  2-C ,  3-N ) :   1.1006 B(  2-C ,  9-H ) :   0.9282 
B(  2-C , 10-H ) :   0.9237 B(  3-N , 11-H ) :   0.9034 B(  3-N , 12-H ) :   0.9056 


-------
TIMINGS
-------

Total SCF time: 0 days 0 hours 0 min 3 sec 

Total time                  ....       3.174 sec
Sum of individual times     ....       2.866 sec  ( 90.3%)

SCF preparation             ....       0.134 sec  (  4.2%)
Fock matrix formation       ....       2.211 sec  ( 69.7%)
  Startup                   ....       0.043 sec  (  1.9% of F)
  Split-RI-J                ....       0.462 sec  ( 20.9% of F)
  XC integration            ....       1.277 sec  ( 57.8% of F)
    Basis function eval.    ....       0.354 sec  ( 27.7% of XC)
    Density eval.           ....       0.108 sec  (  8.5% of XC)
    XC-Functional eval.     ....       0.126 sec  (  9.9% of XC)
    XC-Potential eval.      ....       0.197 sec  ( 15.4% of XC)
Diagonalization             ....       0.000 sec  (  0.0%)
Density matrix formation    ....       0.121 sec  (  3.8%)
Total Energy calculation    ....       0.031 sec  (  1.0%)
Population analysis         ....       0.040 sec  (  1.3%)
Orbital Transformation      ....       0.035 sec  (  1.1%)
Orbital Orthonormalization  ....       0.000 sec  (  0.0%)
DIIS solution               ....       0.230 sec  (  7.3%)
  MO trafo                  ....       0.000 sec  (  0.0 % of DIIS)
  Orb grad                  ....       0.000 sec  (  0.0 % of DIIS)
  Energy W gradient         ....       0.000 sec  (  0.0 % of DIIS)
  DIIS error                ....       0.001 sec  (  0.3 % of DIIS)
  DIIS work                 ....       0.198 sec  ( 86.1 % of DIIS)
  Form Q                    ....       0.000 sec  (  0.0 % of DIIS)
  Form QpQm                 ....       0.000 sec  (  0.0 % of DIIS)
  Exp/Cayley                ....       0.000 sec  (  0.0 % of DIIS)
  Orb update                ....       0.000 sec  (  0.0 % of DIIS)
  Wake-sleep                ....       0.014 sec  (  6.2 % of DIIS)
SOSCF solution              ....       0.063 sec  (  2.0%)
  MO trafo                  ....       0.034 sec  ( 53.9 % of SOSCF)
  Orb grad                  ....       0.001 sec  (  1.9 % of SOSCF)
  Rot update                ....       0.016 sec  ( 25.7 % of SOSCF)
  Step                      ....       0.012 sec  ( 18.3 % of SOSCF)
Finished LeanSCF after   3.2 sec

Maximum memory used throughout the entire LEANSCF-calculation: 7.7 MB


-------------------------------------------------------------------------------
                          DFT DISPERSION CORRECTION                            
                                                                               
                                DFTD4 V3.4.0                                   
-------------------------------------------------------------------------------
The PBE functional is recognized
Active option DFTDOPT                   ...         5   

-------------------------   ----------------
Dispersion correction           -0.007399331
-------------------------   ----------------

------------------   -----------------
gCP correction             0.057323465
------------------   -----------------

-------------------------   --------------------
FINAL SINGLE POINT ENERGY      -174.032473852741
-------------------------   --------------------


------------------------------------------------------------------------------
                              ORCA PROPERTY CALCULATIONS
------------------------------------------------------------------------------

GBWName                                 ... sp.gbw
Number of atoms                         ...     13
Number of basis functions               ...     74
Max core memory                         ...   1024 MB

Electric properties:
Dipole moment                           ... YES
Quadrupole moment                       ...  NO
Static polarizability (Dipole/Dipole)   ...  NO
Static polarizability (Dipole/Quad.)    ...  NO
Static polarizability (Quad./Quad.)     ...  NO
Static polarizability (Velocity)        ...  NO

Atomic electric properties:
Dipole moment                           ...  NO
Quadrupole moment                       ...  NO
Static polarizability                   ...  NO

Choice of electric origin               ... Center of mass
Position of electric origin             ...    -0.000002     0.000000    -0.000001

General magnetic properties:
Magnetizability                         ...  NO

EPR properties:
g-Tensor (aka g-matrix)                 ...  NO
Zero-Field splitting spin-orbit         ...  NO
Zero-field splitting spin-spin          ...  NO
Hyperfine couplings                     ...  NO (   0 nuclei)
Quadrupole couplings                    ...  NO (   0 nuclei)
Contact density                         ...  NO (   0 nuclei)

NMR properties:
Chemical shifts                         ...  NO (   0 nuclei)
Spin-rotation constants                 ...  NO (   0 nuclei)
Spin-spin couplings                     ...  NO (   0 nuclei,    0 pairs)

Choice of magnetic origin               ... GIAO
Position of magnetic origin             ...     0.000000     0.000000     0.000000

Properties with geometric perturbations:
SCF Hessian                             ...  NO
IR spectrum                             ...  NO
VCD spectrum                            ...  NO
X-ray spectroscopy properties:
SCF XES/XAS/RIXS spectra                ...  NO


-------------
DIPOLE MOMENT
-------------

Method             : SCF
Type of density    : Electron Density
Multiplicity       :   1
Irrep              :   0
Energy             :  -174.0823979866784157 Eh
Relativity type    : 
Basis              : AO
                                X                 Y                 Z
Electronic contribution:      1.631826813      -0.014266415       0.121119450
Nuclear contribution   :     -1.237515095       0.222568942      -0.436039158
                        -----------------------------------------
Total Dipole Moment    :      0.394311718       0.208302527      -0.314919708
                        -----------------------------------------
Magnitude (a.u.)       :      0.545935982
Magnitude (Debye)      :      1.387658986



--------------------
Rotational spectrum 
--------------------
 
Rotational constants in cm-1:             0.465477             0.167227             0.143390 
Rotational constants in MHz :         13954.657581          5013.347602          4298.726593 

Dipole components along the rotational axes: 
x,y,z [a.u.] :     0.380458     0.349895     0.175702 
x,y,z [Debye]:     0.967048     0.889362     0.446599 

 

Dipole moment calculation done in   0.0 sec 

Maximum memory used throughout the entire PROP-calculation: 5.0 MB

--------------------------------
SUGGESTED CITATIONS FOR THIS RUN
--------------------------------

Below you find a list of papers that are relevant to this ORCA run
We neither can nor want to force you to cite these papers, but we appreciate if you do
You receive ORCA, which is the product of decades of hard work by many enthusiastic individuals, for free
The only thing we kindly ask in return is that you cite our papers,
We deeply appreciate it, if you show your appreciation for ORCA by not just citing the generic ORCA reference.

Please note that relegating all ORCA citations to the supporting information does *not* help us.
SI sections are not indexed - citations you put there will not count into any citation statistics
But we need these citations in order to attract the funding resources that allow us to do what we are doing

Therefore, if you are a happy ORCA user, please consider citing a few of the papers listed below in the main body of your paper

In addition to the list printed below, the program has created the file sp.bibtex that contains the list in bibtex format
You can import this file easily into all common literature databanks and citation aid programs


List of essential papers. We consider these as the minimum necessary citations

  1. Neese,F.
     Software update: the ORCA program system, version 5.0
     WIRES Comput. Molec. Sci., 2022 12(1)e1606
     doi.org/10.1002/wcms.1606

List of papers to cite with high priority. The work reported in these papers was absolutely
necessary for this run to complete.
Our perspective: the developers of density functionals and basis sets usually get cited in chemistry papers
Good! But without the algorithms to do something with them, the functionals or basis sets would not do anything.
Hence, in our opinion, the algorithm design and method developments papers are equally worthy of getting cited

  1. Neese,F.
     An improvement of the resolution of the identity approximation for the formation of the Coulomb matrix
     J. Comp. Chem., 2003 24(14)1740-1747
     doi.org/10.1002/jcc.10318
  2. Neese,F.
     The SHARK Integral Generation and Digestion System
     J. Comp. Chem., 2022  1-16
     doi.org/10.1002/jcc.26942
  3. Caldeweyher,E.; Bannwarth,C.; Grimme,S.
     Extension of the D3 dispersion coefficient model
     J. Chem. Phys., 2017 147 034112-XXXX
     doi.org/10.1063/1.4993215
  4. Caldeweyher,E.; Ehlert,S.; Hansen,A.; Neugebauer,H.; Spicher,S.; Bannwarth,C.; Grimme,S.
     A generally applicable atomic-charge dependent London dispersion correction
     J. Chem. Phys., 2019 150 154122-XXXX
     doi.org/10.1063/1.5090222
  5. Caldeweyher,E.; Mewes,J.; Ehlert,S.; Grimme,S.
     Extension and evaluation of the D4 London-dispersion model for periodic systems
     Phys. Chem. Chem. Phys., 2020 22(16)8499-8512
     doi.org/10.1039/D0CP00502A

List of suggested additional citations. These are papers that are important in the 'surrounding' of 
of this run, or papers that preceded the highly important papers. If you like your results we are grateful for a citation.

  1. Neese,F.
     The ORCA program system
     WIRES Comput. Molec. Sci., 2012 2(1)73-78
     doi.org/10.1002/wcms.81
  2. Neese,F.
     Software update: the ORCA program system, version 4.0
     WIRES Comput. Molec. Sci., 2018 8(1)1-6
     doi.org/10.1002/wcms.1327
  3. Neese,F.; Wennmohs,F.; Becker,U.; Riplinger,C.
     The ORCA quantum chemistry program package
     J. Chem. Phys., 2020 152 Art. No. L224108
     doi.org/10.1063/5.0004608

List of optional additional citations

  1. Neese,F.
     Approximate second-order SCF convergence for spin unrestricted wavefunctions
     Chem. Phys. Lett., 2000 325(1-3)93-98
     doi.org/10.1016/s0009-2614(00)00662-x

Timings for individual modules:

Sum of individual times          ...        4.212 sec (=   0.070 min)
Startup calculation              ...        0.457 sec (=   0.008 min)  10.8 %
SCF iterations                   ...        3.668 sec (=   0.061 min)  87.1 %
Property calculations            ...        0.088 sec (=   0.001 min)   2.1 %
                             ****ORCA TERMINATED NORMALLY****
TOTAL RUN TIME: 0 days 0 hours 0 minutes 4 seconds 961 msec
