
                                 *****************
                                 * O   R   C   A *
                                 *****************

                                            #,                                       
                                            ###                                      
                                            ####                                     
                                            #####                                    
                                            ######                                   
                                           ########,                                 
                                     ,,################,,,,,                         
                               ,,#################################,,                 
                          ,,##########################################,,             
                       ,#########################################, ''#####,          
                    ,#############################################,,   '####,        
                  ,##################################################,,,,####,       
                ,###########''''           ''''###############################       
              ,#####''   ,,,,##########,,,,          '''####'''          '####       
            ,##' ,,,,###########################,,,                        '##       
           ' ,,###''''                  '''############,,,                           
         ,,##''                                '''############,,,,        ,,,,,,###''
      ,#''                                            '''#######################'''  
     '                                                          ''''####''''         
             ,#######,   #######,   ,#######,      ##                                
            ,#'     '#,  ##    ##  ,#'     '#,    #''#        ,####,   ,####,        
            ##       ##  ##   ,#'  ##            #'  '#       #'       #'  '#        
            ##       ##  #######   ##           ,######,      #####,   #    #        
            '#,     ,#'  ##    ##  '#,     ,#' ,#      #,     #,   #   #,  ,#        
             '#######'   ##     ##  '#######'  #'      '#     '####' # '####'        



                #########################################################
                #                        -***-                          #
                #          Department of theory and spectroscopy        #
                #                                                       #
                #                      Frank Neese                      #
                #                                                       #
                #     Directorship, Architecture, Infrastructure        #
                #                    SHARK, DRIVERS                     #
                #        Core code/Algorithms in most modules           #
                #                                                       #
                #        Max Planck Institute fuer Kohlenforschung      #
                #                Kaiser Wilhelm Platz 1                 #
                #                 D-45470 Muelheim/Ruhr                 #
                #                      Germany                          #
                #                                                       #
                #                  All rights reserved                  #
                #                        -***-                          #
                #########################################################


                         Program Version 6.0.0  -   RELEASE  -


 With contributions from (in alphabetic order):
   Daniel Aravena         : Magnetic Suceptibility
   Michael Atanasov       : Ab Initio Ligand Field Theory (pilot matlab implementation)
   Alexander A. Auer      : GIAO ZORA, VPT2 properties, NMR spectrum
   Ute Becker             : All parallelization in ORCA, NUMFREQ, NUMCALC
   Giovanni Bistoni       : ED, misc. LED, open-shell LED, HFLD
   Martin Brehm           : Molecular dynamics
   Dmytro Bykov           : pre 5.0 version of the SCF Hessian
   Marcos Casanova-Páez   : Triplet and SCS-CIS(D). UHF-(DLPNO)-IP/EA/STEOM-CCSD. UHF-CVS-IP/STEOM-CCSD
   Vijay G. Chilkuri      : MRCI spin determinant printing, contributions to CSF-ICE
   Pauline Colinet        : FMM embedding
   Dipayan Datta          : RHF DLPNO-CCSD density
   Achintya Kumar Dutta   : EOM-CC, STEOM-CC
   Nicolas Foglia         : Exact transition moments, OPA infrastructure, MCD improvements
   Dmitry Ganyushin       : Spin-Orbit,Spin-Spin,Magnetic field MRCI
   Miquel Garcia          : C-PCM and meta-GGA Hessian, CCSD/C-PCM, Gaussian charge scheme
   Tiago L. C. Gouveia    : GS-ROHF, GS-ROCIS
   Yang Guo               : DLPNO-NEVPT2, F12-NEVPT2, CIM, IAO-localization
   Andreas Hansen         : Spin unrestricted coupled pair/coupled cluster methods
   Ingolf Harden          : AUTO-CI MPn and infrastructure 
   Benjamin Helmich-Paris : MC-RPA, TRAH-(SCF,CASSCF), AVAS, COSX integrals, SCF dyn. polar.
   Lee Huntington         : MR-EOM, pCC
   Robert Izsak           : Overlap fitted RIJCOSX, COSX-SCS-MP3, EOM
   Riya Kayal             : Wick's Theorem for AUTO-CI, AUTO-CI UHF-CCSDT
   Emily Kempfer          : AUTO-CI, RHF CISDT and CCSDT
   Christian Kollmar      : KDIIS, OOCD, Brueckner-CCSD(T), CCSD density, CASPT2, CASPT2-K, improved NEVPT2
   Axel Koslowski         : Symmetry handling
   Simone Kossmann        : Meta GGA functionals, TD-DFT gradient, OOMP2, (MP2 Hessian; deprecated post 5.0)
   Lucas Lang             : DCDCAS
   Marvin Lechner         : AUTO-CI (C++ implementation), FIC-MRCC
   Spencer Leger          : CASSCF response
   Dagmar Lenk            : GEPOL surface, SMD, ORCA-2-JSON
   Dimitrios Liakos       : Extrapolation schemes; Compound Job, initial MDCI parallelization
   Dimitrios Manganas     : Further ROCIS development; embedding schemes. LFT, Crystal Embedding
   Dimitrios Pantazis     : SARC Basis sets
   Anastasios Papadopoulos: AUTO-CI, single reference methods and gradients
   Taras Petrenko         : pre 6.0 DFT Hessian and TD-DFT gradient, (ASA, deprecated), ECA, 1-Electron XAS/XES, NRVS
   Peter Pinski           : DLPNO-MP2, DLPNO-MP2 Gradient
   Christoph Reimann      : Effective Core Potentials
   Marius Retegan         : Local ZFS, SOC
   Christoph Riplinger    : Optimizer, TS searches, QM/MM, DLPNO-CCSD(T), (RO)-DLPNO pert. Triples
   Michael Roemelt        : Original ROCIS implementation
   Masaaki Saitow         : Open-shell DLPNO-CCSD energy and density
   Barbara Sandhoefer     : DKH picture change effects
   Kantharuban Sivalingam : CASSCF convergence/infrastructure, NEVPT2 and variants, FIC-MRCI
   Bernardo de Souza      : ESD, SOC TD-DFT
   Georgi Stoychev        : AutoAux, RI-MP2 NMR, DLPNO-MP2 response, X2C
   Van Anh Tran           : RI-MP2 g-tensors
   Willem Van den Heuvel  : Paramagnetic NMR
   Zikuan Wang            : NOTCH, Electric field optimization 
   Frank Wennmohs         : Technical directorship and infrastructure
   Hang Xu                : AUTO-CI-Response properties 


 We gratefully acknowledge several colleagues who have allowed us to
 interface, adapt or use parts of their codes:
   Stefan Grimme, W. Hujo, H. Kruse, P. Pracht,  : VdW corrections, initial TS optimization,
                  C. Bannwarth, S. Ehlert,         DFT functionals, gCP, sTDA/sTD-DF
                  L. Wittmann, M. Mueller
   Ed Valeev, F. Pavosevic, A. Kumar             : LibInt (2-el integral package), F12 methods
   Garnet Chan, S. Sharma, J. Yang, R. Olivares  : DMRG
   Ulf Ekstrom                                   : XCFun DFT Library
   Mihaly Kallay                                 : mrcc  (arbitrary order and MRCC methods)
   Frank Weinhold                                : gennbo (NPA and NBO analysis)
   Simon Mueller                                 : openCOSMO-RS
   Christopher J. Cramer and Donald G. Truhlar   : smd solvation model
   Lars Goerigk                                  : TD-DFT with DH, B97 family of functionals
   V. Asgeirsson, H. Jonsson                     : NEB implementation
   FAccTs GmbH                                   : IRC, NEB, NEB-TS, DLPNO-Multilevel, CI-OPT
                                                   MM, QMMM, 2- and 3-layer-ONIOM, Crystal-QMMM,
                                                   LR-CPCM, SF, NACMEs, symmetry and pop. for TD-DFT,
                                                   nearIR, NL-DFT gradient (VV10), updates on ESD,
                                                   ML-optimized integration grids, MBIS, APM,
                                                   GOAT, DOCKER, SOLVATOR, interface openCOSMO-RS
   S Lehtola, MJT Oliveira, MAL Marques          : LibXC Library
   Liviu Ungur et al                             : ANISO software


 Your calculation uses the libint2 library for the computation of 2-el integrals
 For citations please refer to: http://libint.valeyev.net

 Your ORCA version has been built with support for libXC version: 6.2.2
 For citations please refer to: https://libxc.gitlab.io

 This ORCA versions uses:
   CBLAS   interface :  Fast vector & matrix operations
   LAPACKE interface :  Fast linear algebra routines
   SCALAPACK package :  Parallel linear algebra routines
   Shared memory     :  Shared parallel matrices
   BLAS/LAPACK       :  OpenBLAS 0.3.27  USE64BITINT DYNAMIC_ARCH NO_AFFINITY SkylakeX SINGLE_THREADED
        Core in use  :  SkylakeX
   Copyright (c) 2011-2014, The OpenBLAS Project


Your calculation utilizes the geometrical counterpoise correction gCP
Please cite in your paper:
H.Kruse, S. Grimme J.Chem.Phys., 136, (2012), 154101 
   

Your calculation utilizes the atom-pairwise dispersion correction
based on EEQ partial charges (D4)


================================================================================

----- Orbital basis set information -----
Your calculation utilizes the basis: def2-mTZVPP
   Stefan Grimme, Andreas Hansen, Sebastian Ehlert, and Jan-Michael Mewes 
   J. Chem. Phys. 154, 064103 (2021). DOI: 10.1063/5.0040021

----- AuxJ basis set information -----
Your calculation utilizes the auxiliary basis: def2/J
   F. Weigend, Phys. Chem. Chem. Phys. 8, 1057 (2006).

================================================================================
                                        WARNINGS
                       Please study these warnings very carefully!
================================================================================

Using LibXC functional ID 497 : Re-regularized SCAN exchange by Furness et al
[ 1]  J. W. Furness, A. D. Kaplan, J. Ning, J. P. Perdew, and J. Sun.,  J. Phys. Chem. Lett. 11, 8208-8215 (2020)
[ 2]  J. W. Furness, A. D. Kaplan, J. Ning, J. P. Perdew, and J. Sun.,  J. Phys. Chem. Lett. 11, 9248-9248 (2020)
Using LibXC functional ID 498 : Re-regularized SCAN correlation by Furness et al
[ 1]  J. W. Furness, A. D. Kaplan, J. Ning, J. P. Perdew, and J. Sun.,  J. Phys. Chem. Lett. 11, 8208-8215 (2020)
[ 2]  J. W. Furness, A. D. Kaplan, J. Ning, J. P. Perdew, and J. Sun.,  J. Phys. Chem. Lett. 11, 9248-9248 (2020)
Using LibXC functional ID 497 : Re-regularized SCAN exchange by Furness et al
[ 1]  J. W. Furness, A. D. Kaplan, J. Ning, J. P. Perdew, and J. Sun.,  J. Phys. Chem. Lett. 11, 8208-8215 (2020)
[ 2]  J. W. Furness, A. D. Kaplan, J. Ning, J. P. Perdew, and J. Sun.,  J. Phys. Chem. Lett. 11, 9248-9248 (2020)
Using LibXC functional ID 498 : Re-regularized SCAN correlation by Furness et al
[ 1]  J. W. Furness, A. D. Kaplan, J. Ning, J. P. Perdew, and J. Sun.,  J. Phys. Chem. Lett. 11, 8208-8215 (2020)
[ 2]  J. W. Furness, A. D. Kaplan, J. Ning, J. P. Perdew, and J. Sun.,  J. Phys. Chem. Lett. 11, 9248-9248 (2020)

================================================================================
                                       INPUT FILE
================================================================================
NAME = sp_gas.inp
|  1> ! r2scan-3c def2/J RI DEFGRID2 scfconv6 printgap
|  2> %output
|  3>     printlevel normal
|  4> end
|  5> * xyz 0 1
|  6> C 1.5767553451 0.5053776256 -1.7221893688
|  7> C 2.9481759724 0.574152529 -1.8764953663
|  8> C 3.7729121555 0.4477620301 -0.7692117734
|  9> C 3.224668826 0.25402434 0.4962467902
| 10> C 1.8412563605 0.1940878846 0.6414672984
| 11> C 1.0058007089 0.3186653041 -0.467711781
| 12> C -0.4625385931 0.2500722253 -0.3070030199
| 13> C -1.1321766541 1.2223902983 0.4251015159
| 14> C -2.5059182488 1.1615236882 0.5867959023
| 15> C -3.2375756415 0.1205483623 0.0180464898
| 16> C -2.5736124773 -0.8591514817 -0.7169791304
| 17> C -1.1914697967 -0.7922523911 -0.8799256075
| 18> Cl -0.3878706083 -2.0321702747 -1.7606627118
| 19> Cl -3.4655001127 -2.1542024017 -1.4143295178
| 20> Cl -4.9436115209 0.0351595731 0.2215339898
| 21> Cl -3.3191097948 2.3729978107 1.4985578959
| 22> Cl 1.168039098 -0.0775562631 2.2084485949
| 23> Cl 4.2488754517 0.0841934061 1.8758367756
| 24> Cl 5.4862490915 0.5250347121 -0.9507955524
| 25> H 0.9330631404 0.6058262305 -2.5803234078
| 26> H 3.3868536272 0.7229310452 -2.848778211
| 27> H -0.5787858336 2.0346024931 0.8666990187
| 28> *
| 29> 
| 30>                          ****END OF INPUT****
================================================================================

                       ****************************
                       * Single Point Calculation *
                       ****************************

---------------------------------
CARTESIAN COORDINATES (ANGSTROEM)
---------------------------------
  C      1.576755    0.505378   -1.722189
  C      2.948176    0.574153   -1.876495
  C      3.772912    0.447762   -0.769212
  C      3.224669    0.254024    0.496247
  C      1.841256    0.194088    0.641467
  C      1.005801    0.318665   -0.467712
  C     -0.462539    0.250072   -0.307003
  C     -1.132177    1.222390    0.425102
  C     -2.505918    1.161524    0.586796
  C     -3.237576    0.120548    0.018046
  C     -2.573612   -0.859151   -0.716979
  C     -1.191470   -0.792252   -0.879926
  Cl    -0.387871   -2.032170   -1.760663
  Cl    -3.465500   -2.154202   -1.414330
  Cl    -4.943612    0.035160    0.221534
  Cl    -3.319110    2.372998    1.498558
  Cl     1.168039   -0.077556    2.208449
  Cl     4.248875    0.084193    1.875837
  Cl     5.486249    0.525035   -0.950796
  H      0.933063    0.605826   -2.580323
  H      3.386854    0.722931   -2.848778
  H     -0.578786    2.034602    0.866699

----------------------------
CARTESIAN COORDINATES (A.U.)
----------------------------
  NO LB      ZA    FRAG     MASS         X           Y           Z
   0 C     6.0000    0    12.011    2.979636    0.955025   -3.254466
   1 C     6.0000    0    12.011    5.571245    1.084991   -3.546062
   2 C     6.0000    0    12.011    7.129771    0.846148   -1.453600
   3 C     6.0000    0    12.011    6.093741    0.480036    0.937771
   4 C     6.0000    0    12.011    3.479470    0.366773    1.212198
   5 C     6.0000    0    12.011    1.900688    0.602190   -0.883847
   6 C     6.0000    0    12.011   -0.874071    0.472568   -0.580152
   7 C     6.0000    0    12.011   -2.139504    2.309983    0.803325
   8 C     6.0000    0    12.011   -4.735499    2.194962    1.108884
   9 C     6.0000    0    12.011   -6.118131    0.227803    0.034103
  10 C     6.0000    0    12.011   -4.863423   -1.623561   -1.354894
  11 C     6.0000    0    12.011   -2.251552   -1.497140   -1.662818
  12 Cl   17.0000    0    35.453   -0.732969   -3.840245   -3.327170
  13 Cl   17.0000    0    35.453   -6.548846   -4.070853   -2.672695
  14 Cl   17.0000    0    35.453   -9.342072    0.066442    0.418639
  15 Cl   17.0000    0    35.453   -6.272209    4.484316    2.831864
  16 Cl   17.0000    0    35.453    2.207274   -0.146560    4.173363
  17 Cl   17.0000    0    35.453    8.029211    0.159102    3.544818
  18 Cl   17.0000    0    35.453   10.367508    0.992172   -1.796743
  19 H     1.0000    0     1.008    1.763234    1.144846   -4.876105
  20 H     1.0000    0     1.008    6.400226    1.366142   -5.383411
  21 H     1.0000    0     1.008   -1.093747    3.844842    1.637824

--------------------------------
INTERNAL COORDINATES (ANGSTROEM)
--------------------------------
 C      0   0   0     0.000000000000     0.00000000     0.00000000
 C      1   0   0     1.381786837825     0.00000000     0.00000000
 C      2   1   0     1.386449164244   119.77986885     0.00000000
 C      3   2   1     1.392655886102   120.27891888   359.90464520
 C      4   3   2     1.392304357671   119.46671471   359.72121145
 C      1   2   3     1.390886302287   120.98530703     0.39448479
 C      6   1   2     1.478699638923   120.78857510   179.80141152
 C      7   6   1     1.389170478797   120.23004375   244.33003499
 C      8   7   6     1.384563392491   120.60061052   180.36597987
 C      9   8   7     1.393710179214   120.40075611     0.10703859
 C     10   9   8     1.393169598469   119.36342043   359.93547375
 C     11  10   9     1.393321726041   120.04615557   359.90841665
 Cl    12  11  10     1.720135419250   119.25473570   178.60057956
 Cl    11  10   9     1.720150575496   119.74965051   179.58738408
 Cl    10   9   8     1.720249060391   120.62628586   179.70860912
 Cl     9   8   7     1.720540604853   119.99180068   179.91411783
 Cl     5   4   3     1.726974930069   119.25816463   178.79890489
 Cl     4   3   2     1.726589205936   120.41164240   179.53345845
 Cl     3   2   1     1.724664370955   120.18388737   179.73051310
 H      1   2   3     1.077415242842   119.95868419   179.83881302
 H      2   1   3     1.076989815087   120.79398844   179.86335088
 H      8   7   6     1.077468516512   119.73774087     0.71396176

---------------------------
INTERNAL COORDINATES (A.U.)
---------------------------
 C      0   0   0     0.000000000000     0.00000000     0.00000000
 C      1   0   0     2.611198698946     0.00000000     0.00000000
 C      2   1   0     2.620009219025   119.77986885     0.00000000
 C      3   2   1     2.631738223527   120.27891888   359.90464520
 C      4   3   2     2.631073931063   119.46671471   359.72121145
 C      1   2   3     2.628394194746   120.98530703     0.39448479
 C      6   1   2     2.794337351893   120.78857510   179.80141152
 C      7   6   1     2.625151758255   120.23004375   244.33003499
 C      8   7   6     2.616445626862   120.60061052   180.36597987
 C      9   8   7     2.633730548772   120.40075611     0.10703859
 C     10   9   8     2.632708999212   119.36342043   359.93547375
 C     11  10   9     2.632996478660   120.04615557   359.90841665
 Cl    12  11  10     3.250584855641   119.25473570   178.60057956
 Cl    11  10   9     3.250613496794   119.74965051   179.58738408
 Cl    10   9   8     3.250799606275   120.62628586   179.70860912
 Cl     9   8   7     3.251350545463   119.99180068   179.91411783
 Cl     5   4   3     3.263509657979   119.25816463   178.79890489
 Cl     4   3   2     3.262780745003   120.41164240   179.53345845
 Cl     3   2   1     3.259143334036   120.18388737   179.73051310
 H      1   2   3     2.036019741484   119.95868419   179.83881302
 H      2   1   3     2.035215799537   120.79398844   179.86335088
 H      8   7   6     2.036120414130   119.73774087     0.71396176

---------------------
BASIS SET INFORMATION
---------------------
There are 3 groups of distinct atoms

 Group   1 Type C   : 11s6p1d contracted to 5s3p1d pattern {62111/411/1}
 Group   2 Type Cl  : 14s9p2d contracted to 5s4p2d pattern {73211/6111/11}
 Group   3 Type H   : 4s1p contracted to 2s1p pattern {31/1}

Atom   0C    basis set group =>   1
Atom   1C    basis set group =>   1
Atom   2C    basis set group =>   1
Atom   3C    basis set group =>   1
Atom   4C    basis set group =>   1
Atom   5C    basis set group =>   1
Atom   6C    basis set group =>   1
Atom   7C    basis set group =>   1
Atom   8C    basis set group =>   1
Atom   9C    basis set group =>   1
Atom  10C    basis set group =>   1
Atom  11C    basis set group =>   1
Atom  12Cl   basis set group =>   2
Atom  13Cl   basis set group =>   2
Atom  14Cl   basis set group =>   2
Atom  15Cl   basis set group =>   2
Atom  16Cl   basis set group =>   2
Atom  17Cl   basis set group =>   2
Atom  18Cl   basis set group =>   2
Atom  19H    basis set group =>   3
Atom  20H    basis set group =>   3
Atom  21H    basis set group =>   3
---------------------------------
AUXILIARY/J BASIS SET INFORMATION
---------------------------------
There are 3 groups of distinct atoms

 Group   1 Type C   : 12s5p4d2f1g contracted to 6s4p3d1f1g pattern {711111/2111/211/2/1}
 Group   2 Type Cl  : 14s5p5d2f1g contracted to 8s4p3d1f1g pattern {71111111/2111/311/2/1}
 Group   3 Type H   : 5s2p1d contracted to 3s1p1d pattern {311/2/1}

Atom   0C    basis set group =>   1
Atom   1C    basis set group =>   1
Atom   2C    basis set group =>   1
Atom   3C    basis set group =>   1
Atom   4C    basis set group =>   1
Atom   5C    basis set group =>   1
Atom   6C    basis set group =>   1
Atom   7C    basis set group =>   1
Atom   8C    basis set group =>   1
Atom   9C    basis set group =>   1
Atom  10C    basis set group =>   1
Atom  11C    basis set group =>   1
Atom  12Cl   basis set group =>   2
Atom  13Cl   basis set group =>   2
Atom  14Cl   basis set group =>   2
Atom  15Cl   basis set group =>   2
Atom  16Cl   basis set group =>   2
Atom  17Cl   basis set group =>   2
Atom  18Cl   basis set group =>   2
Atom  19H    basis set group =>   3
Atom  20H    basis set group =>   3
Atom  21H    basis set group =>   3

Checking for AutoStart:
The File: sp_gas.gbw exists
Trying to determine its content:
     ... Fine, the file contains calculation information
     ... Fine, the calculation information was read
     ... Fine, the file contains a basis set
     ... Fine, the basis set was read
     ... Fine, the file contains a geometry
     ... Fine, the geometry was read
     ... Fine, the file contains a set of orbitals
     ... Fine, the orbitals can be read
     => possible old guess file was deleted
     => GBW file was renamed to GES file
     => GES file is set as startup file
     => Guess is set to MORead
     ... now leaving AutoStart

------------------------------------------------------------------------------
                             ORCA STARTUP CALCULATIONS
                           -- RI-GTO INTEGRALS CHOSEN --
------------------------------------------------------------------------------
------------------------------------------------------------------------------
                   ___                                                        
                  /   \      - P O W E R E D   B Y -                         
                 /     \                                                     
                 |  |  |   _    _      __       _____    __    __             
                 |  |  |  | |  | |    /  \     |  _  \  |  |  /  |          
                  \  \/   | |  | |   /    \    | | | |  |  | /  /          
                 / \  \   | |__| |  /  /\  \   | |_| |  |  |/  /          
                |  |  |   |  __  | /  /__\  \  |    /   |      \           
                |  |  |   | |  | | |   __   |  |    \   |  |\   \          
                \     /   | |  | | |  |  |  |  | |\  \  |  | \   \       
                 \___/    |_|  |_| |__|  |__|  |_| \__\ |__|  \__/        
                                                                              
                      - O R C A' S   B I G   F R I E N D -                    
                                      &                                       
                       - I N T E G R A L  F E E D E R -                       
                                                                              
 v1 FN, 2020, v2 2021, v3 2022-2024                                           
------------------------------------------------------------------------------


----------------------
SHARK INTEGRAL PACKAGE
----------------------

Number of atoms                             ...     22
Number of basis functions                   ...    432
Number of shells                            ...    194
Maximum angular momentum                    ...      2
Integral batch strategy                     ... SHARK/LIBINT Hybrid
RI-J (if used) integral strategy            ... SPLIT-RIJ (Revised 2003 algorithm where possible)
Printlevel                                  ...      1
Contraction scheme used                     ... SEGMENTED contraction
Prescreening option                         ... SCHWARTZ
   Thresh                                   ... 1.000e-10
   Tcut                                     ... 1.000e-11
   Tpresel                                  ... 1.000e-11 
Coulomb Range Separation                    ... NOT USED
Exchange Range Separation                   ... NOT USED
Multipole approximations                    ... NOT USED
Finite Nucleus Model                        ... NOT USED
CABS basis                                  ... NOT available
Auxiliary Coulomb fitting basis             ... AVAILABLE
   # of basis functions in Aux-J            ...    978
   # of shells in Aux-J                     ...    314
   Maximum angular momentum in Aux-J        ...      4
Auxiliary J/K fitting basis                 ... NOT available
Auxiliary Correlation fitting basis         ... NOT available
Auxiliary 'external' fitting basis          ... NOT available

Checking pre-screening integrals            ... done (  0.0 sec) Dimension = 194
Check shell pair data                       ... done (  0.0 sec)
Shell pair information
Shell pair cut-off parameter TPreSel        ...   1.0e-11
Total number of shell pairs                 ...     18915
Shell pairs after pre-screening             ...     13352
Total number of primitive shell pairs       ...     83174
Primitive shell pairs kept                  ...     34831
          la=0 lb=0:   3299 shell pairs
          la=1 lb=0:   4938 shell pairs
          la=1 lb=1:   1829 shell pairs
          la=2 lb=0:   1740 shell pairs
          la=2 lb=1:   1302 shell pairs
          la=2 lb=2:    244 shell pairs

Calculating one electron integrals          ... done (  0.1 sec)
Calculating RI/J V-Matrix + Cholesky decomp.... done (  0.1 sec)
Calculating Nuclear repulsion               ... done (  0.0 sec) ENN=   2344.628597352129 Eh

Diagonalization of the overlap matrix:
Smallest eigenvalue                        ... 1.089e-05
Time for diagonalization                   ...    0.022 sec
Threshold for overlap eigenvalues          ... 1.000e-07
Number of eigenvalues below threshold      ... 0
Time for construction of square roots      ...    0.028 sec
Total time needed                          ...    0.060 sec

-------------------
DFT GRID GENERATION
-------------------

General Integration Accuracy     IntAcc      ... 4.388
Radial Grid Type                 RadialGrid  ... OptM3 with GC (2021)
Angular Grid (max. ang.)         AngularGrid ... 4 (Lebedev-302)
Angular grid pruning method      GridPruning ... 4 (adaptive)
Weight generation scheme         WeightScheme... mBecke (2022)
Basis function cutoff            BFCut       ... 1.0000e-10
Integration weight cutoff        WCut        ... 1.0000e-14
Partially contracted basis set               ... off
Rotationally invariant grid construction     ... off
Angular grids for H and He will be reduced by one unit

Total number of grid points                  ...   132263
Total number of batches                      ...     2078
Average number of points per batch           ...       63
Average number of grid points per atom       ...     6012
Initializing property integral containers    ... done (  0.0 sec)

SHARK setup successfully completed in   2.3 seconds

Maximum memory used throughout the entire STARTUP-calculation: 69.6 MB
-------------------------------------------------------------------------------
                                 ORCA GUESS
                   Start orbitals & Density for SCF / CASSCF
-------------------------------------------------------------------------------

------------
SCF SETTINGS
------------
Hamiltonian:
 Density Functional     Method          .... DFT(GTOs)
  Functional kind                       .... Exchange
  Functional name                       .... Re-regularized SCAN exchange by Furness et al
  Functional family                     .... MGGA
  Functional refs                              
    [ 0] J. W. Furness, A. D. Kaplan, J. Ning, J. P. Perdew, and J. Sun.,  J. Phys. Chem. Lett. 11, 8208-8215 (2020), doi: 10.1021/acs.jpclett.0c02405
    [ 1] J. W. Furness, A. D. Kaplan, J. Ning, J. P. Perdew, and J. Sun.,  J. Phys. Chem. Lett. 11, 9248-9248 (2020), doi: 10.1021/acs.jpclett.0c03077
  Functional external parameters        .... 6
    Parameter  0 _c1        =  6.670000e-01 : c1 parameter        
    Parameter  1 _c2        =  8.000000e-01 : c2 parameter        
    Parameter  2 _d         =  1.240000e+00 : d parameter         
    Parameter  3 _k1        =  6.500000e-02 : k1 parameter        
    Parameter  4 _eta       =  1.000000e-03 : eta parameter       
    Parameter  5 _dp2       =  3.610000e-01 : dp2 parameter       
  Functional kind                       .... Correlation
  Functional name                       .... Re-regularized SCAN correlation by Furness et al
  Functional family                     .... MGGA
  Functional refs                              
    [ 0] J. W. Furness, A. D. Kaplan, J. Ning, J. P. Perdew, and J. Sun.,  J. Phys. Chem. Lett. 11, 8208-8215 (2020), doi: 10.1021/acs.jpclett.0c02405
    [ 1] J. W. Furness, A. D. Kaplan, J. Ning, J. P. Perdew, and J. Sun.,  J. Phys. Chem. Lett. 11, 9248-9248 (2020), doi: 10.1021/acs.jpclett.0c03077
  Functional external parameters        .... 1
    Parameter  0 _eta       =  1.000000e-03 : Regularization parameter
 Gradients option       PostSCFGGA      .... off
 RI-approximation to the Coulomb term is turned on
   Number of AuxJ basis functions       .... 978


General Settings:
 Integral files         IntName         .... sp_gas
 Hartree-Fock type      HFTyp           .... RHF
 Total Charge           Charge          ....    0
 Multiplicity           Mult            ....    1
 Number of Electrons    NEL             ....  194
 Basis Dimension        Dim             ....  432
 Nuclear Repulsion      ENuc            ....   2344.6285973521 Eh

Convergence Acceleration:
 AO-DIIS                CNVDIIS         .... on
   Start iteration      DIISMaxIt       ....    12
   Startup error        DIISStart       ....  0.200000
   # of expansion vecs  DIISMaxEq       ....     5
   Bias factor          DIISBfac        ....   1.050
   Max. coefficient     DIISMaxC        ....  10.000
 MO-DIIS                CNVKDIIS        .... off
 Trust-Rad. Augm. Hess. CNVTRAH         .... auto
   Auto Start mean grad. ratio tolernc. ....  1.125000
   Auto Start start iteration           ....     1
   Auto Start num. interpolation iter.  ....    10
   Max. Number of Micro iterations      ....    24
   Max. Number of Macro iterations      .... Maxiter - #DIIS iter
   Number of Davidson start vectors     ....     2
   Converg. threshold    (grad. norm)   ....   3.330e-04
   Grad. Scal. Fac. for Micro threshold ....   0.100
   Minimum threshold for Micro iter.    ....   1.000e-02
   NR start threshold (gradient norm)   ....   1.000e-04
   Initial trust radius                 ....   0.400
   Minimum AH scaling param. (alpha)    ....   1.000
   Maximum AH scaling param. (alpha)    .... 1000.000
   Quad. conv. algorithm                .... NR
   White noise on init. David. guess    .... on
   Maximum white noise                  ....   0.010
   Pseudo random numbers                .... off
   Inactive MOs                         .... canonical
   Orbital update algorithm             .... Taylor
   Preconditioner                       .... Diag
   Full preconditioner red. dimension   ....   250
   COSX micro iterations for RIJONX calc.... off
 SOSCF                  CNVSOSCF        .... on
   Start iteration      SOSCFMaxIt      ....   150
   Startup grad/error   SOSCFStart      ....  0.003300
   Hessian update       SOSCFHessUp     .... L-BFGS
 Level Shifting         CNVShift        .... on
   Level shift para.    LevelShift      ....    0.2500
   Turn off err/grad.   ShiftErr        ....    0.0010
 Zerner damping         CNVZerner       .... off
 Static damping         CNVDamp         .... on
   Fraction old density DampFac         ....    0.7000
   Max. Damping (<1)    DampMax         ....    0.9800
   Min. Damping (>=0)   DampMin         ....    0.0000
   Turn off err/grad.   DampErr         ....    0.1000

SCF Procedure:
 Maximum # iterations   MaxIter         ....   125
 SCF integral mode      SCFMode         .... Direct
   Integral package                     .... SHARK and LIBINT hybrid scheme
 Reset frequency        DirectResetFreq ....    20
 Integral Threshold     Thresh          ....  1.000e-10 Eh
 Primitive CutOff       TCut            ....  1.000e-11 Eh

Convergence Tolerance:
 Convergence Check Mode ConvCheckMode   .... Total+1el-Energy
 Convergence forced     ConvForced      .... 0
 Energy Change          TolE            ....  1.000e-06 Eh
 1-El. energy change                    ....  1.000e-03 Eh
 Orbital Gradient       TolG            ....  3.330e-04
 Orbital Rotation angle TolX            ....  3.330e-04
 DIIS Error             TolErr          ....  1.000e-06

---------------------
INITIAL GUESS: MOREAD
---------------------
Guess MOs are being read from file: sp_gas.ges
Input Geometry matches current geometry (good)
Atom 0: N(Shells)= 9 and 6 - projection required
Input basis set needs projection
NBasis(read)= 300
NBasis(calc)= 432
Basis set overlap was calculated
Using GuessMode=FMatrix for the initial guess
C*T matrix was formed
Effective Fockian was calculated
Effective Fockian was diagonalized
Initial density was built
                      ------------------
                      INITIAL GUESS DONE (   0.1 sec)
                      ------------------
             **** ENERGY FILE WAS UPDATED (sp_gas.en.tmp) ****
Finished Guess after   0.4 sec
Maximum memory used throughout the entire GUESS-calculation: 41.4 MB

-------------------------------------------------------------------------------------------
                                      ORCA LEAN-SCF
                              memory conserving SCF solver
-------------------------------------------------------------------------------------------

----------------------------------------D-I-I-S--------------------------------------------
Iteration    Energy (Eh)           Delta-E    RMSDP     MaxDP     DIISErr   Damp  Time(sec)
-------------------------------------------------------------------------------------------
               ***  Starting incremental Fock matrix formation  ***
    1    -3679.8564933835073134     0.00e+00  2.04e-02  1.23e+00  5.36e-01  0.700   8.5
    2    -3679.9630729304958550    -1.07e-01  1.46e-02  8.54e-01  3.76e-01  0.700   7.1
    3    -3680.0382837819001907    -7.52e-02  1.02e-02  5.94e-01  2.63e-01  0.700   7.0
                               ***Turning on AO-DIIS***
    4    -3680.0910404762466896    -5.28e-02  7.16e-03  4.14e-01  1.84e-01  0.700   6.9
    5    -3680.1280169077413120    -3.70e-02  5.02e-03  2.90e-01  1.29e-01  0.700   6.8
    6    -3680.1539362050266391    -2.59e-02  3.51e-03  2.03e-01  9.02e-02  0.700   6.5
    7    -3680.1720979813494523    -1.82e-02  8.19e-03  4.73e-01  6.31e-02  0.000   6.5
                              *** Initializing SOSCF ***
---------------------------------------S-O-S-C-F--------------------------------------
Iteration    Energy (Eh)           Delta-E    RMSDP     MaxDP     MaxGrad    Time(sec)
--------------------------------------------------------------------------------------
    8    -3680.2145251651995750    -4.24e-02  4.06e-05  2.93e-03  2.25e-04     6.8
               *** Restarting incremental Fock matrix formation ***
    9    -3680.2145253642024727    -1.99e-07  9.22e-05  6.39e-03  1.35e-04     8.3
   10    -3680.2145225857943842     2.78e-06  3.25e-05  2.30e-03  3.08e-04     5.5
   11    -3680.2145259335052287    -3.35e-06  1.32e-05  6.50e-04  3.14e-05     5.4
                  *** Gradient check signals convergence ***

               *****************************************************
               *                     SUCCESS                       *
               *           SCF CONVERGED AFTER  11 CYCLES          *
               *****************************************************

             **** ENERGY FILE WAS UPDATED (sp_gas.en.tmp) ****

----------------
TOTAL SCF ENERGY
----------------

Total Energy       :      -3680.21452593350523 Eh         -100143.72846 eV

Components:
Nuclear Repulsion  :       2344.62859735212851 Eh           63800.58769 eV
Electronic Energy  :      -6024.84312328563374 Eh         -163944.31615 eV
One Electron Energy:      -9739.25951564862771 Eh         -265018.72471 eV
Two Electron Energy:       3714.41639236299397 Eh          101074.40856 eV

Virial components:
Potential Energy   :      -7351.32633143477142 Eh         -200039.75930 eV
Kinetic Energy     :       3671.11180550126574 Eh           99896.03084 eV
Virial Ratio       :          2.00247955412815

DFT components:
N(Alpha)           :       97.000013796564 electrons
N(Beta)            :       97.000013796564 electrons
N(Total)           :      194.000027593127 electrons
E(X)               :     -256.512201633980 Eh       
E(C)               :       -7.174056272958 Eh       
E(XC)              :     -263.686257906938 Eh       

---------------
SCF CONVERGENCE
---------------

  Last Energy change         ...    3.3477e-06  Tolerance :   1.0000e-06
  Last MAX-Density change    ...    6.4958e-04  Tolerance :   1.0000e-05
  Last RMS-Density change    ...    1.3183e-05  Tolerance :   1.0000e-06
  Last DIIS Error            ...    2.2520e-04  Tolerance :   1.0000e-06
  Last Orbital Gradient      ...    3.1396e-05  Tolerance :   3.3300e-04
  Last Orbital Rotation      ...    1.5718e-04  Tolerance :   3.3300e-04


----------------
ORBITAL ENERGIES
----------------

  NO   OCC          E(Eh)            E(eV) 
   0   2.0000    -101.244805     -2755.0112 
   1   2.0000    -101.244776     -2755.0104 
   2   2.0000    -101.244688     -2755.0080 
   3   2.0000    -101.243289     -2754.9700 
   4   2.0000    -101.242789     -2754.9563 
   5   2.0000    -101.241446     -2754.9198 
   6   2.0000    -101.241340     -2754.9169 
   7   2.0000     -10.140102      -275.9262 
   8   2.0000     -10.139227      -275.9024 
   9   2.0000     -10.136084      -275.8169 
  10   2.0000     -10.135710      -275.8067 
  11   2.0000     -10.134972      -275.7866 
  12   2.0000     -10.134340      -275.7694 
  13   2.0000     -10.133093      -275.7355 
  14   2.0000     -10.095291      -274.7068 
  15   2.0000     -10.091181      -274.5950 
  16   2.0000     -10.080656      -274.3086 
  17   2.0000     -10.075818      -274.1770 
  18   2.0000     -10.075150      -274.1588 
  19   2.0000      -9.400579      -255.8028 
  20   2.0000      -9.400492      -255.8004 
  21   2.0000      -9.400413      -255.7982 
  22   2.0000      -9.399074      -255.7618 
  23   2.0000      -9.398591      -255.7487 
  24   2.0000      -9.397218      -255.7113 
  25   2.0000      -9.396929      -255.7034 
  26   2.0000      -7.147200      -194.4852 
  27   2.0000      -7.147138      -194.4835 
  28   2.0000      -7.147135      -194.4834 
  29   2.0000      -7.145624      -194.4423 
  30   2.0000      -7.145124      -194.4287 
  31   2.0000      -7.143723      -194.3906 
  32   2.0000      -7.143634      -194.3882 
  33   2.0000      -7.136915      -194.2053 
  34   2.0000      -7.136819      -194.2027 
  35   2.0000      -7.136738      -194.2005 
  36   2.0000      -7.135917      -194.1782 
  37   2.0000      -7.135729      -194.1731 
  38   2.0000      -7.135648      -194.1708 
  39   2.0000      -7.135430      -194.1649 
  40   2.0000      -7.134848      -194.1491 
  41   2.0000      -7.134428      -194.1377 
  42   2.0000      -7.134067      -194.1278 
  43   2.0000      -7.133524      -194.1131 
  44   2.0000      -7.133253      -194.1057 
  45   2.0000      -7.132686      -194.0902 
  46   2.0000      -7.132199      -194.0770 
  47   2.0000      -0.930816       -25.3288 
  48   2.0000      -0.918470       -24.9928 
  49   2.0000      -0.883974       -24.0541 
  50   2.0000      -0.871198       -23.7065 
  51   2.0000      -0.860084       -23.4041 
  52   2.0000      -0.840442       -22.8696 
  53   2.0000      -0.829492       -22.5716 
  54   2.0000      -0.819084       -22.2884 
  55   2.0000      -0.811065       -22.0702 
  56   2.0000      -0.755242       -20.5512 
  57   2.0000      -0.727332       -19.7917 
  58   2.0000      -0.719399       -19.5758 
  59   2.0000      -0.702870       -19.1261 
  60   2.0000      -0.626940       -17.0599 
  61   2.0000      -0.611659       -16.6441 
  62   2.0000      -0.602567       -16.3967 
  63   2.0000      -0.580880       -15.8065 
  64   2.0000      -0.522040       -14.2054 
  65   2.0000      -0.516320       -14.0498 
  66   2.0000      -0.498911       -13.5761 
  67   2.0000      -0.495383       -13.4800 
  68   2.0000      -0.469893       -12.7864 
  69   2.0000      -0.457194       -12.4409 
  70   2.0000      -0.443384       -12.0651 
  71   2.0000      -0.440471       -11.9858 
  72   2.0000      -0.438291       -11.9265 
  73   2.0000      -0.434324       -11.8186 
  74   2.0000      -0.425335       -11.5740 
  75   2.0000      -0.411519       -11.1980 
  76   2.0000      -0.395707       -10.7677 
  77   2.0000      -0.383370       -10.4320 
  78   2.0000      -0.380987       -10.3672 
  79   2.0000      -0.375312       -10.2128 
  80   2.0000      -0.361663        -9.8413 
  81   2.0000      -0.353619        -9.6225 
  82   2.0000      -0.338722        -9.2171 
  83   2.0000      -0.326731        -8.8908 
  84   2.0000      -0.325030        -8.8445 
  85   2.0000      -0.322652        -8.7798 
  86   2.0000      -0.321410        -8.7460 
  87   2.0000      -0.317132        -8.6296 
  88   2.0000      -0.312227        -8.4961 
  89   2.0000      -0.304880        -8.2962 
  90   2.0000      -0.303000        -8.2450 
  91   2.0000      -0.285552        -7.7703 
  92   2.0000      -0.284323        -7.7368 
  93   2.0000      -0.258528        -7.0349 
  94   2.0000      -0.250513        -6.8168 
  95   2.0000      -0.245667        -6.6849 
  96   2.0000      -0.238942        -6.5019 
  97   0.0000      -0.089480        -2.4349 
  98   0.0000      -0.076626        -2.0851 
  99   0.0000      -0.069992        -1.9046 
 100   0.0000      -0.062072        -1.6891 
 101   0.0000      -0.059991        -1.6324 
 102   0.0000      -0.048660        -1.3241 
 103   0.0000      -0.003642        -0.0991 
 104   0.0000       0.015766         0.4290 
 105   0.0000       0.030576         0.8320 
 106   0.0000       0.034435         0.9370 
 107   0.0000       0.035046         0.9536 
*Only the first 10 virtual orbitals were printed.

                    ********************************
                    * MULLIKEN POPULATION ANALYSIS *
                    ********************************

-----------------------
MULLIKEN ATOMIC CHARGES
-----------------------
   0 C :   -0.132130
   1 C :   -0.258143
   2 C :    0.174712
   3 C :   -0.011768
   4 C :    0.030119
   5 C :    0.113893
   6 C :    0.135256
   7 C :   -0.274775
   8 C :    0.110952
   9 C :    0.083026
  10 C :    0.014515
  11 C :    0.021525
  12 Cl:   -0.064147
  13 Cl:   -0.064293
  14 Cl:   -0.063048
  15 Cl:   -0.089687
  16 Cl:   -0.067880
  17 Cl:   -0.072692
  18 Cl:   -0.093399
  19 H :    0.164997
  20 H :    0.165498
  21 H :    0.177471
Sum of atomic charges:   -0.0000000

--------------------------------
MULLIKEN REDUCED ORBITAL CHARGES
--------------------------------
  0 C s       :     3.160696  s :     3.160696
      pz      :     0.988060  p :     2.933643
      px      :     0.982019
      py      :     0.963564
      dz2     :     0.008914  d :     0.037792
      dxz     :     0.012820
      dyz     :     0.004241
      dx2y2   :     0.005979
      dxy     :     0.005838

  1 C s       :     3.238321  s :     3.238321
      pz      :     0.996747  p :     2.983099
      px      :     0.985613
      py      :     1.000739
      dz2     :     0.007776  d :     0.036723
      dxz     :     0.013145
      dyz     :     0.003446
      dx2y2   :     0.005954
      dxy     :     0.006403

  2 C s       :     3.137717  s :     3.137717
      pz      :     0.875035  p :     2.633327
      px      :     0.738971
      py      :     1.019321
      dz2     :     0.013670  d :     0.054244
      dxz     :     0.016232
      dyz     :     0.007696
      dx2y2   :     0.008036
      dxy     :     0.008610

  3 C s       :     3.310332  s :     3.310332
      pz      :     0.794651  p :     2.648676
      px      :     0.805363
      py      :     1.048663
      dz2     :     0.013607  d :     0.052760
      dxz     :     0.015692
      dyz     :     0.008119
      dx2y2   :     0.007380
      dxy     :     0.007961

  4 C s       :     3.275421  s :     3.275421
      pz      :     0.751549  p :     2.640623
      px      :     0.861063
      py      :     1.028011
      dz2     :     0.014306  d :     0.053837
      dxz     :     0.015553
      dyz     :     0.008219
      dx2y2   :     0.007610
      dxy     :     0.008148

  5 C s       :     3.162166  s :     3.162166
      pz      :     0.908780  p :     2.676505
      px      :     0.736630
      py      :     1.031095
      dz2     :     0.011823  d :     0.047436
      dxz     :     0.015838
      dyz     :     0.007095
      dx2y2   :     0.006648
      dxy     :     0.006032

  6 C s       :     3.142656  s :     3.142656
      pz      :     1.018989  p :     2.674161
      px      :     0.747195
      py      :     0.907977
      dz2     :     0.006932  d :     0.047927
      dxz     :     0.008459
      dyz     :     0.006969
      dx2y2   :     0.012276
      dxy     :     0.013291

  7 C s       :     3.186738  s :     3.186738
      pz      :     1.015748  p :     3.051213
      px      :     1.001469
      py      :     1.033996
      dz2     :     0.004917  d :     0.036825
      dxz     :     0.007692
      dyz     :     0.004850
      dx2y2   :     0.010021
      dxy     :     0.009345

  8 C s       :     3.197198  s :     3.197198
      pz      :     0.934139  p :     2.637370
      px      :     0.904233
      py      :     0.798998
      dz2     :     0.007650  d :     0.054480
      dxz     :     0.010970
      dyz     :     0.007636
      dx2y2   :     0.013356
      dxy     :     0.014868

  9 C s       :     3.260110  s :     3.260110
      pz      :     0.981521  p :     2.603479
      px      :     0.734517
      py      :     0.887441
      dz2     :     0.007359  d :     0.053384
      dxz     :     0.011139
      dyz     :     0.006998
      dx2y2   :     0.013361
      dxy     :     0.014527

 10 C s       :     3.316714  s :     3.316714
      pz      :     0.974035  p :     2.615296
      px      :     0.820592
      py      :     0.820669
      dz2     :     0.007701  d :     0.053475
      dxz     :     0.010332
      dyz     :     0.007787
      dx2y2   :     0.014007
      dxy     :     0.013647

 11 C s       :     3.268488  s :     3.268488
      pz      :     0.944597  p :     2.655968
      px      :     0.837828
      py      :     0.873543
      dz2     :     0.007572  d :     0.054019
      dxz     :     0.010083
      dyz     :     0.007892
      dx2y2   :     0.014937
      dxy     :     0.013535

 12 Cls       :     5.949703  s :     5.949703
      pz      :     3.730153  p :    11.054615
      px      :     3.777746
      py      :     3.546716
      dz2     :     0.013022  d :     0.059829
      dxz     :     0.008186
      dyz     :     0.013298
      dx2y2   :     0.011495
      dxy     :     0.013828

 13 Cls       :     5.950168  s :     5.950168
      pz      :     3.797591  p :    11.054752
      px      :     3.743933
      py      :     3.513229
      dz2     :     0.009510  d :     0.059374
      dxz     :     0.009491
      dyz     :     0.012133
      dx2y2   :     0.013249
      dxy     :     0.014991

 14 Cls       :     5.949561  s :     5.949561
      pz      :     3.907286  p :    11.053966
      px      :     3.216132
      py      :     3.930548
      dz2     :     0.006594  d :     0.059521
      dxz     :     0.017267
      dyz     :     0.002809
      dx2y2   :     0.018760
      dxy     :     0.014091

 15 Cls       :     5.946548  s :     5.946548
      pz      :     3.718861  p :    11.085793
      px      :     3.791942
      py      :     3.574990
      dz2     :     0.012178  d :     0.057347
      dxz     :     0.009017
      dyz     :     0.012844
      dx2y2   :     0.009722
      dxy     :     0.013586

 16 Cls       :     5.951981  s :     5.951981
      pz      :     3.346195  p :    11.056951
      px      :     3.825200
      py      :     3.885556
      dz2     :     0.018540  d :     0.058948
      dxz     :     0.015106
      dyz     :     0.016630
      dx2y2   :     0.004648
      dxy     :     0.004026

 17 Cls       :     5.950217  s :     5.950217
      pz      :     3.475182  p :    11.063824
      px      :     3.685036
      py      :     3.903605
      dz2     :     0.013315  d :     0.058651
      dxz     :     0.019033
      dyz     :     0.012531
      dx2y2   :     0.006149
      dxy     :     0.007623

 18 Cls       :     5.946609  s :     5.946609
      pz      :     3.945205  p :    11.089824
      px      :     3.230597
      py      :     3.914022
      dz2     :     0.008290  d :     0.056966
      dxz     :     0.011863
      dyz     :     0.000982
      dx2y2   :     0.016793
      dxy     :     0.019038

 19 H s       :     0.815181  s :     0.815181
      pz      :     0.009170  p :     0.019822
      px      :     0.006531
      py      :     0.004121

 20 H s       :     0.814613  s :     0.814613
      pz      :     0.010944  p :     0.019890
      px      :     0.004660
      py      :     0.004286

 21 H s       :     0.802544  s :     0.802544
      pz      :     0.005455  p :     0.019986
      px      :     0.005601
      py      :     0.008930


------------------------
MULLIKEN OVERLAP CHARGES
------------------------
B(  0-C ,  1-C ) :   0.1928 B(  0-C ,  2-C ) :   0.0891 B(  0-C ,  3-C ) :  -0.2915 
B(  0-C ,  4-C ) :  -0.1672 B(  0-C ,  5-C ) :   0.5237 B(  0-C ,  6-C ) :  -0.1998 
B(  0-C , 19-H ) :   0.7959 B(  1-C ,  2-C ) :   0.4925 B(  1-C ,  3-C ) :   0.1483 
B(  1-C ,  4-C ) :  -0.3454 B(  1-C ,  5-C ) :   0.1526 B(  1-C , 18-Cl) :  -0.1240 
B(  1-C , 20-H ) :   0.7997 B(  2-C ,  4-C ) :   0.2838 B(  2-C ,  5-C ) :  -0.4341 
B(  2-C , 16-Cl) :   0.0538 B(  2-C , 17-Cl) :  -0.2984 B(  2-C , 18-Cl) :   0.6691 
B(  2-C , 20-H ) :  -0.0570 B(  3-C ,  4-C ) :  -0.9979 B(  3-C ,  5-C ) :   0.1562 
B(  3-C ,  6-C ) :   0.0778 B(  3-C , 16-Cl) :  -0.3009 B(  3-C , 17-Cl) :   0.9498 
B(  3-C , 18-Cl) :  -0.2377 B(  4-C ,  5-C ) :  -0.6856 B(  4-C ,  6-C ) :  -0.3123 
B(  4-C , 11-C ) :   0.1089 B(  4-C , 16-Cl) :   0.9860 B(  4-C , 17-Cl) :  -0.3098 
B(  5-C ,  6-C ) :  -0.1774 B(  5-C ,  7-C ) :  -0.1528 B(  5-C , 10-C ) :   0.0612 
B(  5-C , 11-C ) :  -0.3355 B(  5-C , 12-Cl) :   0.0509 B(  5-C , 16-Cl) :  -0.4117 
B(  5-C , 19-H ) :  -0.0771 B(  6-C ,  7-C ) :  -0.3635 B(  6-C ,  8-C ) :   0.4547 
B(  6-C ,  9-C ) :  -0.5575 B(  6-C , 10-C ) :   0.4264 B(  6-C , 11-C ) :  -0.6166 
B(  6-C , 12-Cl) :  -0.4082 B(  6-C , 16-Cl) :   0.0738 B(  6-C , 21-H ) :  -0.0686 
B(  7-C ,  8-C ) :  -0.4378 B(  7-C ,  9-C ) :   0.4297 B(  7-C , 10-C ) :  -0.7332 
B(  7-C , 11-C ) :   0.0661 B(  7-C , 12-Cl) :   0.0521 B(  7-C , 15-Cl) :  -0.1164 
B(  7-C , 21-H ) :   0.7873 B(  8-C ,  9-C ) :  -0.3400 B(  8-C , 10-C ) :   0.4480 
B(  8-C , 11-C ) :  -0.3690 B(  8-C , 14-Cl) :  -0.2884 B(  8-C , 15-Cl) :   0.7002 
B(  9-C , 10-C ) :  -0.9362 B(  9-C , 11-C ) :   0.3445 B(  9-C , 13-Cl) :  -0.3257 
B(  9-C , 14-Cl) :   0.9503 B(  9-C , 15-Cl) :  -0.2679 B( 10-C , 11-C ) :  -1.2145 
B( 10-C , 12-Cl) :  -0.3048 B( 10-C , 13-Cl) :   0.9872 B( 10-C , 14-Cl) :  -0.3142 
B( 11-C , 12-Cl) :   1.0005 B( 11-C , 13-Cl) :  -0.3213 


                     *******************************
                     * LOEWDIN POPULATION ANALYSIS *
                     *******************************

----------------------
LOEWDIN ATOMIC CHARGES
----------------------
   0 C :   -0.125682
   1 C :   -0.159361
   2 C :   -0.174039
   3 C :   -0.191893
   4 C :   -0.153546
   5 C :   -0.090794
   6 C :   -0.083683
   7 C :   -0.139755
   8 C :   -0.178963
   9 C :   -0.191786
  10 C :   -0.188720
  11 C :   -0.162787
  12 Cl:    0.196165
  13 Cl:    0.186393
  14 Cl:    0.186518
  15 Cl:    0.171845
  16 Cl:    0.193448
  17 Cl:    0.177287
  18 Cl:    0.167269
  19 H :    0.184545
  20 H :    0.184267
  21 H :    0.193273

-------------------------------
LOEWDIN REDUCED ORBITAL CHARGES
-------------------------------
  0 C s       :     2.894247  s :     2.894247
      pz      :     1.081902  p :     3.148669
      px      :     1.090711
      py      :     0.976056
      dz2     :     0.020827  d :     0.082766
      dxz     :     0.031239
      dyz     :     0.007573
      dx2y2   :     0.012446
      dxy     :     0.010680

  1 C s       :     2.901283  s :     2.901283
      pz      :     1.088439  p :     3.176552
      px      :     1.095209
      py      :     0.992904
      dz2     :     0.019020  d :     0.081525
      dxz     :     0.031861
      dyz     :     0.005945
      dx2y2   :     0.012770
      dxy     :     0.011929

  2 C s       :     2.894248  s :     2.894248
      pz      :     1.118142  p :     3.162915
      px      :     1.020488
      py      :     1.024285
      dz2     :     0.030168  d :     0.116875
      dxz     :     0.038632
      dyz     :     0.014180
      dx2y2   :     0.018111
      dxy     :     0.015784

  3 C s       :     2.894555  s :     2.894555
      pz      :     1.053872  p :     3.182236
      px      :     1.078039
      py      :     1.050325
      dz2     :     0.032372  d :     0.115102
      dxz     :     0.036556
      dyz     :     0.015073
      dx2y2   :     0.016453
      dxy     :     0.014648

  4 C s       :     2.886842  s :     2.886842
      pz      :     1.035123  p :     3.150109
      px      :     1.081368
      py      :     1.033618
      dz2     :     0.033295  d :     0.116594
      dxz     :     0.036384
      dyz     :     0.015347
      dx2y2   :     0.016392
      dxy     :     0.015176

  5 C s       :     2.850719  s :     2.850719
      pz      :     1.098870  p :     3.140116
      px      :     1.034572
      py      :     1.006674
      dz2     :     0.026665  d :     0.099959
      dxz     :     0.035953
      dyz     :     0.013166
      dx2y2   :     0.013697
      dxy     :     0.010479

  6 C s       :     2.850155  s :     2.850155
      pz      :     1.030378  p :     3.132680
      px      :     1.040427
      py      :     1.061875
      dz2     :     0.013254  d :     0.100849
      dxz     :     0.016947
      dyz     :     0.014610
      dx2y2   :     0.026924
      dxy     :     0.029114

  7 C s       :     2.895352  s :     2.895352
      pz      :     1.021773  p :     3.162509
      px      :     1.067281
      py      :     1.073455
      dz2     :     0.009294  d :     0.081894
      dxz     :     0.016641
      dyz     :     0.009875
      dx2y2   :     0.023663
      dxy     :     0.022420

  8 C s       :     2.891106  s :     2.891106
      pz      :     1.027701  p :     3.170106
      px      :     1.107528
      py      :     1.034878
      dz2     :     0.014489  d :     0.117751
      dxz     :     0.022875
      dyz     :     0.017040
      dx2y2   :     0.030396
      dxy     :     0.032951

  9 C s       :     2.893531  s :     2.893531
      pz      :     1.065311  p :     3.181774
      px      :     1.025049
      py      :     1.091414
      dz2     :     0.014601  d :     0.116481
      dxz     :     0.023447
      dyz     :     0.014370
      dx2y2   :     0.030435
      dxy     :     0.033628

 10 C s       :     2.892670  s :     2.892670
      pz      :     1.051186  p :     3.179343
      px      :     1.085963
      py      :     1.042193
      dz2     :     0.015116  d :     0.116708
      dxz     :     0.021156
      dyz     :     0.017172
      dx2y2   :     0.032197
      dxy     :     0.031066

 11 C s       :     2.884990  s :     2.884990
      pz      :     1.039939  p :     3.160451
      px      :     1.072089
      py      :     1.048423
      dz2     :     0.014484  d :     0.117345
      dxz     :     0.021173
      dyz     :     0.017369
      dx2y2   :     0.034130
      dxy     :     0.030188

 12 Cls       :     5.634530  s :     5.634530
      pz      :     3.724596  p :    11.045626
      px      :     3.756301
      py      :     3.564729
      dz2     :     0.022510  d :     0.123679
      dxz     :     0.017499
      dyz     :     0.030713
      dx2y2   :     0.022154
      dxy     :     0.030802

 13 Cls       :     5.640460  s :     5.640460
      pz      :     3.783263  p :    11.049781
      px      :     3.734160
      py      :     3.532357
      dz2     :     0.017606  d :     0.123366
      dxz     :     0.019254
      dyz     :     0.026260
      dx2y2   :     0.024616
      dxy     :     0.035630

 14 Cls       :     5.640982  s :     5.640982
      pz      :     3.880881  p :    11.049764
      px      :     3.268932
      py      :     3.899951
      dz2     :     0.015257  d :     0.122736
      dxz     :     0.030595
      dyz     :     0.005334
      dx2y2   :     0.046995
      dxy     :     0.024555

 15 Cls       :     5.640371  s :     5.640371
      pz      :     3.713943  p :    11.068644
      px      :     3.770685
      py      :     3.584016
      dz2     :     0.021162  d :     0.119140
      dxz     :     0.019243
      dyz     :     0.029807
      dx2y2   :     0.018766
      dxy     :     0.030160

 16 Cls       :     5.638266  s :     5.638266
      pz      :     3.380777  p :    11.046989
      px      :     3.798063
      py      :     3.868150
      dz2     :     0.042673  d :     0.121297
      dxz     :     0.034255
      dyz     :     0.029747
      dx2y2   :     0.008220
      dxy     :     0.006403

 17 Cls       :     5.644061  s :     5.644061
      pz      :     3.495843  p :    11.057284
      px      :     3.681873
      py      :     3.879568
      dz2     :     0.026992  d :     0.121368
      dxz     :     0.047234
      dyz     :     0.021914
      dx2y2   :     0.012245
      dxy     :     0.012983

 18 Cls       :     5.643116  s :     5.643116
      pz      :     3.904354  p :    11.071893
      px      :     3.280621
      py      :     3.886918
      dz2     :     0.019105  d :     0.117723
      dxz     :     0.022470
      dyz     :     0.001279
      dx2y2   :     0.042190
      dxy     :     0.032678

 19 H s       :     0.769840  s :     0.769840
      pz      :     0.021507  p :     0.045615
      px      :     0.015035
      py      :     0.009073

 20 H s       :     0.769793  s :     0.769793
      pz      :     0.025930  p :     0.045940
      px      :     0.010420
      py      :     0.009590

 21 H s       :     0.760436  s :     0.760436
      pz      :     0.012424  p :     0.046291
      px      :     0.012797
      py      :     0.021070


---------------------------------
LOEWDIN BOND ORDERS (THRESH 0.050000)
---------------------------------
B(  0-C ,  1-C ) :   1.5057 B(  0-C ,  2-C ) :   0.0955 B(  0-C ,  3-C ) :   0.1074 
B(  0-C ,  4-C ) :   0.0885 B(  0-C ,  5-C ) :   1.4034 B(  0-C ,  6-C ) :   0.0863 
B(  0-C , 19-H ) :   0.8566 B(  0-C , 20-H ) :   0.0546 B(  1-C ,  2-C ) :   1.4194 
B(  1-C ,  3-C ) :   0.0917 B(  1-C ,  4-C ) :   0.1073 B(  1-C ,  5-C ) :   0.0920 
B(  1-C , 18-Cl) :   0.1548 B(  1-C , 19-H ) :   0.0533 B(  1-C , 20-H ) :   0.8629 
B(  2-C ,  3-C ) :   1.3512 B(  2-C ,  4-C ) :   0.0931 B(  2-C ,  5-C ) :   0.1051 
B(  2-C , 17-Cl) :   0.1479 B(  2-C , 18-Cl) :   1.4271 B(  2-C , 20-H ) :   0.0529 
B(  3-C ,  4-C ) :   1.3489 B(  3-C ,  5-C ) :   0.0922 B(  3-C , 16-Cl) :   0.1487 
B(  3-C , 17-Cl) :   1.4231 B(  3-C , 18-Cl) :   0.1506 B(  4-C ,  5-C ) :   1.3515 
B(  4-C ,  6-C ) :   0.0833 B(  4-C , 16-Cl) :   1.4043 B(  4-C , 17-Cl) :   0.1485 
B(  5-C ,  6-C ) :   1.0201 B(  5-C ,  7-C ) :   0.0875 B(  5-C , 11-C ) :   0.0826 
B(  5-C , 16-Cl) :   0.1464 B(  5-C , 19-H ) :   0.0513 B(  6-C ,  7-C ) :   1.4080 
B(  6-C ,  8-C ) :   0.0959 B(  6-C ,  9-C ) :   0.0995 B(  6-C , 10-C ) :   0.0927 
B(  6-C , 11-C ) :   1.3428 B(  6-C , 12-Cl) :   0.1462 B(  6-C , 21-H ) :   0.0505 
B(  7-C ,  8-C ) :   1.4268 B(  7-C ,  9-C ) :   0.0931 B(  7-C , 10-C ) :   0.1041 
B(  7-C , 11-C ) :   0.0891 B(  7-C , 15-Cl) :   0.1590 B(  7-C , 21-H ) :   0.8506 
B(  8-C ,  9-C ) :   1.3378 B(  8-C , 10-C ) :   0.0930 B(  8-C , 11-C ) :   0.0966 
B(  8-C , 14-Cl) :   0.1468 B(  8-C , 15-Cl) :   1.4299 B(  8-C , 21-H ) :   0.0516 
B(  9-C , 10-C ) :   1.3470 B(  9-C , 11-C ) :   0.0928 B(  9-C , 13-Cl) :   0.1501 
B(  9-C , 14-Cl) :   1.4327 B(  9-C , 15-Cl) :   0.1495 B( 10-C , 11-C ) :   1.3432 
B( 10-C , 12-Cl) :   0.1500 B( 10-C , 13-Cl) :   1.4303 B( 10-C , 14-Cl) :   0.1499 
B( 11-C , 12-Cl) :   1.4128 B( 11-C , 13-Cl) :   0.1490 B( 12-Cl, 13-Cl) :   0.0625 
B( 13-Cl, 14-Cl) :   0.0618 B( 14-Cl, 15-Cl) :   0.0581 B( 16-Cl, 17-Cl) :   0.0623 
B( 17-Cl, 18-Cl) :   0.0591 

------------------------------------------
LOEWDIN REDUCED ORBITAL POPULATIONS PER MO
-------------------------------------------
THRESHOLD FOR PRINTING IS 0.1%%
                      0         1         2         3         4         5   
                 -101.24481 -101.24478 -101.24469 -101.24329 -101.24279 -101.24145
                   2.00000   2.00000   2.00000   2.00000   2.00000   2.00000
                  --------  --------  --------  --------  --------  --------
12 Cl s               0.0       0.0     100.0       0.0       0.0       0.0
13 Cl s              99.5       0.5       0.0       0.0       0.0       0.0
14 Cl s               0.5      99.5       0.0       0.0       0.0       0.0
15 Cl s               0.0       0.0       0.0       0.0     100.0       0.0
16 Cl s               0.0       0.0       0.0     100.0       0.0       0.0
18 Cl s               0.0       0.0       0.0       0.0       0.0     100.0

                      6         7         8         9        10        11   
                 -101.24134 -10.14010 -10.13923 -10.13608 -10.13571 -10.13497
                   2.00000   2.00000   2.00000   2.00000   2.00000   2.00000
                  --------  --------  --------  --------  --------  --------
 2 C  s               0.0       0.0       0.0       0.0       0.1       1.2
 3 C  s               0.0       0.0       0.0       0.0       9.0      89.3
 3 C  px              0.0       0.0       0.0       0.0       0.1       0.0
 4 C  s               0.0       0.0       0.0       0.0      90.5       9.1
 4 C  px              0.0       0.0       0.0       0.0       0.0       0.1
 8 C  s               0.0       0.0       0.2       0.0       0.0       0.0
 9 C  s               0.0       6.3      93.1       0.0       0.0       0.0
10 C  s               0.0      93.0       6.3       0.3       0.0       0.0
10 C  px              0.0       0.0       0.0       0.1       0.0       0.0
11 C  s               0.0       0.3       0.0      99.2       0.0       0.0
11 C  px              0.0       0.1       0.0       0.0       0.0       0.0
17 Cl s             100.0       0.0       0.0       0.0       0.0       0.0

                     12        13        14        15        16        17   
                 -10.13434 -10.13309 -10.09529 -10.09118 -10.08066 -10.07582
                   2.00000   2.00000   2.00000   2.00000   2.00000   2.00000
                  --------  --------  --------  --------  --------  --------
 0 C  s               0.0       0.0       0.0       0.0       0.0      84.6
 0 C  pz              0.0       0.0       0.0       0.1       0.0       0.0
 1 C  s               0.0       0.0       0.0       0.0       0.0      14.9
 1 C  px              0.0       0.0       0.0       0.0       0.0       0.1
 2 C  s               0.0      98.3       0.0       0.0       0.0       0.0
 3 C  s               0.0       1.3       0.0       0.0       0.0       0.0
 3 C  pz              0.0       0.1       0.0       0.0       0.0       0.0
 5 C  s               0.0       0.0       0.1      99.5       0.0       0.0
 5 C  pz              0.0       0.0       0.0       0.0       0.0       0.1
 6 C  s               0.0       0.0      99.4       0.1       0.0       0.0
 7 C  s               0.0       0.0       0.0       0.0      99.6       0.0
 7 C  px              0.1       0.0       0.0       0.0       0.0       0.0
 8 C  s              99.4       0.0       0.0       0.0       0.0       0.0
 8 C  px              0.0       0.0       0.0       0.0       0.1       0.0
 9 C  s               0.2       0.0       0.0       0.0       0.0       0.0

                     18        19        20        21        22        23   
                 -10.07515  -9.40058  -9.40049  -9.40041  -9.39907  -9.39859
                   2.00000   2.00000   2.00000   2.00000   2.00000   2.00000
                  --------  --------  --------  --------  --------  --------
 0 C  s              15.0       0.0       0.0       0.0       0.0       0.0
 0 C  px              0.1       0.0       0.0       0.0       0.0       0.0
 1 C  s              84.7       0.0       0.0       0.0       0.0       0.0
 4 C  pz              0.0       0.0       0.0       0.0       0.1       0.0
 9 C  px              0.0       0.0       0.0       0.2       0.0       0.0
12 Cl s               0.0      99.7       0.1       0.0       0.0       0.0
13 Cl s               0.0       0.1      99.6       0.1       0.0       0.0
14 Cl s               0.0       0.0       0.1      99.7       0.0       0.0
15 Cl s               0.0       0.0       0.0       0.0       0.0      99.8
16 Cl s               0.0       0.0       0.0       0.0      99.8       0.0

                     24        25        26        27        28        29   
                  -9.39722  -9.39693  -7.14720  -7.14714  -7.14713  -7.14562
                   2.00000   2.00000   2.00000   2.00000   2.00000   2.00000
                  --------  --------  --------  --------  --------  --------
 2 C  px              0.2       0.0       0.0       0.0       0.0       0.0
 3 C  pz              0.0       0.1       0.0       0.0       0.0       0.0
12 Cl pz              0.0       0.0       0.0       0.0      25.7       0.0
12 Cl px              0.0       0.0       0.0       0.0      22.2       0.0
12 Cl py              0.0       0.0       0.0       0.0      52.1       0.0
13 Cl pz              0.0       0.0      16.5       0.0       0.0       0.0
13 Cl px              0.0       0.0      26.8       0.0       0.0       0.0
13 Cl py              0.0       0.0      56.7       0.0       0.0       0.0
14 Cl pz              0.0       0.0       0.0       1.4       0.0       0.0
14 Cl px              0.0       0.0       0.0      98.3       0.0       0.0
14 Cl py              0.0       0.0       0.0       0.2       0.0       0.0
16 Cl pz              0.0       0.0       0.0       0.0       0.0      81.8
16 Cl px              0.0       0.0       0.0       0.0       0.0      15.5
16 Cl py              0.0       0.0       0.0       0.0       0.0       2.7
17 Cl s               0.0      99.8       0.0       0.0       0.0       0.0
18 Cl s              99.8       0.0       0.0       0.0       0.0       0.0

                     30        31        32        33        34        35   
                  -7.14512  -7.14372  -7.14363  -7.13691  -7.13682  -7.13674
                   2.00000   2.00000   2.00000   2.00000   2.00000   2.00000
                  --------  --------  --------  --------  --------  --------
12 Cl pz              0.0       0.0       0.0      71.6       0.0       0.0
12 Cl px              0.0       0.0       0.0       1.3       0.0       0.0
12 Cl py              0.0       0.0       0.0      27.0       0.0       0.0
13 Cl pz              0.0       0.0       0.0       0.0      69.9       0.0
13 Cl px              0.0       0.0       0.0       0.0       1.5       0.0
13 Cl py              0.0       0.0       0.0       0.0      28.6       0.0
14 Cl pz              0.0       0.0       0.0       0.0       0.0      69.1
14 Cl px              0.0       0.0       0.0       0.0       0.0       1.6
14 Cl py              0.0       0.0       0.0       0.0       0.0      29.3
15 Cl pz             28.4       0.0       0.0       0.0       0.0       0.0
15 Cl px             21.1       0.0       0.0       0.0       0.0       0.0
15 Cl py             50.4       0.0       0.0       0.0       0.0       0.0
17 Cl pz              0.0       0.0      63.8       0.0       0.0       0.0
17 Cl px              0.0       0.0      35.2       0.0       0.0       0.0
17 Cl py              0.0       0.0       1.0       0.0       0.0       0.0
18 Cl pz              0.0       1.5       0.0       0.0       0.0       0.0
18 Cl px              0.0      98.3       0.0       0.0       0.0       0.0
18 Cl py              0.0       0.2       0.0       0.0       0.0       0.0

                     36        37        38        39        40        41   
                  -7.13592  -7.13573  -7.13565  -7.13543  -7.13485  -7.13443
                   2.00000   2.00000   2.00000   2.00000   2.00000   2.00000
                  --------  --------  --------  --------  --------  --------
12 Cl pz              2.6       0.0       0.0       0.0       0.0       0.0
12 Cl px             76.5       0.0       0.0       0.0       0.0       0.0
12 Cl py             20.8       0.0       0.0       0.0       0.0       0.0
13 Cl pz              0.0      13.6       0.0       0.0       0.0       0.0
13 Cl px              0.0      71.7       0.0       0.0       0.0       0.0
13 Cl py              0.0      14.7       0.0       0.0       0.0       0.0
14 Cl pz              0.0       0.0      29.4       0.0       0.0       0.0
14 Cl py              0.0       0.0      70.5       0.0       0.0       0.0
15 Cl pz              0.0       0.0       0.0       0.0      68.8       0.0
15 Cl px              0.0       0.0       0.0       0.0       1.4       0.0
15 Cl py              0.0       0.0       0.0       0.0      29.8       0.0
16 Cl pz              0.0       0.0       0.0       2.6       0.0      15.5
16 Cl px              0.0       0.0       0.0       0.2       0.0      84.4
16 Cl py              0.0       0.0       0.0      97.3       0.0       0.1

                     42        43        44        45        46        47   
                  -7.13407  -7.13352  -7.13325  -7.13269  -7.13220  -0.93082
                   2.00000   2.00000   2.00000   2.00000   2.00000   2.00000
                  --------  --------  --------  --------  --------  --------
 0 C  s               0.0       0.0       0.0       0.0       0.0       0.9
 0 C  pz              0.0       0.0       0.0       0.0       0.0       0.4
 1 C  s               0.0       0.0       0.0       0.0       0.0       0.5
 1 C  pz              0.0       0.0       0.0       0.0       0.0       0.2
 2 C  s               0.0       0.0       0.0       0.0       0.0       1.1
 3 C  s               0.0       0.0       0.0       0.0       0.0       1.7
 4 C  s               0.0       0.0       0.0       0.0       0.0       2.4
 5 C  s               0.0       0.0       0.0       0.0       0.0       2.8
 5 C  px              0.0       0.0       0.0       0.0       0.0       0.2
 6 C  s               0.0       0.0       0.0       0.0       0.0       6.5
 6 C  px              0.0       0.0       0.0       0.0       0.0       0.5
 6 C  py              0.0       0.0       0.0       0.0       0.0       0.2
 7 C  s               0.0       0.0       0.0       0.0       0.0       4.6
 7 C  pz              0.0       0.0       0.0       0.0       0.0       0.2
 7 C  px              0.0       0.0       0.0       0.0       0.0       0.6
 7 C  py              0.0       0.0       0.0       0.0       0.0       0.8
 8 C  s               0.0       0.0       0.0       0.0       0.0       8.7
 8 C  pz              0.0       0.0       0.0       0.0       0.0       0.1
 8 C  py              0.0       0.0       0.0       0.0       0.0       0.4
 9 C  s               0.0       0.0       0.0       0.0       0.0      12.8
 9 C  px              0.0       0.0       0.0       0.0       0.0       0.1
10 C  s               0.0       0.0       0.0       0.0       0.0      13.9
10 C  dyz             0.0       0.0       0.0       0.0       0.0       0.1
11 C  s               0.0       0.0       0.0       0.0       0.0      11.1
11 C  px              0.0       0.0       0.0       0.0       0.0       0.4
12 Cl s               0.0       0.0       0.0       0.0       0.0       4.7
12 Cl pz              0.0       0.0       0.0       0.0       0.0       0.2
12 Cl px              0.0       0.0       0.0       0.0       0.0       0.3
12 Cl py              0.0       0.0       0.0       0.0       0.0       0.5
13 Cl s               0.0       0.0       0.0       0.0       0.0       5.9
13 Cl pz              0.0       0.0       0.0       0.0       0.0       0.2
13 Cl px              0.0       0.0       0.0       0.0       0.0       0.3
13 Cl py              0.0       0.0       0.0       0.0       0.0       0.7
13 Cl dyz             0.0       0.0       0.0       0.0       0.0       0.1
13 Cl dxy             0.0       0.0       0.0       0.0       0.0       0.1
14 Cl s               0.0       0.0       0.0       0.0       0.0       5.3
14 Cl px              0.0       0.0       0.0       0.0       0.0       1.1
14 Cl dx2y2           0.0       0.0       0.0       0.0       0.0       0.2
15 Cl s               0.0       0.0       0.0       0.0       0.0       3.2
15 Cl pz              2.8       0.0       0.0       0.0       0.0       0.2
15 Cl px             77.4       0.0       0.0       0.0       0.0       0.1
15 Cl py             19.8       0.0       0.0       0.0       0.0       0.4
16 Cl s               0.0       0.0       0.0       0.0       0.0       1.1
16 Cl pz              0.0       0.0       0.0       0.0       0.0       0.2
17 Cl s               0.0       0.0       0.0       0.0       0.0       0.6
17 Cl pz              0.0       0.0       2.1       0.0      34.1       0.1
17 Cl px              0.0       0.0       0.1       0.0      64.7       0.1
17 Cl py              0.0       0.0      97.8       0.0       1.2       0.0
18 Cl s               0.0       0.0       0.0       0.0       0.0       0.4
18 Cl pz              0.0       1.9       0.0      96.6       0.0       0.0
18 Cl px              0.0       0.1       0.0       1.6       0.0       0.1
18 Cl py              0.0      98.0       0.0       1.8       0.0       0.0
21 H  s               0.0       0.0       0.0       0.0       0.0       0.4

                     48        49        50        51        52        53   
                  -0.91847  -0.88397  -0.87120  -0.86008  -0.84044  -0.82949
                   2.00000   2.00000   2.00000   2.00000   2.00000   2.00000
                  --------  --------  --------  --------  --------  --------
 0 C  s               2.7       0.1       0.1       0.7       5.6       0.0
 0 C  pz              0.8       0.1       0.4       0.0       0.5       0.0
 0 C  px              0.5       0.2       0.7       0.0       0.2       0.1
 1 C  s               4.1       0.1       1.2       1.5       4.4       0.1
 1 C  pz              1.8       0.0       0.4       0.2       0.2       0.0
 1 C  px              0.0       0.2       1.4       0.1       0.3       0.0
 2 C  s              11.6       0.7       7.8       2.6       1.1       0.1
 2 C  pz              0.8       0.0       0.0       0.7       3.3       0.2
 2 C  px              0.0       0.2       3.2       1.1       0.0       0.1
 2 C  dx2y2           0.1       0.0       0.2       0.1       0.0       0.0
 3 C  s              16.5       0.4       0.6       0.5       3.5       0.2
 3 C  pz              0.0       0.0       0.9       2.4       8.1       0.4
 3 C  px              0.0       0.3       4.5       0.6       3.6       0.3
 3 C  py              0.0       0.0       0.0       0.1       0.1       0.0
 3 C  dxz             0.0       0.0       0.0       0.0       0.2       0.0
 3 C  dx2y2           0.2       0.0       0.0       0.0       0.0       0.0
 4 C  s              12.6       0.0       5.4       2.7       0.5       0.1
 4 C  pz              0.1       0.0       1.2       2.9       1.2       0.2
 4 C  px              0.7       0.4       2.6       0.0       2.6       0.2
 4 C  dz2             0.0       0.0       0.1       0.0       0.0       0.0
 4 C  dx2y2           0.1       0.0       0.0       0.0       0.0       0.0
 5 C  s               4.3       0.8       3.6       0.2       4.9       0.0
 5 C  pz              0.4       0.0       1.0       1.0       0.2       0.1
 5 C  px              1.8       0.4       0.1       0.7       0.2       0.1
 5 C  py              0.0       0.1       0.0       0.0       0.0       0.0
 6 C  s               0.1       1.9       2.8       2.8       0.5       0.1
 6 C  pz              0.0       0.7       0.3       0.1       0.0       0.3
 6 C  px              1.7       0.0       0.4       0.2       1.1       0.0
 6 C  py              0.0       1.6       0.2       0.0       0.1       0.4
 7 C  s               0.1       0.5       2.4       2.8       0.0       0.4
 7 C  pz              0.0       0.4       0.0       0.0       0.1       0.1
 7 C  px              0.7       2.3       0.0       0.2       0.5       0.2
 7 C  py              0.0       0.4       0.1       0.1       0.1       0.1
 8 C  s               1.4       9.0       1.8       2.9       0.7       0.9
 8 C  pz              0.0       0.5       0.2       0.5       0.4       0.7
 8 C  px              0.2       1.9       0.2       0.3       0.0       0.2
 8 C  py              0.1       0.6       0.7       1.6       0.9       1.9
 8 C  dyz             0.0       0.1       0.0       0.0       0.0       0.0
 9 C  s               2.6       4.7       0.4       1.5       0.6       2.0
 9 C  pz              0.0       1.2       0.4       0.4       0.0       0.3
 9 C  px              0.0       1.3       0.5       2.7       1.3       7.0
 9 C  py              0.0       2.1       1.3       1.9       0.2       0.0
 9 C  dx2y2           0.0       0.0       0.0       0.0       0.0       0.2
10 C  s               2.2       1.5       2.6       2.3       0.0       2.1
10 C  pz              0.0       1.3       0.2       0.1       0.1       1.3
10 C  px              0.1       2.3       1.0       4.3       0.5       1.0
10 C  py              0.0       2.0       0.9       0.8       0.1       4.0
10 C  dxy             0.0       0.0       0.0       0.0       0.0       0.2
11 C  s               0.5       9.4       0.0       2.0       0.6       0.8
11 C  pz              0.0       0.8       0.1       0.1       0.3       0.4
11 C  px              0.6       0.6       1.3       2.5       0.0       2.5
11 C  py              0.1       1.7       0.6       0.0       0.9       0.4
11 C  dyz             0.0       0.1       0.0       0.1       0.0       0.0
12 Cl s               0.2      15.9       0.0       5.1       3.8       8.5
[...]
18 Cl dx2y2           0.0       0.0       0.0       0.0       0.1       0.0
19 H  s               0.1       0.0       0.0       0.3       5.7       0.0
19 H  pz              0.0       0.0       0.0       0.5       8.6       0.0
19 H  px              0.0       0.1       0.0       0.2       4.4       0.0
19 H  py              0.0       0.0       0.0       0.0       0.1       0.0
20 H  s               1.2       0.0       0.0       0.4       5.0       0.0
20 H  pz              4.8       0.0       0.0       0.8       9.7       0.0
20 H  px              1.2       0.1       0.0       0.2       1.6       0.0
20 H  py              0.1       0.0       0.0       0.0       0.2       0.0
21 H  s               0.2       0.1       0.0       9.3       0.2       0.0
21 H  pz              0.2       0.0       0.0       4.2       0.1       0.0
21 H  px              0.3       0.2       0.1       7.3       0.2       0.0
21 H  py              0.6       0.1       0.0      14.9       0.3       0.0

                    414       415       416       417       418       419   
                  21.27547  21.72761  21.79985  21.84750  21.90311  22.07858
                   0.00000   0.00000   0.00000   0.00000   0.00000   0.00000
                  --------  --------  --------  --------  --------  --------
 0 C  s               5.7       0.1       0.6      13.5      14.0       5.9
 1 C  s               6.9       1.5       1.7      23.9       3.0       8.7
 2 C  s              16.0      10.2      10.5       7.2      15.7      14.3
 2 C  pz              0.0       0.0       0.0       0.1       0.0       0.0
 3 C  s              20.1       2.0       0.5      25.8       6.5       2.0
 4 C  s              14.3       6.4       6.3      17.3       6.9       0.5
 5 C  s               5.0       8.6       5.9       3.2       4.9       5.6
 5 C  pz              0.0       0.0       0.0       0.1       0.0       0.0
 6 C  s               1.1      12.2       5.0       2.2       1.9      15.3
 6 C  px              0.1       0.0       0.0       0.0       0.0       0.0
 7 C  s               2.5       0.0       9.6       2.5       9.5       1.4
 8 C  s               6.7      16.6      22.2       0.0       3.2      11.6
 9 C  s               8.3      16.4       0.2       2.4      20.9      24.4
10 C  s               8.3       1.1      32.2       1.1       3.6       9.6
10 C  px              0.0       0.1       0.0       0.0       0.0       0.0
11 C  s               4.6      24.1       4.7       0.2       9.3       0.2

                    420       421       422       423       424       425   
                  22.09745  22.13726  22.19567  22.28071  22.31812  25.12844
                   0.00000   0.00000   0.00000   0.00000   0.00000   0.00000
                  --------  --------  --------  --------  --------  --------
 0 C  s               8.0       8.6       6.3      15.5      18.3       0.0
 1 C  s               6.0       2.1      24.7       7.2      10.5       0.0
 2 C  s               1.8      10.2       1.9       2.9       2.9       0.0
 3 C  s              11.6      18.0       0.1       1.0       3.9       0.1
 4 C  s              12.7      13.8       7.1       1.4       5.9       0.0
 5 C  s               0.9       3.0      27.2      20.5      10.4       0.1
 6 C  s               4.4       0.9      11.5      24.1      13.2       0.0
 7 C  s              20.4       5.7       8.8      16.0      16.5       0.0
 8 C  s               8.9       0.3       8.2       4.4       5.0       0.0
 9 C  s               0.2       5.6       1.2       2.9       2.5       0.1
10 C  s               6.8      16.4       0.5       1.3       3.5       0.1
11 C  s              17.7      14.7       2.1       2.6       6.9       0.0
12 Cl s               0.0       0.0       0.0       0.0       0.0       7.2
13 Cl s               0.0       0.0       0.0       0.0       0.0      20.3
14 Cl s               0.0       0.0       0.0       0.0       0.0      23.9
15 Cl s               0.0       0.0       0.0       0.0       0.0       9.7
16 Cl s               0.0       0.0       0.0       0.0       0.0       7.3
17 Cl s               0.0       0.0       0.0       0.0       0.0      16.7
18 Cl s               0.0       0.0       0.0       0.0       0.0      14.0

                    426       427       428       429       430       431   
                  25.26702  25.36496  25.44714  25.55155  25.63095  25.66276
                   0.00000   0.00000   0.00000   0.00000   0.00000   0.00000
                  --------  --------  --------  --------  --------  --------
 2 C  px              0.1       0.0       0.3       0.0       0.0       0.0
 3 C  pz              0.0       0.0       0.1       0.0       0.1       0.0
 4 C  pz              0.0       0.0       0.1       0.0       0.2       0.1
 5 C  px              0.2       0.0       0.0       0.0       0.0       0.0
 6 C  s               0.1       0.0       0.0       0.0       0.0       0.0
 6 C  px              0.2       0.0       0.0       0.0       0.0       0.0
 8 C  py              0.0       0.1       0.0       0.1       0.0       0.0
 9 C  px              0.1       0.0       0.0       0.2       0.1       0.1
10 C  py              0.0       0.1       0.0       0.0       0.1       0.1
11 C  py              0.0       0.0       0.0       0.1       0.0       0.1
12 Cl s               0.3      21.2       0.0      33.0       6.9      30.2
13 Cl s              10.7      25.8       1.9       0.0      17.3      22.9
14 Cl s              20.6       3.5       0.1      32.1       8.1      10.7
15 Cl s               7.6      45.7       1.0      31.2       2.0       1.8
16 Cl s               5.5       0.8      32.7       0.0      31.1      21.5
17 Cl s              28.4       0.3      13.5       2.5      28.0       9.6
18 Cl s              25.8       1.9      50.0       0.1       5.5       2.0



                      *****************************
                      * MAYER POPULATION ANALYSIS *
                      *****************************

  NA   - Mulliken gross atomic population
  ZA   - Total nuclear charge
  QA   - Mulliken gross atomic charge
  VA   - Mayer's total valence
  BVA  - Mayer's bonded valence
  FA   - Mayer's free valence

  ATOM       NA         ZA         QA         VA         BVA        FA
  0 C      6.1321     6.0000    -0.1321     3.7923     3.7923    -0.0000
  1 C      6.2581     6.0000    -0.2581     3.8177     3.8177     0.0000
  2 C      5.8253     6.0000     0.1747     3.5795     3.5795     0.0000
  3 C      6.0118     6.0000    -0.0118     3.5052     3.5052     0.0000
  4 C      5.9699     6.0000     0.0301     3.5933     3.5933    -0.0000
  5 C      5.8861     6.0000     0.1139     3.3575     3.3575    -0.0000
  6 C      5.8647     6.0000     0.1353     3.3221     3.3221     0.0000
  7 C      6.2748     6.0000    -0.2748     3.7591     3.7591     0.0000
  8 C      5.8890     6.0000     0.1110     3.6234     3.6234     0.0000
  9 C      5.9170     6.0000     0.0830     3.4273     3.4273    -0.0000
 10 C      5.9855     6.0000     0.0145     3.2934     3.2934    -0.0000
 11 C      5.9785     6.0000     0.0215     3.5886     3.5886     0.0000
 12 Cl    17.0641    17.0000    -0.0641     1.2573     1.2573     0.0000
 13 Cl    17.0643    17.0000    -0.0643     1.2525     1.2525    -0.0000
 14 Cl    17.0630    17.0000    -0.0630     1.2523     1.2523     0.0000
 15 Cl    17.0897    17.0000    -0.0897     1.2025     1.2025    -0.0000
 16 Cl    17.0679    17.0000    -0.0679     1.2513     1.2513     0.0000
 17 Cl    17.0727    17.0000    -0.0727     1.2416     1.2416     0.0000
 18 Cl    17.0934    17.0000    -0.0934     1.1969     1.1969    -0.0000
 19 H      0.8350     1.0000     0.1650     0.9632     0.9632    -0.0000
 20 H      0.8345     1.0000     0.1655     0.9648     0.9648     0.0000
 21 H      0.8225     1.0000     0.1775     0.9609     0.9609     0.0000

  Mayer bond orders larger than 0.100000
B(  0-C ,  1-C ) :   1.3718 B(  0-C ,  5-C ) :   1.3901 B(  0-C , 19-H ) :   0.9320 
B(  1-C ,  2-C ) :   1.3437 B(  1-C , 20-H ) :   0.9433 B(  2-C ,  3-C ) :   1.2248 
B(  2-C , 18-Cl) :   1.0664 B(  3-C ,  4-C ) :   1.1092 B(  3-C , 17-Cl) :   1.2410 
B(  4-C ,  5-C ) :   1.2992 B(  4-C , 16-Cl) :   1.2588 B(  5-C ,  6-C ) :   0.7651 
B(  5-C , 16-Cl) :  -0.1007 B(  6-C ,  7-C ) :   1.3607 B(  6-C , 11-C ) :   1.2752 
B(  6-C , 12-Cl) :  -0.1007 B(  7-C ,  8-C ) :   1.3282 B(  7-C , 21-H ) :   0.9176 
B(  8-C ,  9-C ) :   1.2180 B(  8-C , 15-Cl) :   1.0802 B(  9-C , 10-C ) :   1.0970 
B(  9-C , 14-Cl) :   1.2463 B( 10-C , 11-C ) :   1.0967 B( 10-C , 13-Cl) :   1.2696 
B( 11-C , 12-Cl) :   1.2719 

-------
TIMINGS
-------

Total SCF time: 0 days 0 hours 1 min 16 sec 

Total time                  ....      76.212 sec
Sum of individual times     ....      75.483 sec  ( 99.0%)

SCF preparation             ....       0.303 sec  (  0.4%)
Fock matrix formation       ....      73.011 sec  ( 95.8%)
  Startup                   ....       0.081 sec  (  0.1% of F)
  Split-RI-J                ....      23.278 sec  ( 31.9% of F)
  XC integration            ....      48.896 sec  ( 67.0% of F)
    XC Preparation          ....       0.000 sec  (  0.0% of XC)
    Basis function eval.    ....       7.341 sec  ( 15.0% of XC)
    Density eval.           ....      19.357 sec  ( 39.6% of XC)
    XC-Functional eval.     ....       3.769 sec  (  7.7% of XC)
    XC-Potential eval.      ....      17.175 sec  ( 35.1% of XC)
Diagonalization             ....       0.000 sec  (  0.0%)
Density matrix formation    ....       0.361 sec  (  0.5%)
Total Energy calculation    ....       0.045 sec  (  0.1%)
Population analysis         ....       0.279 sec  (  0.4%)
Orbital Transformation      ....       0.155 sec  (  0.2%)
Orbital Orthonormalization  ....       0.000 sec  (  0.0%)
DIIS solution               ....       1.003 sec  (  1.3%)
  MO trafo                  ....       0.000 sec  (  0.0 % of DIIS)
  Orb grad                  ....       0.000 sec  (  0.0 % of DIIS)
  Energy W gradient         ....       0.000 sec  (  0.0 % of DIIS)
  DIIS error                ....       0.065 sec  (  6.5 % of DIIS)
  DIIS work                 ....       0.833 sec  ( 83.0 % of DIIS)
  Form Q                    ....       0.000 sec  (  0.0 % of DIIS)
  Form QpQm                 ....       0.000 sec  (  0.0 % of DIIS)
  Exp/Cayley                ....       0.000 sec  (  0.0 % of DIIS)
  Orb update                ....       0.000 sec  (  0.0 % of DIIS)
  Wake-sleep                ....       0.027 sec  (  2.7 % of DIIS)
SOSCF solution              ....       0.327 sec  (  0.4%)
  MO trafo                  ....       0.129 sec  ( 39.5 % of SOSCF)
  Orb grad                  ....       0.003 sec  (  0.8 % of SOSCF)
  Rot update                ....       0.056 sec  ( 17.1 % of SOSCF)
  Step                      ....       0.139 sec  ( 42.5 % of SOSCF)
Finished LeanSCF after  76.3 sec

Maximum memory used throughout the entire LEANSCF-calculation: 51.4 MB


-------------------------------------------------------------------------------
                          DFT DISPERSION CORRECTION                            
                                                                               
                                DFTD4 V3.4.0                                   
-------------------------------------------------------------------------------
The R2SCAN3C composite method is recognized
Using three-body term ABC
Active option DFTDOPT                   ...         5   

-------------------------   ----------------
Dispersion correction           -0.015741390
-------------------------   ----------------

------------------   -----------------
gCP correction             0.013284942
------------------   -----------------

-------------------------   --------------------
FINAL SINGLE POINT ENERGY     -3680.216982381290
-------------------------   --------------------


------------------------------------------------------------------------------
                              ORCA PROPERTY CALCULATIONS
------------------------------------------------------------------------------

GBWName                                 ... sp_gas.gbw
Number of atoms                         ...     22
Number of basis functions               ...    432
Max core memory                         ...   1024 MB

Electric properties:
Dipole moment                           ... YES
Quadrupole moment                       ...  NO
Static polarizability (Dipole/Dipole)   ...  NO
Static polarizability (Dipole/Quad.)    ...  NO
Static polarizability (Quad./Quad.)     ...  NO
Static polarizability (Velocity)        ...  NO

Atomic electric properties:
Dipole moment                           ...  NO
Quadrupole moment                       ...  NO
Static polarizability                   ...  NO

Choice of electric origin               ... Center of mass
Position of electric origin             ...     0.000002     0.000002    -0.000002

General magnetic properties:
Magnetizability                         ...  NO

EPR properties:
g-Tensor (aka g-matrix)                 ...  NO
Zero-Field splitting spin-orbit         ...  NO
Zero-field splitting spin-spin          ...  NO
Hyperfine couplings                     ...  NO (   0 nuclei)
Quadrupole couplings                    ...  NO (   0 nuclei)
Contact density                         ...  NO (   0 nuclei)

NMR properties:
Chemical shifts                         ...  NO (   0 nuclei)
Spin-rotation constants                 ...  NO (   0 nuclei)
Spin-spin couplings                     ...  NO (   0 nuclei,    0 pairs)

Choice of magnetic origin               ... GIAO
Position of magnetic origin             ...     0.000000     0.000000     0.000000

Properties with geometric perturbations:
SCF Hessian                             ...  NO
IR spectrum                             ...  NO
VCD spectrum                            ...  NO
X-ray spectroscopy properties:
SCF XES/XAS/RIXS spectra                ...  NO


-------------
DIPOLE MOMENT
-------------

Method             : SCF
Type of density    : Electron Density
Multiplicity       :   1
Irrep              :   0
Energy             : -3680.2145259335052287 Eh
Relativity type    : 
Basis              : AO
                                X                 Y                 Z
Electronic contribution:     -4.993629101      -4.471382891       5.936514977
Nuclear contribution   :      5.137848566       4.828550299      -6.533361409
                        -----------------------------------------
Total Dipole Moment    :      0.144219465       0.357167408      -0.596846432
                        -----------------------------------------
Magnitude (a.u.)       :      0.710347433
Magnitude (Debye)      :      1.805559683



--------------------
Rotational spectrum 
--------------------
 
Rotational constants in cm-1:             0.012911             0.003689             0.003201 
Rotational constants in MHz :           387.074952           110.593949            95.972827 

Dipole components along the rotational axes: 
x,y,z [a.u.] :     0.147388    -0.245436    -0.650101 
x,y,z [Debye]:     0.374630    -0.623849    -1.652425 

 

Dipole moment calculation done in   0.0 sec 

Maximum memory used throughout the entire PROP-calculation: 36.4 MB

--------------------------------
SUGGESTED CITATIONS FOR THIS RUN
--------------------------------

Below you find a list of papers that are relevant to this ORCA run
We neither can nor want to force you to cite these papers, but we appreciate if you do
You receive ORCA, which is the product of decades of hard work by many enthusiastic individuals, for free
The only thing we kindly ask in return is that you cite our papers,
We deeply appreciate it, if you show your appreciation for ORCA by not just citing the generic ORCA reference.

Please note that relegating all ORCA citations to the supporting information does *not* help us.
SI sections are not indexed - citations you put there will not count into any citation statistics
But we need these citations in order to attract the funding resources that allow us to do what we are doing

Therefore, if you are a happy ORCA user, please consider citing a few of the papers listed below in the main body of your paper

In addition to the list printed below, the program has created the file sp_gas.bibtex that contains the list in bibtex format
You can import this file easily into all common literature databanks and citation aid programs


List of essential papers. We consider these as the minimum necessary citations

  1. Neese,F.
     Software update: the ORCA program system, version 5.0
     WIRES Comput. Molec. Sci., 2022 12(1)e1606
     doi.org/10.1002/wcms.1606
  2. Grimme,S.; Hansen,A.; Ehlert,S.; Mewes,J.
     r2SCAN-3c: A 'Swiss army knife' composite electronic-structure method
     J. Chem. Phys., 2021 154 064103
     doi.org/10.1063/5.0040021

List of papers to cite with high priority. The work reported in these papers was absolutely
necessary for this run to complete.
Our perspective: the developers of density functionals and basis sets usually get cited in chemistry papers
Good! But without the algorithms to do something with them, the functionals or basis sets would not do anything.
Hence, in our opinion, the algorithm design and method developments papers are equally worthy of getting cited

  1. Neese,F.
     An improvement of the resolution of the identity approximation for the formation of the Coulomb matrix
     J. Comp. Chem., 2003 24(14)1740-1747
     doi.org/10.1002/jcc.10318
  2. Neese,F.
     The SHARK Integral Generation and Digestion System
     J. Comp. Chem., 2022  1-16
     doi.org/10.1002/jcc.26942
  3. Lehtola,S.; Steigemann,C.; Oliveira,M.; Marques,M.
     Recent developments in Libxc - A comprehensive library of functionals for density functional theory
     Software X, 2018 7 
     doi.org/10.1016/j.softx.2017.11.002
  4. Caldeweyher,E.; Bannwarth,C.; Grimme,S.
     Extension of the D3 dispersion coefficient model
     J. Chem. Phys., 2017 147 034112-XXXX
     doi.org/10.1063/1.4993215
  5. Caldeweyher,E.; Ehlert,S.; Hansen,A.; Neugebauer,H.; Spicher,S.; Bannwarth,C.; Grimme,S.
     A generally applicable atomic-charge dependent London dispersion correction
     J. Chem. Phys., 2019 150 154122-XXXX
     doi.org/10.1063/1.5090222
  6. Caldeweyher,E.; Mewes,J.; Ehlert,S.; Grimme,S.
     Extension and evaluation of the D4 London-dispersion model for periodic systems
     Phys. Chem. Chem. Phys., 2020 22(16)8499-8512
     doi.org/10.1039/D0CP00502A

List of suggested additional citations. These are papers that are important in the 'surrounding' of 
of this run, or papers that preceded the highly important papers. If you like your results we are grateful for a citation.

  1. Neese,F.
     The ORCA program system
     WIRES Comput. Molec. Sci., 2012 2(1)73-78
     doi.org/10.1002/wcms.81
  2. Neese,F.
     Software update: the ORCA program system, version 4.0
     WIRES Comput. Molec. Sci., 2018 8(1)1-6
     doi.org/10.1002/wcms.1327
  3. Neese,F.; Wennmohs,F.; Becker,U.; Riplinger,C.
     The ORCA quantum chemistry program package
     J. Chem. Phys., 2020 152 Art. No. L224108
     doi.org/10.1063/5.0004608

List of optional additional citations

  1. Neese,F.
     Approximate second-order SCF convergence for spin unrestricted wavefunctions
     Chem. Phys. Lett., 2000 325(1-3)93-98
     doi.org/10.1016/s0009-2614(00)00662-x

Timings for individual modules:

Sum of individual times          ...       79.261 sec (=   1.321 min)
Startup calculation              ...        2.316 sec (=   0.039 min)   2.9 %
SCF iterations                   ...       76.808 sec (=   1.280 min)  96.9 %
Property calculations            ...        0.137 sec (=   0.002 min)   0.2 %
                             ****ORCA TERMINATED NORMALLY****
TOTAL RUN TIME: 0 days 0 hours 1 minutes 19 seconds 910 msec
