13
 energy: -20.963167883468 gnorm: 0.039826242425 xtb: 6.7.1 (edcfbbe)
C           -1.13341458640304       -1.33899245689101       -0.50819202635036
C           -0.70410305102697       -0.20150184607294        0.41161181722532
C           -1.55757539295820        1.03856451355317        0.27595278267961
N            0.75250969154750        0.10550314516833        0.06567765130766
O            0.99496169597777        1.01873320826666       -0.71357069466322
O            1.61082824753297       -0.61921733894573        0.55930504227705
H           -1.11120737020891       -1.01745037600627       -1.55376228508622
H           -0.49531474926797       -2.21680331224396       -0.38075552495229
H           -2.15947285508099       -1.61323444916856       -0.24970047032489
H           -0.65457414785556       -0.54837735603136        1.44650840301595
H           -1.16841461973160        1.86207732618831        0.88020594434736
H           -2.55996729452829        0.79140135632709        0.63691574324436
H           -1.63545422396324        1.35869875373412       -0.76585072138320
13
 energy: -20.964909238399 gnorm: 0.018350886072 xtb: 6.7.1 (edcfbbe)
C           -1.13257275516868       -1.33605570958389       -0.50370787101637
C           -0.69729411494513       -0.20602199296653        0.42134695356556
C           -1.55131160673511        1.03364258647055        0.27687764642760
N            0.72769875916031        0.10020978334839        0.05839584431549
O            0.95542674290739        1.01692445216522       -0.70416724317323
O            1.58774511333483       -0.60899393877979        0.54757493211107
H           -1.10605577576115       -1.01178001247104       -1.54249614334930
H           -0.48649408166656       -2.20287830407845       -0.38371515515641
H           -2.15180620064100       -1.62265130277641       -0.25442206854037
H           -0.65047824854933       -0.55821442703614        1.45481029790304
H           -1.15498608220642        1.85314300942676        0.87166071440547
H           -2.55829383235108        0.80893249571367        0.62363864020022
H           -1.60277657334458        1.35314452844548       -0.76145088635564
13
 energy: -20.965115021163 gnorm: 0.014411814284 xtb: 6.7.1 (edcfbbe)
C           -1.12400126553887       -1.33112948139136       -0.49879249548184
C           -0.68693845980496       -0.19982950717780        0.42873718094994
C           -1.55330855206645        1.03468604520233        0.28041157411105
N            0.71164038720779        0.10766253938888        0.07252490013000
O            0.93161502839206        0.99356212652300       -0.71811569214386
O            1.56587377648240       -0.62679042896306        0.52240038673505
H           -1.09529746558831       -1.00211127661493       -1.53340216913034
H           -0.47126742158242       -2.19174211444738       -0.38352372550198
H           -2.13852548492016       -1.62673021072773       -0.25544724913726
H           -0.65396486669950       -0.55898187853349        1.46064113499520
H           -1.16336172003112        1.85273824064732        0.87763979621397
H           -2.56316329470750        0.81286503360704        0.60792501548161
H           -1.58049931710947        1.35520208036500       -0.75665299588443
13
 energy: -20.965319189059 gnorm: 0.007837195959 xtb: 6.7.1 (edcfbbe)
C           -1.12624051580942       -1.33359107719814       -0.49889808231588
C           -0.68291147504647       -0.19947058976861        0.42569970829783
C           -1.55208720689432        1.03569732160370        0.27982030952471
N            0.70938208163232        0.09431453145382        0.05545456944564
O            0.93298014915646        1.00341811497332       -0.70855597329713
O            1.56828224466505       -0.61769605252619        0.53339133715867
H           -1.10295106418634       -1.00386089325728       -1.53428790028131
H           -0.47288813744834       -2.19521036129098       -0.38592242611293
H           -2.13958238449669       -1.62639441037486       -0.24776214824099
H           -0.65205660982676       -0.55948018342469        1.45766869079446
H           -1.16484305317588        1.85286354067937        0.88187971604841
H           -2.56212916009289        0.81059776729928        0.60315721363979
H           -1.57615352444321        1.35821345970908       -0.75729935332416
13
 energy: -20.965373559847 gnorm: 0.002693611823 xtb: 6.7.1 (edcfbbe)
C           -1.12766785396157       -1.33411464181223       -0.49912713312688
C           -0.68436415656073       -0.19978201689588        0.42618220895300
C           -1.55178942567871        1.03595523448675        0.27863532632690
N            0.71312852989239        0.09810492132779        0.05919645325672
O            0.93776408177765        1.00442921489137       -0.71200074229915
O            1.57384283947093       -0.61896379625397        0.53218054255092
H           -1.10583363123085       -1.00539709123464       -1.53574537669395
H           -0.47447099849582       -2.19617375858703       -0.38527470268801
H           -2.14176145534319       -1.62621905923911       -0.24578981888039
H           -0.65343781207242       -0.55869529267982        1.45857672589448
H           -1.16812097400516        1.85179925002987        0.88594602642529
H           -2.56264873579039        0.80606394864624        0.59948490561663
H           -1.57583906396865        1.36239425519850       -0.75791875399844
13
 energy: -20.965382958850 gnorm: 0.001145922823 xtb: 6.7.1 (edcfbbe)
C           -1.12754298594152       -1.33424111512252       -0.49854894438909
C           -0.68303986623466       -0.19867328577138        0.42590290183521
C           -1.55195500645929        1.03647136849013        0.27853663225185
N            0.71232605977122        0.09813969866863        0.05955056595050
O            0.93809864051523        1.00264662724833       -0.71370598098193
O            1.57328050241659       -0.62019982546015        0.53088769893006
H           -1.10830557792590       -1.00544917184100       -1.53509299197462
H           -0.47305648408937       -2.19545712698598       -0.38601021982455
H           -2.14064074650668       -1.62706676921347       -0.24254533422897
H           -0.65301571302912       -0.55768107557737        1.45822637834102
H           -1.17221879280531        1.85082141149785        0.89033024785903
H           -2.56388365312282        0.80389391609585        0.59381792104158
H           -1.57124503255489        1.36619651584890       -0.75700321347297
13
 energy: -20.965388529353 gnorm: 0.001349505969 xtb: 6.7.1 (edcfbbe)
C           -1.12817611080543       -1.33476487536772       -0.49735647481328
C           -0.68141297088242       -0.19738650007555        0.42548083154589
C           -1.55165053701612        1.03719811887249        0.27801569788358
N            0.71142601372492        0.09751200607021        0.05832655322398
O            0.93938604963688        1.00077408079905       -0.71664323926953
O            1.57356223001279       -0.62025136983012        0.52990580299785
H           -1.11447177377062       -1.00564326785163       -1.53383625426015
H           -0.47119029523790       -2.19439973174866       -0.38764094780798
H           -2.13936079270264       -1.62915140800639       -0.23575482772135
H           -0.65196345353925       -0.55605849844274        1.45792495800257
H           -1.18007382391068        1.84798106402005        0.89969527380393
H           -2.56605631353520        0.79948289705838        0.58153561989690
H           -1.56121687794085        1.37410865238048       -0.75530733214529
13
 energy: -20.965391027016 gnorm: 0.000880429706 xtb: 6.7.1 (edcfbbe)
C           -1.12852041697451       -1.33480656230356       -0.49685208017146
C           -0.68177059662987       -0.19747574496588        0.42561522973084
C           -1.55148752501377        1.03723190151936        0.27797879183214
N            0.71164500281387        0.09740090899928        0.05765484022262
O            0.93938948117294        1.00000328993581       -0.71799726611048
O            1.57390576835016       -0.61954078211912        0.52996634214596
H           -1.11661650446398       -1.00540046387306       -1.53322271566184
H           -0.47060892465349       -2.19384870947689       -0.38833643158913
H           -2.13901538869281       -1.63046984956212       -0.23405232342709
H           -0.65135716034525       -0.55574657463726        1.45818395049645
H           -1.18231659670932        1.84661510457203        0.90267425428432
H           -2.56698247988120        0.79903746929879        0.57726736506516
H           -1.55746331493927        1.37640118049044       -0.75453429548040
13
 energy: -20.965393864083 gnorm: 0.000192029857 xtb: 6.7.1 (edcfbbe)
C           -1.12917919523014       -1.33484914572374       -0.49582043109942
C           -0.68219308379599       -0.19764277548816        0.42594494598004
C           -1.55099942743837        1.03739122259108        0.27805933161646
N            0.71182543219234        0.09739667027837        0.05637186980602
O            0.93829008124619        0.99790674963823       -0.72168487970086
O            1.57417069560597       -0.61779295515369        0.53048204453962
H           -1.12043668024480       -1.00487253661293       -1.53202947465035
H           -0.46953219662953       -2.19282829932321       -0.38957103558128
H           -2.13840454792333       -1.63297487882966       -0.23099244404963
H           -0.65020273667222       -0.55512546921091        1.45876049666898
H           -1.18670987591324        1.84387082594037        0.90929384492322
H           -2.56862547265448        0.79775550383641        0.56843960903411
H           -1.54920164850889        1.38116625593569       -0.75290821614981
13
 energy: -20.965394861471 gnorm: 0.000241361278 xtb: 6.7.1 (edcfbbe)
C           -1.12954133167033       -1.33477975067906       -0.49519010032688
C           -0.68195369570206       -0.19735804209984        0.42592352192898
C           -1.55102153310995        1.03758904844862        0.27816146634251
N            0.71230884034254        0.09707078293780        0.05544386555544
O            0.93838131476031        0.99531403087543       -0.72531526693385
O            1.57471853566459       -0.61660061026141        0.53170304111200
H           -1.12367120188729       -1.00446471171585       -1.53133440745389
H           -0.46861844322836       -2.19204046740400       -0.39074888443543
H           -2.13775369715723       -1.63434148813274       -0.22806401953370
H           -0.64925278573978       -0.55450100128175        1.45881660493786
H           -1.19107778054855        1.84181648929728        0.91468977213512
H           -2.57016776571489        0.79619863654922        0.56159276298992
H           -1.54354911197550        1.38549825134414       -0.75133269498097
13
 energy: -20.965395302104 gnorm: 0.000172361804 xtb: 6.7.1 (edcfbbe)
C           -1.12992240495328       -1.33494149026403       -0.49489467258243
C           -0.68181283945800       -0.19744370209721        0.42602807372492
C           -1.55048381902191        1.03779853628406        0.27826764477146
N            0.71204987351197        0.09716446659680        0.05488858485358
O            0.93743729979276        0.99323285437787       -0.72858275038844
O            1.57491301580003       -0.61443639848063        0.53340745013926
H           -1.12604545182290       -1.00416580423882       -1.53088411253528
H           -0.46813528012036       -2.19172132763638       -0.39190945768966
H           -2.13739884012818       -1.63549862818799       -0.22614247077587
H           -0.64892392044774       -0.55450544727258        1.45894121948203
H           -1.19345135549816        1.84019934148350        0.91868711066075
H           -2.57061998465904        0.79510612456051        0.55674887295672
H           -1.53880494896169        1.38861264275275       -0.75020983127994
13
 energy: -20.965395576665 gnorm: 0.000077685064 xtb: 6.7.1 (edcfbbe)
C           -1.13011485156970       -1.33471432397180       -0.49488583364199
C           -0.68156031678553       -0.19729578620616        0.42601995758511
C           -1.55051279186050        1.03786083847139        0.27851236921285
N            0.71216342459503        0.09693236432428        0.05464883076093
O            0.93733895774201        0.99057833113840       -0.73166096658812
O            1.57530797861006       -0.61275701991478        0.53556404621056
H           -1.12764411564050       -1.00349277604847       -1.53071877831584
H           -0.46766478249287       -2.19110544492022       -0.39296647944199
H           -2.13706189117471       -1.63600892091381       -0.22494828690987
H           -0.64855444800345       -0.55448517822681        1.45885572580405
H           -1.19521979571560        1.83921595145343        0.92115608631637
H           -2.57122172905298        0.79436113041083        0.55411347425808
H           -1.53645429461777        1.39031200228156       -0.74934448391304
13
 energy: -20.965395865726 gnorm: 0.000123794054 xtb: 6.7.1 (edcfbbe)
C           -1.13013396200475       -1.33455422514365       -0.49514440056644
C           -0.68150645167353       -0.19735508659035        0.42607808041929
C           -1.55047974776304        1.03791885961849        0.27880100899457
N            0.71214231807089        0.09674995626957        0.05467431823500
O            0.93708381792408        0.98822684766283       -0.73421129199119
O            1.57563466068626       -0.61095123911839        0.53798351707685
H           -1.12821134017276       -1.00284997565824       -1.53081743242657
H           -0.46748302625890       -2.19088369199370       -0.39390264089843
H           -2.13687339606024       -1.63617549233415       -0.22481504105179
H           -0.64850088015682       -0.55484669798548        1.45879642211459
H           -1.19558052984757        1.83898922750934        0.92198745733483
H           -2.57130249609058        0.79427324828670        0.55377636031191
H           -1.53598762261956        1.39085943735488       -0.74886069621552
13
 energy: -20.965396185912 gnorm: 0.000132893967 xtb: 6.7.1 (edcfbbe)
C           -1.13008105478165       -1.33430738836611       -0.49560833755714
C           -0.68154882165885       -0.19752412986156        0.42617147827707
C           -1.55048937221724        1.03782647656779        0.27909235383347
N            0.71207740996675        0.09665933983141        0.05493754668525
O            0.93682313025779        0.98658128117560       -0.73575549224208
O            1.57586541983908       -0.60941732639766        0.54010666333774
H           -1.12759980546515       -1.00227063012357       -1.53116653804260
H           -0.46768500194915       -2.19082124594959       -0.39432583770499
H           -2.13699844586329       -1.63577831263290       -0.22578413177216
H           -0.64870736760951       -0.55541101230530        1.45875233049508
H           -1.19449927075775        1.83935328456145        0.92111300950119
H           -2.57099359610591        0.79462731498359        0.55572539231645
H           -1.53736187962162        1.38988351639471       -0.74891277579015
13
 energy: -20.965396474776 gnorm: 0.000089163500 xtb: 6.7.1 (edcfbbe)
C           -1.13002006783899       -1.33415381555662       -0.49606461017874
C           -0.68166764462876       -0.19776175983898        0.42624899415185
C           -1.55041754568984        1.03775482497747        0.27944436764168
N            0.71197545635347        0.09662375354028        0.05511863697728
O            0.93637621961036        0.98480751695608       -0.73762797322867
O            1.57607314147178       -0.60757877963980        0.54242915551737
H           -1.12677195534207       -1.00179775334408       -1.53151886007052
H           -0.46805362398124       -2.19099562867561       -0.39468590409467
H           -2.13722431756263       -1.63532061861322       -0.22697888594879
H           -0.64882862001271       -0.55591969216183        1.45872507158146
H           -1.19343469672909        1.83966269095682        0.92051349344650
H           -2.57064681819943        0.79496369942102        0.55759047397756
H           -1.53855818341735        1.38911672985629       -0.74884829843519
13
 energy: -20.965396688408 gnorm: 0.000050671883 xtb: 6.7.1 (edcfbbe)
C           -1.13003743362990       -1.33397235868275       -0.49635264086846
C           -0.68167356797592       -0.19794687461116        0.42634657289530
C           -1.55036464261212        1.03762535818181        0.27972908623771
N            0.71193246158012        0.09661015222177        0.05511915137068
O            0.93593950500640        0.98324753021813       -0.73944577018319
O            1.57631518960662       -0.60595343904504        0.54422924723031
H           -1.12609585879092       -1.00143978959543       -1.53175682554891
H           -0.46847528243316       -2.19109170277992       -0.39477037422928
H           -2.13750265126480       -1.63479210613155       -0.22785764285959
H           -0.64880519277201       -0.55629202191545        1.45876362695057
H           -1.19298155116184        1.83956640373503        0.92053540934031
H           -2.57048404854241        0.79499167822716        0.55843369869723
H           -1.53896558297658        1.38884833805523       -0.74862787769557
13
 energy: -20.965396895691 gnorm: 0.000054732380 xtb: 6.7.1 (edcfbbe)
C           -1.13005286570249       -1.33386827871080       -0.49654137645739
C           -0.68167739049528       -0.19806570544174        0.42638953138056
C           -1.55032374850588        1.03756960108137        0.28006121577303
N            0.71189577835398        0.09660695722209        0.05498646147197
O            0.93550411308509        0.98169828084711       -0.74139240853161
O            1.57656438743007       -0.60439774615774        0.54577604034119
H           -1.12542352226422       -1.00126981544135       -1.53192238161206
H           -0.46894968626312       -2.19131125058059       -0.39470522443805
H           -2.13779827365066       -1.63425333504001       -0.22860433593267
H           -0.64864886989269       -0.55651043851607        1.45875783218135
H           -1.19301248347121        1.83932854686033        0.92115319101213
H           -2.57047514040122        0.79484401034988        0.55860226071756
H           -1.53880095418887        1.38903034140535       -0.74821514456891
13
 energy: -20.965397137181 gnorm: 0.000061233309 xtb: 6.7.1 (edcfbbe)
C           -1.13010019042726       -1.33373893759240       -0.49668197526756
C           -0.68161072844805       -0.19817508522286        0.42646877303063
C           -1.55029011001455        1.03749623016145        0.28041880429650
N            0.71186668729018        0.09659203605752        0.05474038019802
O            0.93498714579423        0.97985563454406       -0.74380260812783
O            1.57690978506974       -0.60260858471459        0.54741419163508
H           -1.12473767678591       -1.00112452149397       -1.53206428681245
H           -0.46951926715627       -2.19154883030657       -0.39450862703832
H           -2.13815798622752       -1.63357922892880       -0.22928758065519
H           -0.64834176361663       -0.55673778760060        1.45878475202810
H           -1.19345906946405        1.83882008056138        0.92231427535660
H           -2.57058829330709        0.79450422631963        0.55816169806540
H           -1.53815718867335        1.38964593609358       -0.74761213537188
13
 energy: -20.965397406660 gnorm: 0.000046875374 xtb: 6.7.1 (edcfbbe)
C           -1.13016601330185       -1.33360805422565       -0.49682381343173
C           -0.68150716358265       -0.19825924974025        0.42651902873503
C           -1.55025368663499        1.03744235562695        0.28087255885767
N            0.71183703381809        0.09657032327350        0.05441394371608
O            0.93442563366121        0.97762147241717       -0.74672247837870
O            1.57732534249082       -0.60047488911317        0.54934754040504
H           -1.12407560860221       -1.00097264690124       -1.53219760246091
H           -0.47016170638324       -2.19183006270155       -0.39434065465300
H           -2.13854263452253       -1.63284709682618       -0.22993992939587
H           -0.64797726155450       -0.55696135324984        1.45876515983324
H           -1.19418275573727        1.83818913496289        0.92389358696809
H           -2.57077853424511        0.79403048388126        0.55737800915053
H           -1.53714130137226        1.39050075047394       -0.74681968800836
13
 energy: -20.965397663327 gnorm: 0.000035761020 xtb: 6.7.1 (edcfbbe)
C           -1.13023446790395       -1.33345869333694       -0.49698039562813
C           -0.68140839114396       -0.19835344348363        0.42659749731579
C           -1.55021271431228        1.03739967016580        0.28129616063736
N            0.71179920899092        0.09651997856354        0.05412806432996
O            0.93384883925557        0.97520209090633       -0.74977257073272
O            1.57775136671353       -0.59826263800724        0.55143356996307
H           -1.12359962989532       -1.00074037497982       -1.53233018275924
H           -0.47069001335869       -2.19202224161107       -0.39431953656621
H           -2.13885931781102       -1.63221740974197       -0.23046905669688
H           -0.64758898771840       -0.55721397743918        1.45876828110515
H           -1.19494175048899        1.83751441886333        0.92553793800096
H           -2.57098053034750        0.79356442533027        0.55648663584053
H           -1.53608226794643        1.39146936264839       -0.74603074347253
13
 energy: -20.965397878868 gnorm: 0.000036879003 xtb: 6.7.1 (edcfbbe)
C           -1.13031248820691       -1.33332927106143       -0.49713580335679
C           -0.68131968256786       -0.19844180031275        0.42664619005258
C           -1.55015907028894        1.03736163858443        0.28166391305919
N            0.71178035725095        0.09646903128747        0.05390922880630
O            0.93340389312664        0.97307029987240       -0.75238297423648
O            1.57811590392658       -0.59627895324080        0.55338106557116
H           -1.12338947294253       -1.00044189726148       -1.53242952343435
H           -0.47106442032578       -2.19212709339249       -0.39449669019352
H           -2.13907332731293       -1.63182144637048       -0.23083331380380
H           -0.64734203569620       -0.55745551652157        1.45874914068789
H           -1.19550818950392        1.83698791261690        0.92683401543849
H           -2.57112283099036        0.79321887803164        0.55581675009019
H           -1.53520729243525        1.39218938564600       -0.74537633734373
13
 energy: -20.965397945131 gnorm: 0.000042755166 xtb: 6.7.1 (edcfbbe)
C           -1.13036948977020       -1.33331863149169       -0.49723173352915
C           -0.68132651044131       -0.19851023157250        0.42663346210864
C           -1.55010065063063        1.03732636558433        0.28165389073310
N            0.71178866015505        0.09643906427890        0.05397615602618
O            0.93340691176114        0.97261938668853       -0.75276353537968
O            1.57817966244361       -0.59572825130494        0.55413752872811
H           -1.12381519902851       -1.00021179603751       -1.53245487659703
H           -0.47098540874816       -2.19204474883067       -0.39499719803806
H           -2.13900810827605       -1.63200795337786       -0.23071779705953
H           -0.64737574156449       -0.55746482626965        1.45875793249328
H           -1.19529704060992        1.83692710095192        0.92678850909672
H           -2.57104314087826        0.79323349415243        0.55596888250610
H           -1.53525260037878        1.39214219510657       -0.74540555975156
