5
 energy: -4.174672961124 gnorm: 0.013652602072 xtb: 6.7.1 (edcfbbe)
C           -0.00002041796432       -0.00003787943599       -0.00001619666200
H            0.60107236552897       -0.19069738903692        0.89171903693562
H            0.65621426659361        0.26839240452306       -0.83080328197239
H           -0.56453090120629       -0.89883050311976       -0.25763374830044
H           -0.69275940363457        0.82113092672106        0.19669579558461
5
 energy: -4.174934672605 gnorm: 0.001978522504 xtb: 6.7.1 (edcfbbe)
C           -0.00000542788722       -0.00001509533426       -0.00000658834970
H            0.59623614400489       -0.18919502562298        0.88455532927424
H            0.65091239140815        0.26622296411367       -0.82412744238460
H           -0.55996845057534       -0.89156724230908       -0.25555133018999
H           -0.68719874763308        0.81451195880409        0.19509163723545
5
 energy: -4.174938427591 gnorm: 0.001097436577 xtb: 6.7.1 (edcfbbe)
C           -0.00000370012651       -0.00000824110915       -0.00000795224302
H            0.59500430614445       -0.18880728987352        0.88272772205545
H            0.64956902382642        0.26567390425162       -0.82242484984853
H           -0.55881360693503       -0.88973076754744       -0.25502147795159
H           -0.68578011359193        0.81282995392995        0.19468816357309
5
 energy: -4.174940073067 gnorm: 0.000005157956 xtb: 6.7.1 (edcfbbe)
C           -0.00000356493604       -0.00000885074406       -0.00000738540047
H            0.59544372339128       -0.18894659121250        0.88338000426930
H            0.65004816279591        0.26586908260042       -0.82303270568814
H           -0.55922537547010       -0.89038564558466       -0.25521029896802
H           -0.68628703646364        0.81342956459225        0.19483199137272
5
 energy: -4.174940073104 gnorm: 0.000000470606 xtb: 6.7.1 (edcfbbe)
C           -0.00000367106964       -0.00000901010793       -0.00000745863954
H            0.59544163604176       -0.18894567408128        0.88337683801387
H            0.65004597226621        0.26586832677683       -0.82302968766786
H           -0.55922362935844       -0.89038291523637       -0.25520949036489
H           -0.68628439856249        0.81342683230019        0.19483140424383
