
                                 *****************
                                 * O   R   C   A *
                                 *****************

                                            #,                                       
                                            ###                                      
                                            ####                                     
                                            #####                                    
                                            ######                                   
                                           ########,                                 
                                     ,,################,,,,,                         
                               ,,#################################,,                 
                          ,,##########################################,,             
                       ,#########################################, ''#####,          
                    ,#############################################,,   '####,        
                  ,##################################################,,,,####,       
                ,###########''''           ''''###############################       
              ,#####''   ,,,,##########,,,,          '''####'''          '####       
            ,##' ,,,,###########################,,,                        '##       
           ' ,,###''''                  '''############,,,                           
         ,,##''                                '''############,,,,        ,,,,,,###''
      ,#''                                            '''#######################'''  
     '                                                          ''''####''''         
             ,#######,   #######,   ,#######,      ##                                
            ,#'     '#,  ##    ##  ,#'     '#,    #''#        ,####,   ,####,        
            ##       ##  ##   ,#'  ##            #'  '#       #'       #'  '#        
            ##       ##  #######   ##           ,######,      #####,   #    #        
            '#,     ,#'  ##    ##  '#,     ,#' ,#      #,     #,   #   #,  ,#        
             '#######'   ##     ##  '#######'  #'      '#     '####' # '####'        



                #########################################################
                #                        -***-                          #
                #          Department of theory and spectroscopy        #
                #                                                       #
                #                      Frank Neese                      #
                #                                                       #
                #     Directorship, Architecture, Infrastructure        #
                #                    SHARK, DRIVERS                     #
                #        Core code/Algorithms in most modules           #
                #                                                       #
                #        Max Planck Institute fuer Kohlenforschung      #
                #                Kaiser Wilhelm Platz 1                 #
                #                 D-45470 Muelheim/Ruhr                 #
                #                      Germany                          #
                #                                                       #
                #                  All rights reserved                  #
                #                        -***-                          #
                #########################################################


                         Program Version 6.0.0  -   RELEASE  -


 With contributions from (in alphabetic order):
   Daniel Aravena         : Magnetic Suceptibility
   Michael Atanasov       : Ab Initio Ligand Field Theory (pilot matlab implementation)
   Alexander A. Auer      : GIAO ZORA, VPT2 properties, NMR spectrum
   Ute Becker             : All parallelization in ORCA, NUMFREQ, NUMCALC
   Giovanni Bistoni       : ED, misc. LED, open-shell LED, HFLD
   Martin Brehm           : Molecular dynamics
   Dmytro Bykov           : pre 5.0 version of the SCF Hessian
   Marcos Casanova-Páez   : Triplet and SCS-CIS(D). UHF-(DLPNO)-IP/EA/STEOM-CCSD. UHF-CVS-IP/STEOM-CCSD
   Vijay G. Chilkuri      : MRCI spin determinant printing, contributions to CSF-ICE
   Pauline Colinet        : FMM embedding
   Dipayan Datta          : RHF DLPNO-CCSD density
   Achintya Kumar Dutta   : EOM-CC, STEOM-CC
   Nicolas Foglia         : Exact transition moments, OPA infrastructure, MCD improvements
   Dmitry Ganyushin       : Spin-Orbit,Spin-Spin,Magnetic field MRCI
   Miquel Garcia          : C-PCM and meta-GGA Hessian, CCSD/C-PCM, Gaussian charge scheme
   Tiago L. C. Gouveia    : GS-ROHF, GS-ROCIS
   Yang Guo               : DLPNO-NEVPT2, F12-NEVPT2, CIM, IAO-localization
   Andreas Hansen         : Spin unrestricted coupled pair/coupled cluster methods
   Ingolf Harden          : AUTO-CI MPn and infrastructure 
   Benjamin Helmich-Paris : MC-RPA, TRAH-(SCF,CASSCF), AVAS, COSX integrals, SCF dyn. polar.
   Lee Huntington         : MR-EOM, pCC
   Robert Izsak           : Overlap fitted RIJCOSX, COSX-SCS-MP3, EOM
   Riya Kayal             : Wick's Theorem for AUTO-CI, AUTO-CI UHF-CCSDT
   Emily Kempfer          : AUTO-CI, RHF CISDT and CCSDT
   Christian Kollmar      : KDIIS, OOCD, Brueckner-CCSD(T), CCSD density, CASPT2, CASPT2-K, improved NEVPT2
   Axel Koslowski         : Symmetry handling
   Simone Kossmann        : Meta GGA functionals, TD-DFT gradient, OOMP2, (MP2 Hessian; deprecated post 5.0)
   Lucas Lang             : DCDCAS
   Marvin Lechner         : AUTO-CI (C++ implementation), FIC-MRCC
   Spencer Leger          : CASSCF response
   Dagmar Lenk            : GEPOL surface, SMD, ORCA-2-JSON
   Dimitrios Liakos       : Extrapolation schemes; Compound Job, initial MDCI parallelization
   Dimitrios Manganas     : Further ROCIS development; embedding schemes. LFT, Crystal Embedding
   Dimitrios Pantazis     : SARC Basis sets
   Anastasios Papadopoulos: AUTO-CI, single reference methods and gradients
   Taras Petrenko         : pre 6.0 DFT Hessian and TD-DFT gradient, (ASA, deprecated), ECA, 1-Electron XAS/XES, NRVS
   Peter Pinski           : DLPNO-MP2, DLPNO-MP2 Gradient
   Christoph Reimann      : Effective Core Potentials
   Marius Retegan         : Local ZFS, SOC
   Christoph Riplinger    : Optimizer, TS searches, QM/MM, DLPNO-CCSD(T), (RO)-DLPNO pert. Triples
   Michael Roemelt        : Original ROCIS implementation
   Masaaki Saitow         : Open-shell DLPNO-CCSD energy and density
   Barbara Sandhoefer     : DKH picture change effects
   Kantharuban Sivalingam : CASSCF convergence/infrastructure, NEVPT2 and variants, FIC-MRCI
   Bernardo de Souza      : ESD, SOC TD-DFT
   Georgi Stoychev        : AutoAux, RI-MP2 NMR, DLPNO-MP2 response, X2C
   Van Anh Tran           : RI-MP2 g-tensors
   Willem Van den Heuvel  : Paramagnetic NMR
   Zikuan Wang            : NOTCH, Electric field optimization 
   Frank Wennmohs         : Technical directorship and infrastructure
   Hang Xu                : AUTO-CI-Response properties 


 We gratefully acknowledge several colleagues who have allowed us to
 interface, adapt or use parts of their codes:
   Stefan Grimme, W. Hujo, H. Kruse, P. Pracht,  : VdW corrections, initial TS optimization,
                  C. Bannwarth, S. Ehlert,         DFT functionals, gCP, sTDA/sTD-DF
                  L. Wittmann, M. Mueller
   Ed Valeev, F. Pavosevic, A. Kumar             : LibInt (2-el integral package), F12 methods
   Garnet Chan, S. Sharma, J. Yang, R. Olivares  : DMRG
   Ulf Ekstrom                                   : XCFun DFT Library
   Mihaly Kallay                                 : mrcc  (arbitrary order and MRCC methods)
   Frank Weinhold                                : gennbo (NPA and NBO analysis)
   Simon Mueller                                 : openCOSMO-RS
   Christopher J. Cramer and Donald G. Truhlar   : smd solvation model
   Lars Goerigk                                  : TD-DFT with DH, B97 family of functionals
   V. Asgeirsson, H. Jonsson                     : NEB implementation
   FAccTs GmbH                                   : IRC, NEB, NEB-TS, DLPNO-Multilevel, CI-OPT
                                                   MM, QMMM, 2- and 3-layer-ONIOM, Crystal-QMMM,
                                                   LR-CPCM, SF, NACMEs, symmetry and pop. for TD-DFT,
                                                   nearIR, NL-DFT gradient (VV10), updates on ESD,
                                                   ML-optimized integration grids, MBIS, APM,
                                                   GOAT, DOCKER, SOLVATOR, interface openCOSMO-RS
   S Lehtola, MJT Oliveira, MAL Marques          : LibXC Library
   Liviu Ungur et al                             : ANISO software


 Your calculation uses the libint2 library for the computation of 2-el integrals
 For citations please refer to: http://libint.valeyev.net

 Your ORCA version has been built with support for libXC version: 6.2.2
 For citations please refer to: https://libxc.gitlab.io

 This ORCA versions uses:
   CBLAS   interface :  Fast vector & matrix operations
   LAPACKE interface :  Fast linear algebra routines
   SCALAPACK package :  Parallel linear algebra routines
   Shared memory     :  Shared parallel matrices
   BLAS/LAPACK       :  OpenBLAS 0.3.27  USE64BITINT DYNAMIC_ARCH NO_AFFINITY SkylakeX SINGLE_THREADED
        Core in use  :  SkylakeX
   Copyright (c) 2011-2014, The OpenBLAS Project


Your calculation utilizes the geometrical counterpoise correction gCP
Please cite in your paper:
H.Kruse, S. Grimme J.Chem.Phys., 136, (2012), 154101 
   

Your calculation utilizes the atom-pairwise dispersion correction
based on EEQ partial charges (D4)


================================================================================

----- Orbital basis set information -----
Your calculation utilizes the basis: def2-SV(P)
   F. Weigend and R. Ahlrichs, Phys. Chem. Chem. Phys. 7, 3297 (2005).

----- AuxJ basis set information -----
Your calculation utilizes the auxiliary basis: def2/J
   F. Weigend, Phys. Chem. Chem. Phys. 8, 1057 (2006).

================================================================================
                                        WARNINGS
                       Please study these warnings very carefully!
================================================================================


================================================================================
                                       INPUT FILE
================================================================================
NAME = sp.inp
|  1> ! pbe def2-sv(p) def2/J RI DEFGRID1 loosescf d4 GCP(DFT/SV(P)) printgap
|  2> %output
|  3>     printlevel normal
|  4> end
|  5> * xyz 0 1
|  6> C -1.7769127013 -1.017073358 -0.6846116318
|  7> C -1.0492880829 -0.4742971485 0.5593951972
|  8> H -1.7115731718 -0.5747019941 1.4290474267
|  9> C -0.7054624135 1.0163859565 0.41697452
| 10> H -1.561222787 1.511838627 -0.0539843065
| 11> C 0.5351937979 1.2455182665 -0.4679875609
| 12> H 0.8363292339 2.2962818496 -0.3135254713
| 13> C 1.6926525719 0.3436913106 0.0079668959
| 14> H 2.4885018399 0.3397564921 -0.7495857763
| 15> C 1.2467350269 -1.1199271751 0.1616754474
| 16> H 2.0068392348 -1.6323453549 0.7740299325
| 17> O 0.0762189951 -1.2730526583 0.9168159172
| 18> O 1.1631068168 -1.6782907231 -1.1107986131
| 19> O 2.1813070806 0.7596490037 1.2615064359
| 20> O 0.1909441132 1.0306363892 -1.8095135437
| 21> O -0.5333420198 1.6270569084 1.6727123283
| 22> O -3.0513157597 -0.4456905565 -0.8404151111
| 23> H -1.8430160587 -2.1088022086 -0.5963753583
| 24> H -1.2168992557 -0.760705797 -1.5850035864
| 25> H 0.9985362468 -2.6305315066 -1.0455888873
| 26> H 2.6864846781 1.5801323773 1.1619173731
| 27> H 0.9502753786 1.2138116108 -2.3813217789
| 28> H 0.2367798987 1.2217070695 2.1069440013
| 29> H -3.6181152613 -0.7108643517 -0.101595128
| 30> *
| 31> 
| 32>                          ****END OF INPUT****
================================================================================

                       ****************************
                       * Single Point Calculation *
                       ****************************

---------------------------------
CARTESIAN COORDINATES (ANGSTROEM)
---------------------------------
  C     -1.776913   -1.017073   -0.684612
  C     -1.049288   -0.474297    0.559395
  H     -1.711573   -0.574702    1.429047
  C     -0.705462    1.016386    0.416975
  H     -1.561223    1.511839   -0.053984
  C      0.535194    1.245518   -0.467988
  H      0.836329    2.296282   -0.313525
  C      1.692653    0.343691    0.007967
  H      2.488502    0.339756   -0.749586
  C      1.246735   -1.119927    0.161675
  H      2.006839   -1.632345    0.774030
  O      0.076219   -1.273053    0.916816
  O      1.163107   -1.678291   -1.110799
  O      2.181307    0.759649    1.261506
  O      0.190944    1.030636   -1.809514
  O     -0.533342    1.627057    1.672712
  O     -3.051316   -0.445691   -0.840415
  H     -1.843016   -2.108802   -0.596375
  H     -1.216899   -0.760706   -1.585004
  H      0.998536   -2.630532   -1.045589
  H      2.686485    1.580132    1.161917
  H      0.950275    1.213812   -2.381322
  H      0.236780    1.221707    2.106944
  H     -3.618115   -0.710864   -0.101595

----------------------------
CARTESIAN COORDINATES (A.U.)
----------------------------
  NO LB      ZA    FRAG     MASS         X           Y           Z
   0 C     6.0000    0    12.011   -3.357878   -1.921990   -1.293728
   1 C     6.0000    0    12.011   -1.982867   -0.896292    1.057104
   2 H     1.0000    0     1.008   -3.234405   -1.086029    2.700508
   3 C     6.0000    0    12.011   -1.333131    1.920691    0.787968
   4 H     1.0000    0     1.008   -2.950284    2.856961   -0.102016
   5 C     6.0000    0    12.011    1.011370    2.353688   -0.884368
   6 H     1.0000    0     1.008    1.580433    4.339344   -0.592477
   7 C     6.0000    0    12.011    3.198650    0.649482    0.015055
   8 H     1.0000    0     1.008    4.702587    0.642047   -1.416512
   9 C     6.0000    0    12.011    2.355988   -2.116356    0.305522
  10 H     1.0000    0     1.008    3.792377   -3.084686    1.462705
  11 O     8.0000    0    15.999    0.144033   -2.405721    1.732531
  12 O     8.0000    0    15.999    2.197953   -3.171510   -2.099105
  13 O     8.0000    0    15.999    4.122073    1.435529    2.383902
  14 O     8.0000    0    15.999    0.360832    1.947621   -3.419485
  15 O     8.0000    0    15.999   -1.007870    3.074692    3.160968
  16 O     8.0000    0    15.999   -5.766151   -0.842233   -1.588154
  17 H     1.0000    0     1.008   -3.482796   -3.985059   -1.126986
  18 H     1.0000    0     1.008   -2.299606   -1.437526   -2.995223
  19 H     1.0000    0     1.008    1.886960   -4.970984   -1.975877
  20 H     1.0000    0     1.008    5.076720    2.986017    2.195706
  21 H     1.0000    0     1.008    1.795760    2.293772   -4.500046
  22 H     1.0000    0     1.008    0.447449    2.308692    3.981547
  23 H     1.0000    0     1.008   -6.837247   -1.343339   -0.191987

--------------------------------
INTERNAL COORDINATES (ANGSTROEM)
--------------------------------
 C      0   0   0     0.000000000000     0.00000000     0.00000000
 C      1   0   0     1.539998892694     0.00000000     0.00000000
 H      2   1   0     1.097723859754   108.82409516     0.00000000
 C      2   1   3     1.536436090361   111.88906448   241.61819042
 H      4   2   1     1.095263156423   107.69204530    40.68305000
 C      4   2   1     1.541066946957   112.18790384   281.54018421
 H      6   4   2     1.103922640183   106.30704937   193.10978045
 C      6   4   2     1.542574250027   109.87476258   309.70441001
 H      8   6   4     1.098761844683   109.44170620   167.36953809
 C      8   6   4     1.537741150983   111.69711043    50.30885487
 H     10   8   6     1.102410455901   107.33712520   196.52173655
 O     10   8   6     1.401353746716   113.58324788   309.74938313
 O     10   8   6     1.392104077972   107.92743541    76.49727887
 O      8   6   4     1.408249058109   111.24345602   290.78691253
 O      6   4   2     1.401561282690   109.21541458    74.11761836
 O      4   2   1     1.406919288593   111.45468171   157.07834710
 O      1   2   3     1.405295764340   112.00766162    51.77190861
 H      1   2   3     1.097281721826   108.31099740   288.99171839
 H      1   2   3     1.090891863337   109.95934161   169.56918724
 H     13  10   8     0.968554743218   110.05997095   172.55235861
 H     14   8   6     0.968666791420   109.85466316   287.16063290
 H     15   6   4     0.968040180088   110.10308797   177.21125015
 H     16   4   2     0.972601360829   108.32827523    64.26878987
 H     17   1   2     0.968211642206   109.56787223   294.97088252

---------------------------
INTERNAL COORDINATES (A.U.)
---------------------------
 C      0   0   0     0.000000000000     0.00000000     0.00000000
 C      1   0   0     2.910176153734     0.00000000     0.00000000
 H      2   1   0     2.074397465606   108.82409516     0.00000000
 C      2   1   3     2.903443433056   111.88906448   241.61819042
 H      4   2   1     2.069747410213   107.69204530    40.68305000
 C      4   2   1     2.912194483786   112.18790384   281.54018421
 H      6   4   2     2.086111462980   106.30704937   193.10978045
 C      6   4   2     2.915042873789   109.87476258   309.70441001
 H      8   6   4     2.076358972852   109.44170620   167.36953809
 C      8   6   4     2.905909640218   111.69711043    50.30885487
 H     10   8   6     2.083253848823   107.33712520   196.52173655
 O     10   8   6     2.648174798038   113.58324788   309.74938313
 O     10   8   6     2.630695457281   107.92743541    76.49727887
 O      8   6   4     2.661205048179   111.24345602   290.78691253
 O      6   4   2     2.648566984191   109.21541458    74.11761836
 O      4   2   1     2.658692147973   111.45468171   157.07834710
 O      1   2   3     2.655624131762   112.00766162    51.77190861
 H      1   2   3     2.073561946008   108.31099740   288.99171839
 H      1   2   3     2.061486863429   109.95934161   169.56918724
 H     13  10   8     1.830303210392   110.05997095   172.55235861
 H     14   8   6     1.830514950807   109.85466316   287.16063290
 H     15   6   4     1.829330826998   110.10308797   177.21125015
 H     16   4   2     1.837950209446   108.32827523    64.26878987
 H     17   1   2     1.829654843443   109.56787223   294.97088252

---------------------
BASIS SET INFORMATION
---------------------
There are 3 groups of distinct atoms

 Group   1 Type C   : 7s4p1d contracted to 3s2p1d pattern {511/31/1}
 Group   2 Type H   : 4s contracted to 2s pattern {31}
 Group   3 Type O   : 7s4p1d contracted to 3s2p1d pattern {511/31/1}

Atom   0C    basis set group =>   1
Atom   1C    basis set group =>   1
Atom   2H    basis set group =>   2
Atom   3C    basis set group =>   1
Atom   4H    basis set group =>   2
Atom   5C    basis set group =>   1
Atom   6H    basis set group =>   2
Atom   7C    basis set group =>   1
Atom   8H    basis set group =>   2
Atom   9C    basis set group =>   1
Atom  10H    basis set group =>   2
Atom  11O    basis set group =>   3
Atom  12O    basis set group =>   3
Atom  13O    basis set group =>   3
Atom  14O    basis set group =>   3
Atom  15O    basis set group =>   3
Atom  16O    basis set group =>   3
Atom  17H    basis set group =>   2
Atom  18H    basis set group =>   2
Atom  19H    basis set group =>   2
Atom  20H    basis set group =>   2
Atom  21H    basis set group =>   2
Atom  22H    basis set group =>   2
Atom  23H    basis set group =>   2
---------------------------------
AUXILIARY/J BASIS SET INFORMATION
---------------------------------
There are 3 groups of distinct atoms

 Group   1 Type C   : 12s5p4d2f1g contracted to 6s4p3d1f1g pattern {711111/2111/211/2/1}
 Group   2 Type H   : 5s2p1d contracted to 3s1p1d pattern {311/2/1}
 Group   3 Type O   : 12s5p4d2f1g contracted to 6s4p3d1f1g pattern {711111/2111/211/2/1}

Atom   0C    basis set group =>   1
Atom   1C    basis set group =>   1
Atom   2H    basis set group =>   2
Atom   3C    basis set group =>   1
Atom   4H    basis set group =>   2
Atom   5C    basis set group =>   1
Atom   6H    basis set group =>   2
Atom   7C    basis set group =>   1
Atom   8H    basis set group =>   2
Atom   9C    basis set group =>   1
Atom  10H    basis set group =>   2
Atom  11O    basis set group =>   3
Atom  12O    basis set group =>   3
Atom  13O    basis set group =>   3
Atom  14O    basis set group =>   3
Atom  15O    basis set group =>   3
Atom  16O    basis set group =>   3
Atom  17H    basis set group =>   2
Atom  18H    basis set group =>   2
Atom  19H    basis set group =>   2
Atom  20H    basis set group =>   2
Atom  21H    basis set group =>   2
Atom  22H    basis set group =>   2
Atom  23H    basis set group =>   2
------------------------------------------------------------------------------
                             ORCA STARTUP CALCULATIONS
                           -- RI-GTO INTEGRALS CHOSEN --
------------------------------------------------------------------------------
------------------------------------------------------------------------------
                   ___                                                        
                  /   \      - P O W E R E D   B Y -                         
                 /     \                                                     
                 |  |  |   _    _      __       _____    __    __             
                 |  |  |  | |  | |    /  \     |  _  \  |  |  /  |          
                  \  \/   | |  | |   /    \    | | | |  |  | /  /          
                 / \  \   | |__| |  /  /\  \   | |_| |  |  |/  /          
                |  |  |   |  __  | /  /__\  \  |    /   |      \           
                |  |  |   | |  | | |   __   |  |    \   |  |\   \          
                \     /   | |  | | |  |  |  |  | |\  \  |  | \   \       
                 \___/    |_|  |_| |__|  |__|  |_| \__\ |__|  \__/        
                                                                              
                      - O R C A' S   B I G   F R I E N D -                    
                                      &                                       
                       - I N T E G R A L  F E E D E R -                       
                                                                              
 v1 FN, 2020, v2 2021, v3 2022-2024                                           
------------------------------------------------------------------------------


----------------------
SHARK INTEGRAL PACKAGE
----------------------

Number of atoms                             ...     24
Number of basis functions                   ...    192
Number of shells                            ...     96
Maximum angular momentum                    ...      2
Integral batch strategy                     ... SHARK/LIBINT Hybrid
RI-J (if used) integral strategy            ... SPLIT-RIJ (Revised 2003 algorithm where possible)
Printlevel                                  ...      1
Contraction scheme used                     ... SEGMENTED contraction
Prescreening option                         ... SCHWARTZ
   Thresh                                   ... 1.000e-09
   Tcut                                     ... 1.000e-10
   Tpresel                                  ... 1.000e-10 
Coulomb Range Separation                    ... NOT USED
Exchange Range Separation                   ... NOT USED
Multipole approximations                    ... NOT USED
Finite Nucleus Model                        ... NOT USED
CABS basis                                  ... NOT available
Auxiliary Coulomb fitting basis             ... AVAILABLE
   # of basis functions in Aux-J            ...    720
   # of shells in Aux-J                     ...    240
   Maximum angular momentum in Aux-J        ...      4
Auxiliary J/K fitting basis                 ... NOT available
Auxiliary Correlation fitting basis         ... NOT available
Auxiliary 'external' fitting basis          ... NOT available

Checking pre-screening integrals            ... done (  0.0 sec) Dimension = 96
Check shell pair data                       ... done (  0.0 sec)
Shell pair information
Shell pair cut-off parameter TPreSel        ...   1.0e-10
Total number of shell pairs                 ...      4656
Shell pairs after pre-screening             ...      4290
Total number of primitive shell pairs       ...     18720
Primitive shell pairs kept                  ...     11578
          la=0 lb=0:   1658 shell pairs
          la=1 lb=0:   1357 shell pairs
          la=1 lb=1:    292 shell pairs
          la=2 lb=0:    638 shell pairs
          la=2 lb=1:    275 shell pairs
          la=2 lb=2:     70 shell pairs

Calculating one electron integrals          ... done (  0.0 sec)
Calculating RI/J V-Matrix + Cholesky decomp.... done (  0.1 sec)
Calculating Nuclear repulsion               ... done (  0.0 sec) ENN=    858.597307958352 Eh

Diagonalization of the overlap matrix:
Smallest eigenvalue                        ... 7.929e-04
Time for diagonalization                   ...    0.004 sec
Threshold for overlap eigenvalues          ... 1.000e-07
Number of eigenvalues below threshold      ... 0
Time for construction of square roots      ...    0.012 sec
Total time needed                          ...    0.027 sec

-------------------
DFT GRID GENERATION
-------------------

General Integration Accuracy     IntAcc      ... 4.159
Radial Grid Type                 RadialGrid  ... OptM3 with GC (2021)
Angular Grid (max. ang.)         AngularGrid ... 3 (Lebedev-194)
Angular grid pruning method      GridPruning ... 4 (adaptive)
Weight generation scheme         WeightScheme... mBecke (2022)
Basis function cutoff            BFCut       ... 1.0000e-10
Integration weight cutoff        WCut        ... 1.0000e-14
Partially contracted basis set               ... off
Rotationally invariant grid construction     ... off
Angular grids for H and He will be reduced by one unit

Total number of grid points                  ...    55643
Total number of batches                      ...      881
Average number of points per batch           ...       63
Average number of grid points per atom       ...     2318
Initializing property integral containers    ... done (  0.0 sec)

SHARK setup successfully completed in   0.9 seconds

Maximum memory used throughout the entire STARTUP-calculation: 28.2 MB
-------------------------------------------------------------------------------
                                 ORCA GUESS
                   Start orbitals & Density for SCF / CASSCF
-------------------------------------------------------------------------------

------------
SCF SETTINGS
------------
Hamiltonian:
 Density Functional     Method          .... DFT(GTOs)
 Exchange Functional    Exchange        .... PBE
   PBE kappa parameter   XKappa         ....  0.804000
   PBE mue parameter    XMuePBE         ....  0.219520
 Correlation Functional Correlation     .... PBE
   PBE beta parameter  CBetaPBE         ....  0.066725
 LDA part of GGA corr.  LDAOpt          .... PW91-LDA
 Gradients option       PostSCFGGA      .... off
   NL short-range parameter             ....  6.400000
 RI-approximation to the Coulomb term is turned on
   Number of AuxJ basis functions       .... 720


General Settings:
 Integral files         IntName         .... sp
 Hartree-Fock type      HFTyp           .... RHF
 Total Charge           Charge          ....    0
 Multiplicity           Mult            ....    1
 Number of Electrons    NEL             ....   96
 Basis Dimension        Dim             ....  192
 Nuclear Repulsion      ENuc            ....    858.5973079584 Eh

Convergence Acceleration:
 AO-DIIS                CNVDIIS         .... on
   Start iteration      DIISMaxIt       ....    12
   Startup error        DIISStart       ....  0.200000
   # of expansion vecs  DIISMaxEq       ....     5
   Bias factor          DIISBfac        ....   1.050
   Max. coefficient     DIISMaxC        ....  10.000
 MO-DIIS                CNVKDIIS        .... off
 Trust-Rad. Augm. Hess. CNVTRAH         .... auto
   Auto Start mean grad. ratio tolernc. ....  1.125000
   Auto Start start iteration           ....    50
   Auto Start num. interpolation iter.  ....    10
   Max. Number of Micro iterations      ....    24
   Max. Number of Macro iterations      .... Maxiter - #DIIS iter
   Number of Davidson start vectors     ....     2
   Converg. threshold    (grad. norm)   ....   1.000e-04
   Grad. Scal. Fac. for Micro threshold ....   0.100
   Minimum threshold for Micro iter.    ....   1.000e-02
   NR start threshold (gradient norm)   ....   1.000e-04
   Initial trust radius                 ....   0.400
   Minimum AH scaling param. (alpha)    ....   1.000
   Maximum AH scaling param. (alpha)    .... 1000.000
   Quad. conv. algorithm                .... NR
   White noise on init. David. guess    .... on
   Maximum white noise                  ....   0.010
   Pseudo random numbers                .... off
   Inactive MOs                         .... canonical
   Orbital update algorithm             .... Taylor
   Preconditioner                       .... Diag
   Full preconditioner red. dimension   ....   250
 SOSCF                  CNVSOSCF        .... on
   Start iteration      SOSCFMaxIt      ....   150
   Startup grad/error   SOSCFStart      ....  0.003300
   Hessian update       SOSCFHessUp     .... L-BFGS
 Level Shifting         CNVShift        .... on
   Level shift para.    LevelShift      ....    0.2500
   Turn off err/grad.   ShiftErr        ....    0.0010
 Zerner damping         CNVZerner       .... off
 Static damping         CNVDamp         .... on
   Fraction old density DampFac         ....    0.7000
   Max. Damping (<1)    DampMax         ....    0.9800
   Min. Damping (>=0)   DampMin         ....    0.0000
   Turn off err/grad.   DampErr         ....    0.1000

SCF Procedure:
 Maximum # iterations   MaxIter         ....   125
 SCF integral mode      SCFMode         .... Direct
   Integral package                     .... SHARK and LIBINT hybrid scheme
 Reset frequency        DirectResetFreq ....    20
 Integral Threshold     Thresh          ....  1.000e-09 Eh
 Primitive CutOff       TCut            ....  1.000e-10 Eh

Convergence Tolerance:
 Convergence Check Mode ConvCheckMode   .... Total+1el-Energy
 Convergence forced     ConvForced      .... 0
 Energy Change          TolE            ....  1.000e-05 Eh
 1-El. energy change                    ....  1.000e-02 Eh
 Orbital Gradient       TolG            ....  1.000e-04
 Orbital Rotation angle TolX            ....  1.000e-04
 DIIS Error             TolErr          ....  5.000e-04

------------------------------
INITIAL GUESS: MODEL POTENTIAL
------------------------------
Loading Hartree-Fock densities                     ... done
Calculating cut-offs                               ... done
Initializing the effective Hamiltonian             ... done
Setting up the integral package (SHARK)            ... done
Starting the Coulomb interaction                   ... done (   0.2 sec)
Making the grid                                    ... done (   0.3 sec)
Mapping shells                                     ... done
Starting the XC term evaluation                    ... done (   0.3 sec)
  promolecular density results
     # of electrons  =     95.987477233
     EX              =    -83.230491031
     EC              =     -3.269836911
     EX+EC           =    -86.500327942
Transforming the Hamiltonian                       ... done (   0.0 sec)
Diagonalizing the Hamiltonian                      ... done (   0.0 sec)
Back transforming the eigenvectors                 ... done (   0.0 sec)
Now organizing SCF variables                       ... done
                      ------------------
                      INITIAL GUESS DONE (   0.8 sec)
                      ------------------
             **** ENERGY FILE WAS UPDATED (sp.en.tmp) ****
Finished Guess after   1.0 sec
Maximum memory used throughout the entire GUESS-calculation: 22.1 MB

-------------------------------------------------------------------------------------------
                                      ORCA LEAN-SCF
                              memory conserving SCF solver
-------------------------------------------------------------------------------------------

----------------------------------------D-I-I-S--------------------------------------------
Iteration    Energy (Eh)           Delta-E    RMSDP     MaxDP     DIISErr   Damp  Time(sec)
-------------------------------------------------------------------------------------------
               ***  Starting incremental Fock matrix formation  ***
    1    -685.5166764070489762     0.00e+00  4.52e-03  1.02e-01  2.28e-01  0.700   1.2
    2    -685.6686259487452162    -1.52e-01  2.93e-03  7.67e-02  9.18e-02  0.700   1.2
                               ***Turning on AO-DIIS***
    3    -685.7168598819934004    -4.82e-02  1.08e-03  2.50e-02  2.03e-02  0.700   1.2
    4    -685.7487478356657675    -3.19e-02  1.47e-03  2.45e-02  9.89e-03  0.000   1.1
    5    -685.8225739284911242    -7.38e-02  4.37e-04  1.38e-02  5.18e-03  0.000   1.1
                              *** Initializing SOSCF ***
---------------------------------------S-O-S-C-F--------------------------------------
Iteration    Energy (Eh)           Delta-E    RMSDP     MaxDP     MaxGrad    Time(sec)
--------------------------------------------------------------------------------------
    6    -685.8229058460730130    -3.32e-04  1.44e-04  3.34e-03  1.37e-03     1.1
               *** Restarting incremental Fock matrix formation ***
    7    -685.8229380992842152    -3.23e-05  9.30e-05  1.77e-03  2.07e-04     1.3
    8    -685.8229394706214634    -1.37e-06  3.59e-05  7.49e-04  2.10e-04     1.1
                 **** Energy Check signals convergence ****

               *****************************************************
               *                     SUCCESS                       *
               *           SCF CONVERGED AFTER   8 CYCLES          *
               *****************************************************

             **** ENERGY FILE WAS UPDATED (sp.en.tmp) ****

----------------
TOTAL SCF ENERGY
----------------

Total Energy       :       -685.82293947062146 Eh          -18662.19095 eV

Components:
Nuclear Repulsion  :        858.59730795835196 Eh           23363.62053 eV
Electronic Energy  :      -1544.42024742897343 Eh          -42025.81148 eV
One Electron Energy:      -2646.80087288443656 Eh          -72023.11334 eV
Two Electron Energy:       1102.38062545546313 Eh           29997.30185 eV

Virial components:
Potential Energy   :      -1366.89436915654414 Eh          -37195.08675 eV
Kinetic Energy     :        681.07142968592268 Eh           18532.89580 eV
Virial Ratio       :          2.00697652195878

DFT components:
N(Alpha)           :       48.000119515576 electrons
N(Beta)            :       48.000119515576 electrons
N(Total)           :       96.000239031151 electrons
E(X)               :      -84.596411973518 Eh       
E(C)               :       -3.282901687090 Eh       
E(XC)              :      -87.879313660608 Eh       

---------------
SCF CONVERGENCE
---------------

  Last Energy change         ...    1.3713e-06  Tolerance :   1.0000e-05
  Last MAX-Density change    ...    7.4852e-04  Tolerance :   1.0000e-03
  Last RMS-Density change    ...    3.5939e-05  Tolerance :   1.0000e-04
  Last DIIS Error            ...    1.3668e-03  Tolerance :   5.0000e-04
  Last Orbital Gradient      ...    2.1019e-04  Tolerance :   1.0000e-04
  Last Orbital Rotation      ...    1.8097e-04  Tolerance :   1.0000e-04


----------------
ORBITAL ENERGIES
----------------

  NO   OCC          E(Eh)            E(eV) 
   0   2.0000     -18.777142      -510.9520 
   1   2.0000     -18.764911      -510.6192 
   2   2.0000     -18.763706      -510.5864 
   3   2.0000     -18.757508      -510.4177 
   4   2.0000     -18.740411      -509.9525 
   5   2.0000     -18.733497      -509.7644 
   6   2.0000      -9.987842      -271.7830 
   7   2.0000      -9.951980      -270.8071 
   8   2.0000      -9.944092      -270.5925 
   9   2.0000      -9.931974      -270.2628 
  10   2.0000      -9.931159      -270.2406 
  11   2.0000      -9.914143      -269.7776 
  12   2.0000      -0.980877       -26.6910 
  13   2.0000      -0.950442       -25.8628 
  14   2.0000      -0.934614       -25.4321 
  15   2.0000      -0.920945       -25.0602 
  16   2.0000      -0.913340       -24.8533 
  17   2.0000      -0.904667       -24.6172 
  18   2.0000      -0.695038       -18.9130 
  19   2.0000      -0.690638       -18.7932 
  20   2.0000      -0.615112       -16.7381 
  21   2.0000      -0.580973       -15.8091 
  22   2.0000      -0.569782       -15.5045 
  23   2.0000      -0.529807       -14.4168 
  24   2.0000      -0.497047       -13.5253 
  25   2.0000      -0.479756       -13.0548 
  26   2.0000      -0.467868       -12.7313 
  27   2.0000      -0.464322       -12.6349 
  28   2.0000      -0.449067       -12.2197 
  29   2.0000      -0.425709       -11.5841 
  30   2.0000      -0.413178       -11.2432 
  31   2.0000      -0.386261       -10.5107 
  32   2.0000      -0.375120       -10.2075 
  33   2.0000      -0.368853       -10.0370 
  34   2.0000      -0.357377        -9.7247 
  35   2.0000      -0.346781        -9.4364 
  36   2.0000      -0.334817        -9.1108 
  37   2.0000      -0.324936        -8.8420 
  38   2.0000      -0.296187        -8.0596 
  39   2.0000      -0.286497        -7.7960 
  40   2.0000      -0.276704        -7.5295 
  41   2.0000      -0.260744        -7.0952 
  42   2.0000      -0.257185        -6.9984 
  43   2.0000      -0.241560        -6.5732 
  44   2.0000      -0.233737        -6.3603 
  45   2.0000      -0.219560        -5.9745 
  46   2.0000      -0.208913        -5.6848 
  47   2.0000      -0.193908        -5.2765 
  48   0.0000       0.005011         0.1364 
  49   0.0000       0.013241         0.3603 
  50   0.0000       0.032337         0.8799 
  51   0.0000       0.034117         0.9284 
  52   0.0000       0.069108         1.8805 
  53   0.0000       0.080141         2.1807 
  54   0.0000       0.091132         2.4798 
  55   0.0000       0.096478         2.6253 
  56   0.0000       0.100046         2.7224 
  57   0.0000       0.121015         3.2930 
  58   0.0000       0.122323         3.3286 
*Only the first 10 virtual orbitals were printed.

                    ********************************
                    * MULLIKEN POPULATION ANALYSIS *
                    ********************************

-----------------------
MULLIKEN ATOMIC CHARGES
-----------------------
   0 C :    0.022996
   1 C :    0.001018
   2 H :    0.060009
   3 C :    0.084193
   4 H :    0.084663
   5 C :    0.046067
   6 H :    0.054660
   7 C :   -0.018293
   8 H :    0.065243
   9 C :    0.218313
  10 H :    0.066983
  11 O :   -0.316171
  12 O :   -0.392524
  13 O :   -0.412943
  14 O :   -0.389994
  15 O :   -0.434422
  16 O :   -0.428586
  17 H :    0.058357
  18 H :    0.119669
  19 H :    0.305863
  20 H :    0.312450
  21 H :    0.302498
  22 H :    0.296308
  23 H :    0.293645
Sum of atomic charges:    0.0000000

--------------------------------
MULLIKEN REDUCED ORBITAL CHARGES
--------------------------------
  0 C s       :     3.032536  s :     3.032536
      pz      :     1.097649  p :     2.881886
      px      :     0.805959
      py      :     0.978278
      dz2     :     0.011387  d :     0.062581
      dxz     :     0.016258
      dyz     :     0.003650
      dx2y2   :     0.018310
      dxy     :     0.012976

  1 C s       :     3.076024  s :     3.076024
      pz      :     1.046888  p :     2.858023
      px      :     0.856350
      py      :     0.954785
      dz2     :     0.010873  d :     0.064935
      dxz     :     0.016663
      dyz     :     0.007213
      dx2y2   :     0.014083
      dxy     :     0.016103

  2 H s       :     0.939991  s :     0.939991

  3 C s       :     3.035108  s :     3.035108
      pz      :     0.801857  p :     2.812782
      px      :     1.034392
      py      :     0.976533
      dz2     :     0.016322  d :     0.067917
      dxz     :     0.016211
      dyz     :     0.016224
      dx2y2   :     0.010158
      dxy     :     0.009003

  4 H s       :     0.915337  s :     0.915337

  5 C s       :     3.047707  s :     3.047707
      pz      :     0.778479  p :     2.838016
      px      :     1.060573
      py      :     0.998964
      dz2     :     0.019361  d :     0.068210
      dxz     :     0.015944
      dyz     :     0.014193
      dx2y2   :     0.010134
      dxy     :     0.008578

  6 H s       :     0.945340  s :     0.945340

  7 C s       :     3.066850  s :     3.066850
      pz      :     0.811763  p :     2.885487
      px      :     1.018465
      py      :     1.055259
      dz2     :     0.015624  d :     0.065957
      dxz     :     0.019697
      dyz     :     0.011591
      dx2y2   :     0.010847
      dxy     :     0.008198

  8 H s       :     0.934757  s :     0.934757

  9 C s       :     2.973620  s :     2.973620
      pz      :     0.790867  p :     2.706831
      px      :     0.887437
      py      :     1.028528
      dz2     :     0.023853  d :     0.101236
      dxz     :     0.030264
      dyz     :     0.017508
      dx2y2   :     0.014539
      dxy     :     0.015072

 10 H s       :     0.933017  s :     0.933017

 11 O s       :     3.748481  s :     3.748481
      pz      :     1.663848  p :     4.552495
      px      :     1.228263
      py      :     1.660384
      dz2     :     0.002124  d :     0.015195
      dxz     :     0.004568
      dyz     :     0.002199
      dx2y2   :     0.002668
      dxy     :     0.003635

 12 O s       :     3.774466  s :     3.774466
      pz      :     1.464849  p :     4.602835
      px      :     1.850660
      py      :     1.287326
      dz2     :     0.005922  d :     0.015223
      dxz     :     0.001991
      dyz     :     0.002247
      dx2y2   :     0.004283
      dxy     :     0.000781

 13 O s       :     3.788127  s :     3.788127
      pz      :     1.465911  p :     4.609636
      px      :     1.687534
      py      :     1.456191
      dz2     :     0.005449  d :     0.015179
      dxz     :     0.002313
      dyz     :     0.002193
      dx2y2   :     0.001611
      dxy     :     0.003613

 14 O s       :     3.782001  s :     3.782001
      pz      :     1.221465  p :     4.592586
      px      :     1.511641
      py      :     1.859479
      dz2     :     0.002214  d :     0.015408
      dxz     :     0.006537
      dyz     :     0.001887
      dx2y2   :     0.003076
      dxy     :     0.001694

 15 O s       :     3.788130  s :     3.788130
      pz      :     1.349915  p :     4.630874
      px      :     1.570075
      py      :     1.710883
      dz2     :     0.002722  d :     0.015418
      dxz     :     0.002965
      dyz     :     0.003877
      dx2y2   :     0.002173
      dxy     :     0.003682

 16 O s       :     3.792437  s :     3.792437
      pz      :     1.571173  p :     4.620418
      px      :     1.283981
      py      :     1.765264
      dz2     :     0.002824  d :     0.015731
      dxz     :     0.005405
      dyz     :     0.002499
      dx2y2   :     0.001818
      dxy     :     0.003186

 17 H s       :     0.941643  s :     0.941643

 18 H s       :     0.880331  s :     0.880331

 19 H s       :     0.694137  s :     0.694137

 20 H s       :     0.687550  s :     0.687550

 21 H s       :     0.697502  s :     0.697502

 22 H s       :     0.703692  s :     0.703692

 23 H s       :     0.706355  s :     0.706355


------------------------
MULLIKEN OVERLAP CHARGES
------------------------
B(  0-C ,  1-C ) :   0.5702 B(  0-C ,  2-H ) :  -0.0564 B(  0-C ,  3-C ) :  -0.0794 
B(  0-C , 11-O ) :  -0.0913 B(  0-C , 16-O ) :   0.6097 B(  0-C , 17-H ) :   0.6268 
B(  0-C , 18-H ) :   0.6803 B(  0-C , 23-H ) :  -0.0914 B(  1-C ,  2-H ) :   0.6371 
B(  1-C ,  3-C ) :   0.5543 B(  1-C ,  4-H ) :  -0.0856 B(  1-C ,  7-C ) :  -0.0980 
B(  1-C ,  9-C ) :  -0.1124 B(  1-C , 11-O ) :   0.5360 B(  1-C , 15-O ) :  -0.0896 
B(  1-C , 16-O ) :  -0.1072 B(  1-C , 17-H ) :  -0.0806 B(  2-H ,  3-C ) :  -0.0688 
B(  3-C ,  4-H ) :   0.6334 B(  3-C ,  5-C ) :   0.3349 B(  3-C ,  6-H ) :  -0.1060 
B(  3-C ,  9-C ) :  -0.0729 B(  3-C , 11-O ) :  -0.0572 B(  3-C , 14-O ) :  -0.1114 
B(  3-C , 15-O ) :   0.6180 B(  3-C , 22-H ) :  -0.1116 B(  4-H , 15-O ) :  -0.0519 
B(  4-H , 16-O ) :   0.0561 B(  5-C ,  6-H ) :   0.7187 B(  5-C ,  7-C ) :   0.4449 
B(  5-C ,  8-H ) :  -0.1036 B(  5-C ,  9-C ) :  -0.0738 B(  5-C , 11-O ) :  -0.0518 
B(  5-C , 13-O ) :  -0.0761 B(  5-C , 14-O ) :   0.5479 B(  5-C , 15-O ) :  -0.0719 
B(  5-C , 21-H ) :  -0.0636 B(  6-H ,  7-C ) :  -0.1546 B(  7-C ,  8-H ) :   0.6168 
B(  7-C ,  9-C ) :   0.3209 B(  7-C , 10-H ) :  -0.0793 B(  7-C , 11-O ) :  -0.0748 
B(  7-C , 12-O ) :  -0.1191 B(  7-C , 13-O ) :   0.4798 B(  7-C , 14-O ) :  -0.0838 
B(  7-C , 20-H ) :  -0.0702 B(  9-C , 10-H ) :   0.6894 B(  9-C , 11-O ) :   0.7027 
B(  9-C , 12-O ) :   0.6592 B(  9-C , 13-O ) :  -0.0878 B( 10-H , 11-O ) :  -0.0813 
B( 10-H , 12-O ) :  -0.0501 B( 11-O , 12-O ) :  -0.1374 B( 12-O , 19-H ) :   0.4946 
B( 13-O , 20-H ) :   0.5215 B( 13-O , 22-H ) :   0.0860 B( 14-O , 18-H ) :   0.0680 
B( 14-O , 21-H ) :   0.5094 B( 15-O , 22-H ) :   0.5395 B( 16-O , 23-H ) :   0.5182 
B( 17-H , 18-H ) :  -0.0654 


                     *******************************
                     * LOEWDIN POPULATION ANALYSIS *
                     *******************************

----------------------
LOEWDIN ATOMIC CHARGES
----------------------
   0 C :   -0.151290
   1 C :   -0.075001
   2 H :    0.110145
   3 C :   -0.063126
   4 H :    0.125201
   5 C :   -0.079904
   6 H :    0.094861
   7 C :   -0.091016
   8 H :    0.104043
   9 C :   -0.000541
  10 H :    0.099915
  11 O :   -0.144203
  12 O :   -0.305676
  13 O :   -0.303886
  14 O :   -0.299831
  15 O :   -0.322606
  16 O :   -0.328866
  17 H :    0.088859
  18 H :    0.122744
  19 H :    0.288135
  20 H :    0.293688
  21 H :    0.287203
  22 H :    0.270003
  23 H :    0.281149

-------------------------------
LOEWDIN REDUCED ORBITAL CHARGES
-------------------------------
  0 C s       :     2.925646  s :     2.925646
      pz      :     1.120622  p :     3.082555
      px      :     0.903893
      py      :     1.058041
      dz2     :     0.026732  d :     0.143088
      dxz     :     0.038034
      dyz     :     0.008039
      dx2y2   :     0.040848
      dxy     :     0.029436

  1 C s       :     2.905942  s :     2.905942
      pz      :     1.086279  p :     3.016886
      px      :     0.918133
      py      :     1.012474
      dz2     :     0.025468  d :     0.152174
      dxz     :     0.041201
      dyz     :     0.015441
      dx2y2   :     0.033650
      dxy     :     0.036415

  2 H s       :     0.889855  s :     0.889855

  3 C s       :     2.885430  s :     2.885430
      pz      :     0.907365  p :     3.020776
      px      :     1.073480
      py      :     1.039930
      dz2     :     0.036853  d :     0.156921
      dxz     :     0.038340
      dyz     :     0.034718
      dx2y2   :     0.027572
      dxy     :     0.019437

  4 H s       :     0.874799  s :     0.874799

  5 C s       :     2.896722  s :     2.896722
      pz      :     0.877967  p :     3.022215
      px      :     1.077430
      py      :     1.066818
      dz2     :     0.043922  d :     0.160968
      dxz     :     0.039175
      dyz     :     0.031327
      dx2y2   :     0.024154
      dxy     :     0.022391

  6 H s       :     0.905139  s :     0.905139

  7 C s       :     2.903805  s :     2.903805
      pz      :     0.914786  p :     3.031953
      px      :     1.049521
      py      :     1.067645
      dz2     :     0.037398  d :     0.155258
      dxz     :     0.046063
      dyz     :     0.024824
      dx2y2   :     0.025572
      dxy     :     0.021401

  8 H s       :     0.895957  s :     0.895957

  9 C s       :     2.879762  s :     2.879762
      pz      :     0.902822  p :     2.893087
      px      :     0.944315
      py      :     1.045950
      dz2     :     0.054925  d :     0.227692
      dxz     :     0.068545
      dyz     :     0.037151
      dx2y2   :     0.034903
      dxy     :     0.032168

 10 H s       :     0.900085  s :     0.900085

 11 O s       :     3.469010  s :     3.469010
      pz      :     1.677870  p :     4.645458
      px      :     1.292604
      py      :     1.674984
      dz2     :     0.003355  d :     0.029735
      dxz     :     0.009621
      dyz     :     0.002831
      dx2y2   :     0.006189
      dxy     :     0.007739

 12 O s       :     3.535560  s :     3.535560
      pz      :     1.538061  p :     4.742909
      px      :     1.850797
      py      :     1.354052
      dz2     :     0.010848  d :     0.027208
      dxz     :     0.002687
      dyz     :     0.004843
      dx2y2   :     0.007387
      dxy     :     0.001442

 13 O s       :     3.532943  s :     3.532943
      pz      :     1.537692  p :     4.744147
      px      :     1.699299
      py      :     1.507156
      dz2     :     0.009618  d :     0.026796
      dxz     :     0.004155
      dyz     :     0.003955
      dx2y2   :     0.002766
      dxy     :     0.006302

 14 O s       :     3.531628  s :     3.531628
      pz      :     1.296715  p :     4.740837
      px      :     1.575519
      py      :     1.868604
      dz2     :     0.005674  d :     0.027366
      dxz     :     0.012045
      dyz     :     0.003358
      dx2y2   :     0.004273
      dxy     :     0.002016

 15 O s       :     3.532609  s :     3.532609
      pz      :     1.414590  p :     4.763131
      px      :     1.610434
      py      :     1.738107
      dz2     :     0.005643  d :     0.026866
      dxz     :     0.005476
      dyz     :     0.007224
      dx2y2   :     0.003222
      dxy     :     0.005301

 16 O s       :     3.542291  s :     3.542291
      pz      :     1.617448  p :     4.759197
      px      :     1.345303
      py      :     1.796446
      dz2     :     0.004734  d :     0.027378
      dxz     :     0.009789
      dyz     :     0.003194
      dx2y2   :     0.003686
      dxy     :     0.005974

 17 H s       :     0.911141  s :     0.911141

 18 H s       :     0.877256  s :     0.877256

 19 H s       :     0.711865  s :     0.711865

 20 H s       :     0.706312  s :     0.706312

 21 H s       :     0.712797  s :     0.712797

 22 H s       :     0.729997  s :     0.729997

 23 H s       :     0.718851  s :     0.718851


---------------------------------
LOEWDIN BOND ORDERS (THRESH 0.050000)
---------------------------------
B(  0-C ,  1-C ) :   1.0522 B(  0-C ,  3-C ) :   0.0559 B(  0-C , 11-O ) :   0.0671 
B(  0-C , 16-O ) :   1.2384 B(  0-C , 17-H ) :   0.9059 B(  0-C , 18-H ) :   0.8966 
B(  1-C ,  2-H ) :   0.8735 B(  1-C ,  3-C ) :   1.0283 B(  1-C ,  5-C ) :   0.0516 
B(  1-C ,  9-C ) :   0.0604 B(  1-C , 11-O ) :   1.1264 B(  1-C , 15-O ) :   0.0781 
B(  1-C , 16-O ) :   0.0863 B(  3-C ,  4-H ) :   0.8637 B(  3-C ,  5-C ) :   1.0126 
B(  3-C ,  7-C ) :   0.0521 B(  3-C , 11-O ) :   0.0538 B(  3-C , 14-O ) :   0.0567 
B(  3-C , 15-O ) :   1.2280 B(  5-C ,  6-H ) :   0.8679 B(  5-C ,  7-C ) :   1.0189 
B(  5-C , 13-O ) :   0.0798 B(  5-C , 14-O ) :   1.2242 B(  5-C , 15-O ) :   0.0817 
B(  7-C ,  8-H ) :   0.8707 B(  7-C ,  9-C ) :   1.0154 B(  7-C , 11-O ) :   0.0585 
B(  7-C , 12-O ) :   0.0640 B(  7-C , 13-O ) :   1.2027 B(  7-C , 14-O ) :   0.0808 
B(  9-C , 10-H ) :   0.8799 B(  9-C , 11-O ) :   1.2137 B(  9-C , 12-O ) :   1.2661 
B(  9-C , 13-O ) :   0.0627 B( 11-O , 12-O ) :   0.0964 B( 12-O , 19-H ) :   0.8733 
B( 13-O , 20-H ) :   0.8788 B( 13-O , 22-H ) :   0.0650 B( 14-O , 21-H ) :   0.8777 
B( 15-O , 22-H ) :   0.8637 B( 16-O , 23-H ) :   0.8902 

------------------------------------------
LOEWDIN REDUCED ORBITAL POPULATIONS PER MO
-------------------------------------------
THRESHOLD FOR PRINTING IS 0.1%%
                      0         1         2         3         4         5   
                 -18.77714 -18.76491 -18.76371 -18.75751 -18.74041 -18.73350
                   2.00000   2.00000   2.00000   2.00000   2.00000   2.00000
                  --------  --------  --------  --------  --------  --------
11 O  s               0.0      99.9       0.0       0.0       0.0       0.0
12 O  s               0.0       0.0      99.9       0.0       0.0       0.0
13 O  s              99.9       0.0       0.0       0.0       0.0       0.0
14 O  s               0.0       0.0       0.0      99.9       0.0       0.0
15 O  s               0.0       0.0       0.0       0.0       0.0      99.9
16 O  s               0.0       0.0       0.0       0.0      99.9       0.0

                      6         7         8         9        10        11   
                  -9.98784  -9.95198  -9.94409  -9.93197  -9.93116  -9.91414
                   2.00000   2.00000   2.00000   2.00000   2.00000   2.00000
                  --------  --------  --------  --------  --------  --------
 0 C  s               0.0       0.0       0.0       0.0       0.0      99.6
 1 C  s               0.0       0.0       0.0      99.5       0.1       0.0
 1 C  py              0.0       0.0       0.0       0.0       0.1       0.0
 3 C  s               0.0       0.0       0.0       0.1      99.5       0.0
 3 C  py              0.0       0.0       0.0       0.1       0.0       0.0
 5 C  s               0.0       0.0      99.6       0.0       0.0       0.0
 7 C  s               0.0      99.6       0.0       0.0       0.0       0.0
 9 C  s              99.6       0.0       0.0       0.0       0.0       0.0
12 O  pz              0.1       0.0       0.0       0.0       0.0       0.0
14 O  pz              0.0       0.0       0.1       0.0       0.0       0.0

                     12        13        14        15        16        17   
                  -0.98088  -0.95044  -0.93461  -0.92094  -0.91334  -0.90467
                   2.00000   2.00000   2.00000   2.00000   2.00000   2.00000
                  --------  --------  --------  --------  --------  --------
 0 C  s               0.3       0.0       0.1       4.2       5.9       0.1
 0 C  pz              0.2       0.0       0.0       0.2       0.1       0.1
 0 C  px              0.2       0.0       0.0       1.5       5.9       0.4
 0 C  py              0.0       0.0       0.0       0.6       0.8       0.0
 0 C  dz2             0.0       0.0       0.0       0.0       0.2       0.0
 0 C  dx2y2           0.0       0.0       0.0       0.1       0.2       0.0
 0 C  dxy             0.0       0.0       0.0       0.1       0.2       0.0
 1 C  s               3.7       0.3       0.1       4.4       0.1       1.0
 1 C  pz              0.1       0.0       0.0       0.0       0.9       0.1
 1 C  px              2.6       0.2       0.0       0.4       1.6       1.5
 1 C  py              0.6       0.4       0.2       0.1       0.1       2.3
 1 C  dxy             0.1       0.0       0.0       0.0       0.0       0.2
 2 H  s               0.4       0.0       0.0       0.8       0.0       0.1
 3 C  s               1.0       0.3       1.4       3.5       2.2       3.5
 3 C  pz              0.0       0.0       0.2       2.2       2.0       3.7
 3 C  px              0.2       0.2       0.4       0.0       0.1       0.1
 3 C  py              0.3       0.2       0.0       0.1       0.2       1.7
 3 C  dz2             0.0       0.0       0.0       0.1       0.1       0.3
 3 C  dyz             0.0       0.0       0.0       0.1       0.1       0.2
 4 H  s               0.1       0.0       0.3       0.5       0.1       0.4
 5 C  s               1.3       2.2       8.3       0.1       0.0       0.0
 5 C  pz              0.0       0.1       7.6       1.3       0.5       0.8
 5 C  px              0.0       0.2       0.9       0.2       0.2       0.1
 5 C  py              0.4       0.1       0.1       0.0       0.0       0.0
 5 C  dz2             0.0       0.0       0.7       0.0       0.0       0.0
 6 H  s               0.2       0.4       0.9       0.0       0.0       0.0
 7 C  s               4.3       6.7       0.2       0.2       0.1       0.0
 7 C  pz              0.6       4.7       2.3       0.0       0.0       0.1
 7 C  px              0.2       0.8       1.3       0.0       0.1       0.0
 7 C  py              0.5       2.5       0.1       0.0       0.0       0.0
 7 C  dz2             0.0       0.3       0.1       0.0       0.0       0.0
 7 C  dxz             0.0       0.2       0.0       0.0       0.0       0.0
 7 C  dyz             0.0       0.2       0.1       0.0       0.0       0.0
 8 H  s               0.6       0.7       0.0       0.1       0.0       0.0
 9 C  s              15.1       1.1       0.2       0.3       0.0       0.0
 9 C  pz              0.3       0.5       0.0       4.6       1.0       5.6
 9 C  px              2.5       1.1       0.0       1.1       0.3       1.8
 9 C  py              0.2       2.2       0.0       0.4       0.0       0.4
 9 C  dz2             0.1       0.1       0.0       0.2       0.0       0.2
 9 C  dxz             0.1       0.0       0.0       0.1       0.0       0.2
 9 C  dyz             0.1       0.0       0.0       0.1       0.0       0.1
 9 C  dx2y2           0.0       0.0       0.0       0.1       0.0       0.2
10 H  s               1.9       0.1       0.1       0.0       0.0       0.0
11 O  s              23.2       3.4       0.0       8.8       2.7      16.8
11 O  pz              1.3       0.2       0.0       0.1       0.0       0.2
11 O  px              0.3       0.0       0.0       0.2       0.0       0.0
11 O  py              0.4       0.0       0.0       0.4       0.1       0.3
12 O  s              19.6       6.6       0.4      15.9       2.7      14.6
12 O  pz              1.8       0.4       0.0       0.5       0.1       0.3
12 O  py              0.1       0.1       0.0       0.2       0.0       0.3
13 O  s               6.1      44.3       7.3       0.6       0.7       0.1
13 O  pz              0.4       2.0       0.2       0.0       0.0       0.0
13 O  py              0.0       0.5       0.1       0.0       0.0       0.0
14 O  s               1.2       3.5      49.6       2.6       0.4       0.9
14 O  pz              0.1       0.1       0.5       0.0       0.0       0.0
14 O  px              0.1       0.2       2.1       0.1       0.0       0.0
14 O  py              0.0       0.0       0.2       0.0       0.0       0.0
15 O  s               0.7       0.9       1.4      13.0      12.9      28.6
15 O  pz              0.0       0.0       0.1       0.2       0.2       0.3
15 O  px              0.0       0.0       0.0       0.2       0.2       0.4
15 O  py              0.0       0.0       0.0       0.5       0.4       0.8
16 O  s               0.1       0.0       0.2      16.7      40.5       1.5
16 O  pz              0.0       0.0       0.0       0.5       1.3       0.0
16 O  px              0.0       0.0       0.0       0.2       0.3       0.0
16 O  py              0.0       0.0       0.0       0.4       0.8       0.0
17 H  s               0.1       0.0       0.0       0.5       0.7       0.0
18 H  s               0.2       0.0       0.2       0.3       0.8       0.0
19 H  s               3.9       1.3       0.1       3.1       0.6       2.9
20 H  s               1.2       8.9       1.5       0.1       0.1       0.0
21 H  s               0.3       0.7       9.9       0.6       0.1       0.2
22 H  s               0.3       0.6       0.2       2.6       2.5       5.5
23 H  s               0.0       0.0       0.0       3.4       8.3       0.3

                     18        19        20        21        22        23   
                  -0.69504  -0.69064  -0.61511  -0.58097  -0.56978  -0.52981
                   2.00000   2.00000   2.00000   2.00000   2.00000   2.00000
                  --------  --------  --------  --------  --------  --------
 0 C  s               0.1       5.9      11.9       1.2      11.7       0.3
 0 C  pz              0.0       1.8       0.2       0.4       2.2       0.5
 0 C  px              0.0       2.5       1.1       0.0       0.2       0.1
 0 C  py              0.1       0.1       0.1       0.3       0.9       0.0
 1 C  s               0.3      18.7       3.2       0.5       3.6       0.4
 1 C  pz              0.5       0.5       1.2       2.9       4.4       0.1
 1 C  px              0.1       0.5       2.4       0.9       0.1       0.0
 1 C  py              2.1       0.3       1.0       4.5       3.8       0.6
 1 C  dz2             0.0       0.0       0.1       0.0       0.0       0.0
 1 C  dxy             0.1       0.0       0.0       0.1       0.0       0.0
 2 H  s               0.0       3.9       1.0       0.5       2.4       0.2
 3 C  s               5.2       6.8       3.0       6.7       3.3       0.9
 3 C  pz              2.4       0.8       1.6       0.9       1.0       0.1
 3 C  px              1.3       0.4       1.5       1.8       3.1       0.2
 3 C  py              0.1       3.1       1.5       0.3       1.8       0.3
 4 H  s               1.0       1.6       0.8       3.8       1.2       0.6
 5 C  s              12.8       0.5       7.2       0.8       5.0       0.5
 5 C  pz              3.4       0.3       0.7       0.0       0.0       0.9
 5 C  px              0.3       2.0       1.6       8.2       0.4       0.0
 5 C  py              1.1       0.0       1.1       0.1       0.7       0.1
 5 C  dz2             0.2       0.0       0.0       0.0       0.0       0.0
 6 H  s               2.2       0.1       2.6       0.4       2.5       0.1
 7 C  s              15.3       2.2       2.9       5.3       0.2       0.8
 7 C  pz              1.2       0.0       0.0       1.3       0.2       6.9
 7 C  px              2.6       0.0       1.2       0.0       0.9       0.4
 7 C  py              0.1       2.2       4.4       3.2       3.0       0.3
 7 C  dz2             0.1       0.0       0.0       0.0       0.0       0.2
 8 H  s               3.0       0.5       1.4       2.5       0.2       0.1
 9 C  s               3.1       7.9       2.4       6.7       0.3       0.9
 9 C  pz              0.2       1.5       0.4       1.4       0.4       9.5
 9 C  px              1.2       0.2       2.4       0.1       1.8       0.0
 9 C  py              5.0       0.3       1.6       2.1       0.8       0.1
 9 C  dz2             0.0       0.0       0.0       0.0       0.0       0.2
 9 C  dx2y2           0.1       0.0       0.1       0.0       0.0       0.0
10 H  s               0.5       2.1       0.7       3.4       0.1       0.1
11 O  s               2.4       0.7       1.9       0.6       0.4       0.2
11 O  pz              0.1       0.1       0.1       0.8       0.3       0.4
11 O  px              0.4      10.7       0.3      13.0       1.6       2.3
11 O  py              0.2       0.7       0.1       0.8       1.3       0.1
12 O  s               0.7       1.6       0.4       1.0       0.0       0.0
12 O  pz              0.3       1.0       0.6       2.9       0.1       5.1
12 O  px              0.1       0.0       0.2       0.0       0.4       0.5
12 O  py              1.6       1.4       2.9       1.7       0.9      19.8
12 O  dz2             0.0       0.0       0.0       0.1       0.0       0.1
13 O  s               3.8       0.6       0.2       0.9       0.0       0.0
13 O  pz              1.8       0.2       0.6       2.1       0.1       4.2
13 O  px              1.6       0.3       0.3       1.3       0.0       6.2
13 O  py              2.2       0.8       2.1       0.5       1.1      11.4
13 O  dz2             0.1       0.0       0.0       0.1       0.0       0.1
14 O  s               4.1       0.2       0.6       0.3       0.6       0.2
14 O  pz              3.8       0.3       4.4       0.0       4.8       3.4
14 O  px              0.3       0.2       0.5       0.7       0.3       0.1
15 O  s               2.3       2.3       1.0       0.4       0.6       0.1
15 O  pz              1.0       1.0       1.6       3.2       1.8       1.7
15 O  px              0.2       0.5       0.1       1.5       1.8       0.6
15 O  py              0.0       0.1       0.0       0.0       0.4       0.0
16 O  s               0.1       2.1       2.0       0.2       0.8       0.0
16 O  pz              0.0       0.1       0.4       0.2       1.7       0.3
16 O  px              0.0       1.4       5.0       1.6       8.2       1.1
16 O  py              0.0       0.0       0.2       0.0       0.5       0.0
17 H  s               0.0       1.1       3.1       0.1       4.3       0.1
18 H  s               0.0       1.3       3.1       0.7       4.6       0.2
19 H  s               0.9       1.1       1.2       1.2       0.3       7.5
20 H  s               2.6       0.6       0.9       1.1       0.2       6.2
21 H  s               2.4       0.2       1.6       0.0       1.6       1.0
22 H  s               0.9       0.9       0.6       1.4       1.2       0.6
23 H  s               0.0       0.9       2.1       0.7       3.1       0.4

                     24        25        26        27        28        29   
                  -0.49705  -0.47976  -0.46787  -0.46432  -0.44907  -0.42571
                   2.00000   2.00000   2.00000   2.00000   2.00000   2.00000
                  --------  --------  --------  --------  --------  --------
 0 C  s               0.3       0.0       0.0       0.3       0.7       0.6
 0 C  pz              0.5       4.0       4.6       0.6       2.4       0.7
 0 C  px              0.3       0.0       0.4       0.4       7.7       0.0
 0 C  py              0.3       0.8       0.1       4.1       5.5       8.6
 0 C  dxy             0.0       0.0       0.0       0.0       0.3       0.0
 1 C  s               0.8       0.8       2.5       0.0       0.1       0.2
 1 C  pz              0.1       1.8       0.3       0.0       8.1       0.9
 1 C  px              0.0       6.8       4.3       0.0       0.1       2.4
 1 C  py              0.2       2.6       2.0       5.0       0.5       0.8
 1 C  dyz             0.0       0.0       0.0       0.0       0.1       0.0
 1 C  dxy             0.0       0.0       0.3       0.0       0.0       0.0
 2 H  s               0.2       4.1       2.0       0.0       1.4       0.1
 3 C  s               1.0       0.3       0.1       0.0       0.0       0.1
 3 C  pz              2.4       0.1       0.1       0.0       0.1       0.3
 3 C  px              0.7       2.0       0.5       2.5       0.7       6.3
 3 C  py              4.8       2.5       5.3       3.8       0.4       0.1
 3 C  dz2             0.0       0.0       0.2       0.0       0.0       0.0
 3 C  dyz             0.1       0.0       0.0       0.0       0.1       0.0
 3 C  dxy             0.0       0.0       0.1       0.0       0.0       0.0
 4 H  s               0.9       0.2       1.0       0.1       0.3       1.3
 5 C  s               0.1       0.7       0.9       0.5       0.6       0.1
 5 C  pz              2.1       3.9       3.6       3.1       0.4       1.4
 5 C  px              5.8       0.1       5.1       0.5       0.1       0.9
 5 C  py              1.6       6.1       0.4       6.3       3.1       0.8
 5 C  dz2             0.1       0.0       0.1       0.0       0.0       0.0
 5 C  dxz             0.2       0.0       0.0       0.0       0.0       0.1
 6 H  s               1.4       2.3       2.2       3.1       2.2       0.2
 7 C  s               1.0       0.0       0.2       1.6       0.6       0.1
 7 C  pz              6.6       0.3       0.1       9.5       0.6       0.8
 7 C  px              1.0       6.5       4.2       1.3       0.2       2.2
 7 C  py              2.6       0.0       2.5       0.1       0.0       6.8
 7 C  dz2             0.1       0.0       0.1       0.1       0.0       0.2
 8 H  s               4.2       1.5       0.8       6.4       0.8       0.1
 9 C  s               0.2       0.9       1.0       0.1       0.2       0.7
 9 C  pz              0.7       2.6       2.7       2.9       0.3       2.2
 9 C  px              0.5       7.3       0.2       0.1       4.2       9.4
 9 C  py              0.2       5.0       2.0       0.5       0.7       2.8
 9 C  dz2             0.0       0.0       0.0       0.1       0.1       0.1
 9 C  dyz             0.0       0.0       0.0       0.2       0.0       0.1
 9 C  dxy             0.0       0.0       0.0       0.0       0.1       0.1
10 H  s               0.6       6.8       1.7       0.0       1.7       4.2
11 O  s               0.9       0.3       1.6       0.1       0.2       0.1
11 O  pz              0.0       1.8       0.5       0.3       5.1       2.6
11 O  px              0.0       0.1       6.9       3.3       1.6       1.5
11 O  py              0.7       3.6       0.2       0.1       0.6       2.8
12 O  s               0.0       0.5       0.5       0.1       0.1       0.1
12 O  pz              0.0       0.5       0.5       3.3       0.6       2.7
12 O  px              0.0       1.1       0.1       0.1       2.4       1.5
12 O  py              0.5       1.9       2.0       6.9       0.4       3.7
13 O  s               1.0       0.1       0.2       0.8       0.0       0.0
13 O  pz              0.6       0.6       0.7       0.2       0.5       7.2
13 O  px              2.4       0.9       0.2       6.3       0.3       2.5
13 O  py              4.6       0.3       3.6       4.5       0.0       1.7
13 O  dz2             0.0       0.0       0.0       0.0       0.0       0.1
14 O  s               0.6       0.1       0.6       0.0       0.1       0.0
14 O  pz             10.7       7.3       6.8       3.1       0.3       0.7
14 O  px              5.0       0.3       4.8       0.1       0.2       0.0
14 O  py              0.2       1.3       0.3       1.1       0.9       0.2
15 O  s               0.0       0.4       0.5       0.1       0.6       0.3
15 O  pz             11.0       0.0       2.8       1.8       0.2       2.5
15 O  px              5.6       0.9       3.0       0.1       0.9       0.1
15 O  py              0.2       0.4       0.6       0.3       0.4       0.2
16 O  s               0.0       0.4       0.4       0.2       1.0       0.1
16 O  pz              0.4       1.5       2.4       0.9       7.9       0.0
16 O  px              1.0       0.5       1.0       2.3      17.9       1.3
16 O  py              0.1       0.1       0.0       0.4       0.2       2.1
17 H  s               0.3       0.5       0.0       2.1       3.8       4.7
18 H  s               0.1       0.9       0.7       0.0       0.3       0.2
19 H  s               0.2       0.2       0.3       2.7       0.3       1.5
20 H  s               1.5       0.0       0.6       2.9       0.0       2.0
21 H  s               4.4       1.8       3.2       0.9       0.2       0.2
22 H  s               5.2       0.3       1.6       0.2       0.4       0.2
23 H  s               0.4       0.4       0.7       0.9       7.4       0.4

                     30        31        32        33        34        35   
                  -0.41318  -0.38626  -0.37512  -0.36885  -0.35738  -0.34678
                   2.00000   2.00000   2.00000   2.00000   2.00000   2.00000
                  --------  --------  --------  --------  --------  --------
 0 C  s               0.0       0.0       0.1       0.2       0.3       0.1
 0 C  pz              0.6       3.6       3.4       3.1       8.0       0.3
 0 C  px              3.0       0.1       8.8       0.7       4.9       2.6
 0 C  py              1.4       1.8       3.7       9.2       0.2       3.0
 0 C  dz2             0.0       0.0       0.1       0.1       0.1       0.2
 0 C  dxz             0.0       0.0       0.0       0.1       0.1       0.1
 1 C  s               0.0       0.0       0.9       0.0       0.4       0.1
 1 C  pz              5.3       0.9       2.7       2.5       0.9       0.8
 1 C  px              3.6       1.8       3.8       0.9       0.4       3.7
 1 C  py              0.1       1.2       0.2       8.6       0.4       0.2
 1 C  dz2             0.0       0.0       0.0       0.0       0.1       0.2
 1 C  dx2y2           0.0       0.1       0.0       0.0       0.1       0.1
 2 H  s               4.2       0.0       1.5       0.1       0.4       3.5
 3 C  s               1.0       0.3       1.1       0.5       0.1       1.1
 3 C  pz             10.6       2.1       5.9       0.4       0.9       1.7
 3 C  px              0.3       2.4       0.1       0.6       8.0       4.1
 3 C  py              0.1       4.2       1.1       4.6       0.1       0.1
 3 C  dz2             0.1       0.0       0.0       0.0       0.0       0.0
 3 C  dyz             0.1       0.0       0.1       0.3       0.0       0.0
 3 C  dx2y2           0.0       0.0       0.3       0.0       0.0       0.0
 3 C  dxy             0.0       0.0       0.0       0.0       0.1       0.2
 4 H  s               1.9       2.6       2.6       0.0       5.0       4.3
 5 C  s               0.2       0.1       0.1       0.0       0.1       0.0
 5 C  pz              2.6       0.2       2.8       1.6       0.1       1.6
 5 C  px              3.7       0.0       3.5       0.1       3.1       0.7
 5 C  py              2.8       5.9       4.1       8.6       0.5       1.7
 5 C  dz2             0.2       0.1       0.0       0.0       0.1       0.0
 5 C  dxz             0.2       0.0       0.0       0.0       0.0       0.1
 5 C  dx2y2           0.1       0.1       0.2       0.0       0.0       0.0
 5 C  dxy             0.1       0.0       0.0       0.1       0.0       0.0
 6 H  s               0.7       3.4       3.3       3.0       0.0       1.1
 7 C  s               0.0       0.0       0.3       0.3       0.0       0.0
 7 C  pz              0.5       0.1       0.3       0.0       0.1       0.6
 7 C  px              9.9       0.7       0.0       5.5       3.2       0.2
 7 C  py              0.1       9.2       0.2       0.1       0.9       0.0
 7 C  dxz             0.1       0.0       0.0       0.0       0.0       0.0
 8 H  s               4.4       0.1       0.6       1.2       0.6       0.0
 9 C  s               0.1       0.1       0.4       0.1       0.3       0.0
 9 C  pz              0.0       0.3       0.1       0.0       0.2       0.8
 9 C  px              3.1       0.5       0.5       1.7       1.1       0.1
 9 C  py              1.0      15.6       0.0       0.5       0.2       1.2
 9 C  dz2             0.0       0.0       0.1       0.1       0.2       0.1
 9 C  dxz             0.0       0.0       0.1       0.1       0.0       0.0
10 H  s               1.1       1.7       1.1       1.5       0.4       0.1
11 O  s               0.2       0.0       1.7       0.0       1.8       0.0
11 O  pz              0.0       0.2       4.5       0.2      12.3       1.7
11 O  px              2.2       0.4       0.7       4.6       0.0       3.4
11 O  py              0.1       1.7       4.8       3.4       2.6       0.0
12 O  s               0.1       1.2       0.5       0.9       1.2       2.0
12 O  pz              0.1      10.6       0.6       1.2       3.1       8.6
12 O  px              0.9       0.2       0.1       0.2       1.0       0.0
12 O  py              0.3       0.2       1.2       2.3       3.0       3.4
13 O  s               0.7       0.5       0.1       0.0       0.5       1.8
13 O  pz              1.4       7.4       0.3       0.5       3.3       5.8
13 O  px              1.7       0.4       0.2       0.8       3.9       0.4
13 O  py              0.0       0.5       0.6       1.0       0.0       2.5
14 O  s               0.0       0.7       0.5       0.3       0.4       3.0
14 O  pz              6.3       0.2       2.0       0.4       0.0       1.4
14 O  px              0.6       1.0       1.8       0.2       1.3      15.9
14 O  py              0.4       2.9       1.9       5.5       1.6       0.6
15 O  s               0.1       0.4       0.5       1.1       0.0       0.0
15 O  pz              4.8       1.0       1.5       1.4       2.7       2.5
15 O  px              7.5       0.0       3.9       0.5       0.5       0.2
15 O  py              0.4       4.2       0.0       5.6       0.2       0.1
16 O  s               0.2       0.1       1.2       0.3       0.1       0.0
16 O  pz              0.0       0.9       1.5       0.1       0.9       0.2
16 O  px              1.4       1.3       2.9       1.0       5.9       0.5
16 O  py              1.2       0.5       4.2       4.5       1.6       2.1
17 H  s               0.6       0.9       2.2       5.4       0.2       1.7
18 H  s               0.9       1.2       4.2       0.2       7.5       3.9
19 H  s               0.0       0.1       0.2       0.4       0.7       0.5
20 H  s               0.1       0.1       0.0       0.0       0.2       0.7
21 H  s               1.1       0.4       0.1       0.0       0.1       1.0
22 H  s               2.7       0.2       1.5       0.7       0.7       0.5
23 H  s               0.2       0.1       0.1       0.2       0.7       0.2

                     36        37        38        39        40        41   
                  -0.33482  -0.32494  -0.29619  -0.28650  -0.27670  -0.26074
                   2.00000   2.00000   2.00000   2.00000   2.00000   2.00000
                  --------  --------  --------  --------  --------  --------
 0 C  s               0.2       0.3       0.1       0.0       0.6       0.0
 0 C  pz              1.4       2.7       0.0       0.8       3.1       1.1
 0 C  px              0.4       0.5       0.2       0.4       0.5       0.0
 0 C  py              2.1       0.1       0.5       0.2       3.5       0.1
 0 C  dxz             0.0       0.0       0.1       0.1       0.7       0.1
 1 C  s               0.0       0.1       0.2       0.2       1.0       0.2
 1 C  pz              3.1       6.1       0.5       0.3       0.5       2.4
 1 C  px              0.2       3.0       1.0       0.3       0.0       0.2
 1 C  py              0.1       0.4       0.6       1.4       0.1       0.9
 1 C  dxz             0.1       0.4       0.2       0.0       0.1       0.1
 1 C  dx2y2           0.0       0.0       0.0       0.0       0.0       0.6
 2 H  s               1.2       7.4       2.1       0.5       0.1       2.5
 3 C  s               0.4       0.0       0.2       0.2       0.0       0.0
 3 C  pz              1.5       0.0       1.3       1.1       0.0       0.3
 3 C  px              5.2       0.4       2.4       1.4       0.0       0.0
 3 C  py              0.6       0.9       0.1       1.5       0.5       4.7
 3 C  dxz             0.0       0.0       0.1       0.5       0.0       0.1
 4 H  s               3.5       0.0       0.2       2.5       0.1       0.8
 5 C  s               0.1       0.1       0.4       1.2       0.0       0.4
 5 C  pz              0.1       0.6       0.1       2.1       0.3       0.5
 5 C  px              0.2       0.4       2.9       0.0       0.3       0.2
 5 C  py              0.2       0.1       1.7       0.2       0.0       0.0
 5 C  dz2             0.1       0.0       0.1       0.2       0.0       0.1
 5 C  dxz             0.3       0.0       0.4       0.0       0.0       0.1
 5 C  dyz             0.0       0.0       0.0       0.0       0.0       0.2
 6 H  s               0.4       0.1       1.5       0.7       0.2       0.5
 7 C  s               0.5       0.5       0.4       0.3       0.1       0.7
 7 C  pz              1.9       2.1       2.2       0.2       0.7       0.5
 7 C  px              2.4       0.2       0.0       0.2       0.2       2.6
[...]
 3 C  pz              0.0       0.1       1.0       0.8       1.2       0.3
 3 C  py              0.0       0.1       0.3       0.3       0.3       0.1
 3 C  dz2             0.0       0.2       3.2       2.1       1.1       0.3
 3 C  dxz             0.1       0.1       0.0       0.1       0.6       0.1
 3 C  dyz             0.0       0.1       1.4       1.6       2.2       0.2
 3 C  dx2y2           0.0       0.0       0.2       0.0       0.1       0.2
 3 C  dxy             0.0       0.0       0.0       0.0       0.2       0.0
 5 C  s               0.6       0.0       0.7       0.0       1.0       0.0
 5 C  pz              0.8       0.0       0.7       0.0       2.1       0.0
 5 C  py              0.0       0.0       0.0       0.0       0.2       0.0
 5 C  dz2             2.4       0.1       3.1       0.2       3.8       0.0
 5 C  dxz             1.2       0.0       0.2       0.1       1.4       0.2
 5 C  dyz             0.0       0.1       0.1       0.0       0.9       0.0
 7 C  s               1.2       0.1       0.0       0.5       0.4       0.0
 7 C  pz              1.0       0.2       0.1       0.9       0.8       0.1
 7 C  px              0.2       0.1       0.0       0.1       0.1       0.0
 7 C  py              0.1       0.1       0.1       0.2       0.1       0.1
 7 C  dz2             2.0       0.3       0.4       2.4       1.2       0.1
 7 C  dxz             2.7       0.2       0.4       0.5       0.4       0.0
 7 C  dyz             1.4       0.5       0.2       0.3       1.2       0.0
 7 C  dx2y2           0.0       0.0       0.1       0.1       0.0       0.0
 7 C  dxy             0.2       0.0       0.0       0.0       0.0       0.1
 9 C  s               0.6       0.0       0.4       1.6       0.1       1.4
 9 C  pz              0.6       0.5       0.9       1.3       0.0       0.7
 9 C  px              0.0       0.2       0.0       0.3       0.0       1.7
 9 C  py              0.1       0.0       0.2       0.5       0.0       0.0
 9 C  dz2             0.5       0.2       1.3       4.1       0.3       0.3
 9 C  dxz             0.1       0.7       0.4       0.1       0.1       3.3
 9 C  dyz             2.4       0.7       1.7       1.9       0.1       0.0
 9 C  dx2y2           0.2       0.6       0.0       0.0       0.0       2.4
11 O  s               0.0       0.2       0.5       0.0       0.0       0.0
11 O  pz              0.0       0.1       0.0       0.0       0.0       0.2
11 O  px              0.0       0.4       0.0       0.1       0.2       5.8
11 O  py              0.0       0.1       0.0       0.0       0.0       0.4
11 O  dz2             0.0       0.4       0.6       0.0       0.5       2.5
11 O  dxz             0.3       2.3       0.7       0.3       0.4      33.5
11 O  dyz             0.0       0.0       0.0       0.0       0.0       0.5
11 O  dx2y2           0.4       3.0       0.4       0.4       0.7       2.7
11 O  dxy             2.3       0.8       1.8       1.9       2.0      19.8
12 O  s               0.6       0.1       1.0       3.0       0.0       0.0
12 O  pz              0.6       0.2       0.7       1.3       0.0       0.0
12 O  py              0.3       0.1       0.4       1.2       0.0       0.0
12 O  dz2            10.5       4.5       9.4      13.0       0.0       0.3
12 O  dxz             0.0       0.0       0.0       0.2       0.1       0.1
12 O  dyz             3.4       1.2       5.7      14.7       0.2       0.1
12 O  dx2y2           0.0       0.0       0.0       0.3       0.1       0.1
13 O  s               1.5       0.3       0.1       1.8       1.5       0.1
13 O  pz              1.2       0.2       0.1       0.6       0.7       0.0
13 O  px              0.4       0.1       0.0       0.3       0.3       0.0
13 O  py              0.6       0.1       0.1       0.3       0.2       0.0
13 O  dz2            17.2       2.6       0.4       4.2       5.1       0.0
13 O  dxz             6.0       1.4       0.2       5.4       5.8       0.0
13 O  dyz             6.2       0.4       1.5       3.4       1.2       0.2
13 O  dx2y2           0.1       0.1       0.0       0.0       0.2       0.0
13 O  dxy             0.2       0.0       0.2       0.5       0.2       0.2
14 O  s               0.7       0.0       1.0       0.0       3.4       0.0
14 O  pz              1.1       0.0       1.2       0.0       2.5       0.0
14 O  dz2            11.8       0.3      10.1       0.1      23.9       0.3
14 O  dxz             2.3       0.3       5.0       0.9       4.9       0.0
14 O  dyz             2.6       0.0       1.2       0.0       0.5       0.0
14 O  dx2y2           0.1       0.0       0.0       0.0       0.1       0.0
14 O  dxy             0.1       0.0       0.1       0.0       0.0       0.0
15 O  s               0.0       0.1       1.5       1.7       1.8       0.4
15 O  pz              0.0       0.1       1.4       1.0       1.3       0.1
15 O  px              0.0       0.0       0.2       0.1       0.0       0.0
15 O  py              0.0       0.0       0.2       0.1       0.1       0.1
15 O  dz2             0.0       0.8       9.1       7.8      10.5       0.7
15 O  dxz             0.1       0.0       1.4       0.2       0.0       0.1
15 O  dyz             0.0       0.9      13.1       9.5       7.5       1.4
15 O  dx2y2           0.0       0.1       1.4       0.8       0.3       0.3
15 O  dxy             0.0       0.0       0.9       0.3       0.0       0.0
16 O  s               0.3       3.2       0.3       0.1       0.0       0.6
16 O  px              0.4       3.1       0.3       0.0       0.0       0.4
16 O  py              0.0       0.3       0.1       0.0       0.0       0.0
16 O  dz2             1.7      13.3       1.5       0.2       0.2       0.7
16 O  dxz             0.2       2.6       0.1       0.0       0.0       0.8
16 O  dx2y2           1.6      14.2       1.3       0.3       0.0       2.3
16 O  dxy             3.1      21.0       2.8       0.3       0.2       1.0
19 H  s               0.2       0.1       0.2       0.3       0.0       0.0
20 H  s               0.4       0.1       0.0       0.1       0.1       0.0
21 H  s               0.2       0.0       0.2       0.0       0.2       0.0
22 H  s               0.0       0.0       0.2       0.2       0.2       0.0
23 H  s               0.1       0.5       0.0       0.0       0.0       0.0



                      *****************************
                      * MAYER POPULATION ANALYSIS *
                      *****************************

  NA   - Mulliken gross atomic population
  ZA   - Total nuclear charge
  QA   - Mulliken gross atomic charge
  VA   - Mayer's total valence
  BVA  - Mayer's bonded valence
  FA   - Mayer's free valence

  ATOM       NA         ZA         QA         VA         BVA        FA
  0 C      5.9770     6.0000     0.0230     3.9283     3.9283     0.0000
  1 C      5.9990     6.0000     0.0010     4.0650     4.0650    -0.0000
  2 H      0.9400     1.0000     0.0600     0.9841     0.9841    -0.0000
  3 C      5.9158     6.0000     0.0842     3.9641     3.9641     0.0000
  4 H      0.9153     1.0000     0.0847     0.9963     0.9963    -0.0000
  5 C      5.9539     6.0000     0.0461     4.0263     4.0263    -0.0000
  6 H      0.9453     1.0000     0.0547     0.9754     0.9754    -0.0000
  7 C      6.0183     6.0000    -0.0183     3.9776     3.9776    -0.0000
  8 H      0.9348     1.0000     0.0652     0.9755     0.9755    -0.0000
  9 C      5.7817     6.0000     0.2183     4.1459     4.1459     0.0000
 10 H      0.9330     1.0000     0.0670     0.9743     0.9743     0.0000
 11 O      8.3162     8.0000    -0.3162     2.1772     2.1772    -0.0000
 12 O      8.3925     8.0000    -0.3925     2.0503     2.0503     0.0000
 13 O      8.4129     8.0000    -0.4129     2.0290     2.0290     0.0000
 14 O      8.3900     8.0000    -0.3900     2.0374     2.0374     0.0000
 15 O      8.4344     8.0000    -0.4344     2.0077     2.0077    -0.0000
 16 O      8.4286     8.0000    -0.4286     2.0125     2.0125     0.0000
 17 H      0.9416     1.0000     0.0584     0.9612     0.9612    -0.0000
 18 H      0.8803     1.0000     0.1197     1.0099     1.0099    -0.0000
 19 H      0.6941     1.0000     0.3059     0.8907     0.8907    -0.0000
 20 H      0.6876     1.0000     0.3124     0.8781     0.8781     0.0000
 21 H      0.6975     1.0000     0.3025     0.8848     0.8848     0.0000
 22 H      0.7037     1.0000     0.2963     0.9301     0.9301    -0.0000
 23 H      0.7064     1.0000     0.2936     0.8848     0.8848     0.0000

  Mayer bond orders larger than 0.100000
B(  0-C ,  1-C ) :   1.0297 B(  0-C , 16-O ) :   1.0440 B(  0-C , 17-H ) :   0.9135 
B(  0-C , 18-H ) :   0.8927 B(  1-C ,  2-H ) :   0.8967 B(  1-C ,  3-C ) :   1.0135 
B(  1-C , 11-O ) :   0.9819 B(  3-C ,  4-H ) :   0.8785 B(  3-C ,  5-C ) :   0.9834 
B(  3-C , 15-O ) :   1.0499 B(  5-C ,  6-H ) :   0.9024 B(  5-C ,  7-C ) :   0.9630 
B(  5-C , 14-O ) :   1.0784 B(  7-C ,  8-H ) :   0.8933 B(  7-C ,  9-C ) :   0.9882 
B(  7-C , 13-O ) :   1.0412 B(  9-C , 10-H ) :   0.9015 B(  9-C , 11-O ) :   1.0764 
B(  9-C , 12-O ) :   1.1349 B( 12-O , 19-H ) :   0.8366 B( 13-O , 20-H ) :   0.8402 
B( 14-O , 21-H ) :   0.8408 B( 15-O , 22-H ) :   0.8218 B( 16-O , 23-H ) :   0.8523 


-------
TIMINGS
-------

Total SCF time: 0 days 0 hours 0 min 9 sec 

Total time                  ....       9.811 sec
Sum of individual times     ....       9.398 sec  ( 95.8%)

SCF preparation             ....       0.154 sec  (  1.6%)
Fock matrix formation       ....       8.530 sec  ( 86.9%)
  Startup                   ....       0.050 sec  (  0.6% of F)
  Split-RI-J                ....       3.837 sec  ( 45.0% of F)
  XC integration            ....       4.210 sec  ( 49.4% of F)
    Basis function eval.    ....       1.428 sec  ( 33.9% of XC)
    Density eval.           ....       0.829 sec  ( 19.7% of XC)
    XC-Functional eval.     ....       0.287 sec  (  6.8% of XC)
    XC-Potential eval.      ....       1.067 sec  ( 25.3% of XC)
Diagonalization             ....       0.000 sec  (  0.0%)
Density matrix formation    ....       0.162 sec  (  1.6%)
Total Energy calculation    ....       0.029 sec  (  0.3%)
Population analysis         ....       0.104 sec  (  1.1%)
Orbital Transformation      ....       0.049 sec  (  0.5%)
Orbital Orthonormalization  ....       0.000 sec  (  0.0%)
DIIS solution               ....       0.286 sec  (  2.9%)
  MO trafo                  ....       0.000 sec  (  0.0 % of DIIS)
  Orb grad                  ....       0.000 sec  (  0.0 % of DIIS)
  Energy W gradient         ....       0.000 sec  (  0.0 % of DIIS)
  DIIS error                ....       0.006 sec  (  2.2 % of DIIS)
  DIIS work                 ....       0.238 sec  ( 83.3 % of DIIS)
  Form Q                    ....       0.000 sec  (  0.0 % of DIIS)
  Form QpQm                 ....       0.000 sec  (  0.0 % of DIIS)
  Exp/Cayley                ....       0.000 sec  (  0.0 % of DIIS)
  Orb update                ....       0.000 sec  (  0.0 % of DIIS)
  Wake-sleep                ....       0.014 sec  (  5.1 % of DIIS)
SOSCF solution              ....       0.084 sec  (  0.9%)
  MO trafo                  ....       0.046 sec  ( 54.1 % of SOSCF)
  Orb grad                  ....       0.001 sec  (  1.4 % of SOSCF)
  Rot update                ....       0.017 sec  ( 20.0 % of SOSCF)
  Step                      ....       0.021 sec  ( 24.3 % of SOSCF)
Finished LeanSCF after   9.9 sec

Maximum memory used throughout the entire LEANSCF-calculation: 18.5 MB


-------------------------------------------------------------------------------
                          DFT DISPERSION CORRECTION                            
                                                                               
                                DFTD4 V3.4.0                                   
-------------------------------------------------------------------------------
The PBE functional is recognized
Active option DFTDOPT                   ...         5   

-------------------------   ----------------
Dispersion correction           -0.025793372
-------------------------   ----------------

------------------   -----------------
gCP correction             0.156311633
------------------   -----------------

-------------------------   --------------------
FINAL SINGLE POINT ENERGY      -685.692421209519
-------------------------   --------------------


------------------------------------------------------------------------------
                              ORCA PROPERTY CALCULATIONS
------------------------------------------------------------------------------

GBWName                                 ... sp.gbw
Number of atoms                         ...     24
Number of basis functions               ...    192
Max core memory                         ...   1024 MB

Electric properties:
Dipole moment                           ... YES
Quadrupole moment                       ...  NO
Static polarizability (Dipole/Dipole)   ...  NO
Static polarizability (Dipole/Quad.)    ...  NO
Static polarizability (Quad./Quad.)     ...  NO
Static polarizability (Velocity)        ...  NO

Atomic electric properties:
Dipole moment                           ...  NO
Quadrupole moment                       ...  NO
Static polarizability                   ...  NO

Choice of electric origin               ... Center of mass
Position of electric origin             ...     0.000000    -0.000000    -0.000002

General magnetic properties:
Magnetizability                         ...  NO

EPR properties:
g-Tensor (aka g-matrix)                 ...  NO
Zero-Field splitting spin-orbit         ...  NO
Zero-field splitting spin-spin          ...  NO
Hyperfine couplings                     ...  NO (   0 nuclei)
Quadrupole couplings                    ...  NO (   0 nuclei)
Contact density                         ...  NO (   0 nuclei)

NMR properties:
Chemical shifts                         ...  NO (   0 nuclei)
Spin-rotation constants                 ...  NO (   0 nuclei)
Spin-spin couplings                     ...  NO (   0 nuclei,    0 pairs)

Choice of magnetic origin               ... GIAO
Position of magnetic origin             ...     0.000000     0.000000     0.000000

Properties with geometric perturbations:
SCF Hessian                             ...  NO
IR spectrum                             ...  NO
VCD spectrum                            ...  NO
X-ray spectroscopy properties:
SCF XES/XAS/RIXS spectra                ...  NO


-------------
DIPOLE MOMENT
-------------

Method             : SCF
Type of density    : Electron Density
Multiplicity       :   1
Irrep              :   0
Energy             :  -685.8229394706214634 Eh
Relativity type    : 
Basis              : AO
                                X                 Y                 Z
Electronic contribution:      0.979862643      -0.038688358       1.140070497
Nuclear contribution   :      0.237680759      -0.238391373      -1.269921641
                        -----------------------------------------
Total Dipole Moment    :      1.217543401      -0.277079730      -0.129851144
                        -----------------------------------------
Magnitude (a.u.)       :      1.255406879
Magnitude (Debye)      :      3.190990693



--------------------
Rotational spectrum 
--------------------
 
Rotational constants in cm-1:             0.040699             0.028521             0.024691 
Rotational constants in MHz :          1220.131636           855.033791           740.228854 

Dipole components along the rotational axes: 
x,y,z [a.u.] :     1.056327     0.673388    -0.082277 
x,y,z [Debye]:     2.684969     1.711616    -0.209132 

 

Dipole moment calculation done in   0.0 sec 

Maximum memory used throughout the entire PROP-calculation: 12.1 MB

--------------------------------
SUGGESTED CITATIONS FOR THIS RUN
--------------------------------

Below you find a list of papers that are relevant to this ORCA run
We neither can nor want to force you to cite these papers, but we appreciate if you do
You receive ORCA, which is the product of decades of hard work by many enthusiastic individuals, for free
The only thing we kindly ask in return is that you cite our papers,
We deeply appreciate it, if you show your appreciation for ORCA by not just citing the generic ORCA reference.

Please note that relegating all ORCA citations to the supporting information does *not* help us.
SI sections are not indexed - citations you put there will not count into any citation statistics
But we need these citations in order to attract the funding resources that allow us to do what we are doing

Therefore, if you are a happy ORCA user, please consider citing a few of the papers listed below in the main body of your paper

In addition to the list printed below, the program has created the file sp.bibtex that contains the list in bibtex format
You can import this file easily into all common literature databanks and citation aid programs


List of essential papers. We consider these as the minimum necessary citations

  1. Neese,F.
     Software update: the ORCA program system, version 5.0
     WIRES Comput. Molec. Sci., 2022 12(1)e1606
     doi.org/10.1002/wcms.1606

List of papers to cite with high priority. The work reported in these papers was absolutely
necessary for this run to complete.
Our perspective: the developers of density functionals and basis sets usually get cited in chemistry papers
Good! But without the algorithms to do something with them, the functionals or basis sets would not do anything.
Hence, in our opinion, the algorithm design and method developments papers are equally worthy of getting cited

  1. Neese,F.
     An improvement of the resolution of the identity approximation for the formation of the Coulomb matrix
     J. Comp. Chem., 2003 24(14)1740-1747
     doi.org/10.1002/jcc.10318
  2. Neese,F.
     The SHARK Integral Generation and Digestion System
     J. Comp. Chem., 2022  1-16
     doi.org/10.1002/jcc.26942
  3. Caldeweyher,E.; Bannwarth,C.; Grimme,S.
     Extension of the D3 dispersion coefficient model
     J. Chem. Phys., 2017 147 034112-XXXX
     doi.org/10.1063/1.4993215
  4. Caldeweyher,E.; Ehlert,S.; Hansen,A.; Neugebauer,H.; Spicher,S.; Bannwarth,C.; Grimme,S.
     A generally applicable atomic-charge dependent London dispersion correction
     J. Chem. Phys., 2019 150 154122-XXXX
     doi.org/10.1063/1.5090222
  5. Caldeweyher,E.; Mewes,J.; Ehlert,S.; Grimme,S.
     Extension and evaluation of the D4 London-dispersion model for periodic systems
     Phys. Chem. Chem. Phys., 2020 22(16)8499-8512
     doi.org/10.1039/D0CP00502A

List of suggested additional citations. These are papers that are important in the 'surrounding' of 
of this run, or papers that preceded the highly important papers. If you like your results we are grateful for a citation.

  1. Neese,F.
     The ORCA program system
     WIRES Comput. Molec. Sci., 2012 2(1)73-78
     doi.org/10.1002/wcms.81
  2. Neese,F.
     Software update: the ORCA program system, version 4.0
     WIRES Comput. Molec. Sci., 2018 8(1)1-6
     doi.org/10.1002/wcms.1327
  3. Neese,F.; Wennmohs,F.; Becker,U.; Riplinger,C.
     The ORCA quantum chemistry program package
     J. Chem. Phys., 2020 152 Art. No. L224108
     doi.org/10.1063/5.0004608

List of optional additional citations

  1. Neese,F.
     Approximate second-order SCF convergence for spin unrestricted wavefunctions
     Chem. Phys. Lett., 2000 325(1-3)93-98
     doi.org/10.1016/s0009-2614(00)00662-x

Timings for individual modules:

Sum of individual times          ...       12.003 sec (=   0.200 min)
Startup calculation              ...        0.943 sec (=   0.016 min)   7.9 %
SCF iterations                   ...       10.958 sec (=   0.183 min)  91.3 %
Property calculations            ...        0.102 sec (=   0.002 min)   0.9 %
                             ****ORCA TERMINATED NORMALLY****
TOTAL RUN TIME: 0 days 0 hours 0 minutes 12 seconds 705 msec
