21
 energy: -275.092168433382 gnorm: 0.024819334774 xtb: 6.7.1 (edcfbbe)
C            2.48411652440078       -0.00003090270001       -0.07985228253538
C            1.01431889954947       -0.00007797700003        0.33200221754712
C            0.30115425343345        1.24939049175364       -0.18751525418309
C           -1.16861765031785        1.25200979695480        0.22322978829892
C           -1.87056957022890       -0.00004002760002       -0.29384355463021
C           -1.16857957481783       -1.25194795255477        0.22347139779903
C            0.30103545793340       -1.24935844075362       -0.18777310268321
H            2.98917301242458       -0.88268059749114        0.30568966763546
H            2.57368188844047        0.00043094880019       -1.16425874711591
H            2.98941886012469        0.88239724849101        0.30619462683568
H            0.95842400292470       -0.00019746140009        1.42699132343234
H            0.79514697545235        2.14321886114972        0.19996426058861
H            0.37239417866502        1.27460505726481       -1.27764952046616
H           -1.23962339794931        1.28178940456799        1.31315253658189
H           -1.66129403653616        2.14427334405018       -0.16860121397471
H           -2.91530654739185       -0.00001126600000        0.02360202511046
H           -1.85165610752052       -0.00014858550007       -1.38612518631423
H           -1.23914624094910       -1.28122313106774        1.31344264508202
H           -1.66144284183623       -2.14436113205022       -0.16778189977435
H            0.79513296115234       -2.14335201334978        0.19916264448825
H            0.37188911776479       -1.27408510826458       -1.27794273016629
21
 energy: -275.092932866297 gnorm: 0.005988340941 xtb: 6.7.1 (edcfbbe)
C            2.49426412600307       -0.00002972491520       -0.08038332910132
C            1.02230583150271       -0.00004181456525        0.32491188730271
C            0.30121625107181        1.25408169645978       -0.17813158402221
C           -1.17642881258527        1.25911084054532        0.21695104895341
C           -1.88228401985865       -0.00001469624850       -0.28751882613075
C           -1.17637224229594       -1.25902046810861        0.21714101442619
C            0.30115018568297       -1.25403037070621       -0.17835625290894
H            3.00835909300783       -0.88624979645865        0.30301914502355
H            2.58587374625697        0.00033552154666       -1.17117638066333
H            3.00849150404150        0.88593211237599        0.30352459734592
H            0.96327720756228       -0.00015952849366        1.42283833835119
H            0.80207341399127        2.15096454942559        0.20463228059969
H            0.37991967350842        1.28151931973367       -1.27312946431321
H           -1.25139027563117        1.29417111916451        1.31101372191147
H           -1.67081964224857        2.15659010416612       -0.17053018834701
H           -2.93252825881555        0.00001087614710        0.02348267151322
H           -1.86718397414069       -0.00011748731636       -1.38467725574993
H           -1.25098226466069       -1.29369231318901        1.31124543314541
H           -1.67090585310925       -2.15662130080393       -0.16986909977874
H            0.80209674627139       -2.15104865504707        0.20396093499704
H            0.37951778847654       -1.28108952699721       -1.27338984535775
21
 energy: -275.093007238029 gnorm: 0.000925177371 xtb: 6.7.1 (edcfbbe)
C            2.49303307604628       -0.00000754591400       -0.08186815683148
C            1.02267356573468       -0.00002723993272        0.32839921592707
C            0.30191679188487        1.25477824468293       -0.17695429777536
C           -1.17703597919290        1.25937154958248        0.21732250279726
C           -1.88399895916429        0.00000085281021       -0.28820510562971
C           -1.17700441244983       -1.25928844949271        0.21746151471658
C            0.30185276799866       -1.25471711675747       -0.17713473270106
H            3.01214922621820       -0.88663932095597        0.29985163792317
H            2.58770878073264        0.00027520955421       -1.17496817574272
H            3.01225147715732        0.88636673050849        0.30030937284209
H            0.96537406601277       -0.00012840544679        1.42815979571018
H            0.80323015732352        2.15254831075729        0.20674832436940
H            0.38507662817386        1.28682826349391       -1.27412132525656
H           -1.25679792456702        1.30034756072681        1.31304898786330
H           -1.67117852528271        2.15766467098289       -0.17172551717928
H           -2.93542585096183        0.00002263151553        0.02298102342180
H           -1.87441745048302       -0.00007874197990       -1.38762458340177
H           -1.25649262578115       -1.29997861981667        1.31322478836608
H           -1.67125994976468       -2.15766902505283       -0.17123397721042
H            0.80323912439228       -2.15259160404294        0.20622109635569
H            0.38475611386493       -1.28647753316360       -1.27433411702725
21
 energy: -275.093015778837 gnorm: 0.000643776355 xtb: 6.7.1 (edcfbbe)
C            2.49276816530171       -0.00000037914384       -0.08317680608010
C            1.02362380363026       -0.00001544153814        0.32907162487099
C            0.30199856049923        1.25503416423420       -0.17536383360791
C           -1.17734618740650        1.25993364965678        0.21662163503838
C           -1.88362227544022        0.00001785915805       -0.28817691486193
C           -1.17733082668089       -1.25985191632727        0.21670386376868
C            0.30194802846538       -1.25497504348813       -0.17550173023900
H            3.01349249546992       -0.88632167614548        0.29711511959518
H            2.58614061735159        0.00022120637208       -1.17638948673474
H            3.01358301071649        0.88610329585213        0.29749049509723
H            0.96853234877983       -0.00009004064065        1.42896902514635
H            0.80198350963904        2.15249059112695        0.21088402398027
H            0.38724643386733        1.28995077881724       -1.27233251311709
H           -1.25972418052981        1.30375191716095        1.31211758784703
H           -1.67070656157449        2.15756844876913       -0.17520865676371
H           -2.93449191469802        0.00003534117551        0.02507958736391
H           -1.87714985736914       -0.00003276206624       -1.38768246089691
H           -1.25952182417103       -1.30348713110763        1.31222635141117
H           -1.67077489843550       -2.15753948066531       -0.17489756449724
H            0.80198087643800       -2.15250814331917        0.21050304060551
H            0.38702062756558       -1.28968488469488       -1.27249469920506
21
 energy: -275.093019506990 gnorm: 0.000582386789 xtb: 6.7.1 (edcfbbe)
C            2.49190192268123        0.00000375079949       -0.08565695832476
C            1.02411113566582        0.00000415745700        0.33018908916709
C            0.30274001138729        1.25578287582426       -0.17293196376362
C           -1.17726364550635        1.25982446821124        0.21555939234175
C           -1.88409427756375        0.00004093446229       -0.28800651693969
C           -1.17727407416111       -1.25974809994288        0.21555819815455
C            0.30270753953930       -1.25572233417370       -0.17300842032236
H            3.01350534997693       -0.88606778081097        0.29331357261442
H            2.58254043852818        0.00014298924220       -1.17885655906331
H            3.01357609551631        0.88593187948316        0.29355027064301
H            0.97128422974856       -0.00003502619134        1.43001917767847
H            0.80148741832511        2.15232061257055        0.21685000241212
H            0.39040103921187        1.29330304652904       -1.26929862804977
H           -1.26258712810067        1.30663472183242        1.31042897376438
H           -1.66932769634408        2.15638883577560       -0.18014689949034
H           -2.93422220321974        0.00004872321136        0.02758737842315
H           -1.87969334245528        0.00003501405230       -1.38722691651396
H           -1.26253205439092       -1.30651965428889        1.31043740743957
H           -1.66937964054118       -2.15631624438132       -0.18009117868656
H            0.80146002345733       -2.15230210754066        0.21667273691412
H            0.39030858959853       -1.29315048589077       -1.26938529597361
21
 energy: -275.093019506990 gnorm: 0.000582386789 xtb: 6.7.1 (edcfbbe)
C            2.49190192268123        0.00000375079949       -0.08565695832476
C            1.02411113566582        0.00000415745700        0.33018908916709
C            0.30274001138729        1.25578287582426       -0.17293196376362
C           -1.17726364550635        1.25982446821124        0.21555939234175
C           -1.88409427756375        0.00004093446229       -0.28800651693969
C           -1.17727407416111       -1.25974809994288        0.21555819815455
C            0.30270753953930       -1.25572233417370       -0.17300842032236
H            3.01350534997693       -0.88606778081097        0.29331357261442
H            2.58254043852818        0.00014298924220       -1.17885655906331
H            3.01357609551631        0.88593187948316        0.29355027064301
H            0.97128422974856       -0.00003502619134        1.43001917767847
H            0.80148741832511        2.15232061257055        0.21685000241212
H            0.39040103921187        1.29330304652904       -1.26929862804977
H           -1.26258712810067        1.30663472183242        1.31042897376438
H           -1.66932769634408        2.15638883577560       -0.18014689949034
H           -2.93422220321974        0.00004872321136        0.02758737842315
H           -1.87969334245528        0.00003501405230       -1.38722691651396
H           -1.26253205439092       -1.30651965428889        1.31043740743957
H           -1.66937964054118       -2.15631624438132       -0.18009117868656
H            0.80146002345733       -2.15230210754066        0.21667273691412
H            0.39030858959853       -1.29315048589077       -1.26938529597361
