
                                 *****************
                                 * O   R   C   A *
                                 *****************

                                            #,                                       
                                            ###                                      
                                            ####                                     
                                            #####                                    
                                            ######                                   
                                           ########,                                 
                                     ,,################,,,,,                         
                               ,,#################################,,                 
                          ,,##########################################,,             
                       ,#########################################, ''#####,          
                    ,#############################################,,   '####,        
                  ,##################################################,,,,####,       
                ,###########''''           ''''###############################       
              ,#####''   ,,,,##########,,,,          '''####'''          '####       
            ,##' ,,,,###########################,,,                        '##       
           ' ,,###''''                  '''############,,,                           
         ,,##''                                '''############,,,,        ,,,,,,###''
      ,#''                                            '''#######################'''  
     '                                                          ''''####''''         
             ,#######,   #######,   ,#######,      ##                                
            ,#'     '#,  ##    ##  ,#'     '#,    #''#        ,####,   ,####,        
            ##       ##  ##   ,#'  ##            #'  '#       #'       #'  '#        
            ##       ##  #######   ##           ,######,      #####,   #    #        
            '#,     ,#'  ##    ##  '#,     ,#' ,#      #,     #,   #   #,  ,#        
             '#######'   ##     ##  '#######'  #'      '#     '####' # '####'        



                #########################################################
                #                        -***-                          #
                #          Department of theory and spectroscopy        #
                #                                                       #
                #                      Frank Neese                      #
                #                                                       #
                #     Directorship, Architecture, Infrastructure        #
                #                    SHARK, DRIVERS                     #
                #        Core code/Algorithms in most modules           #
                #                                                       #
                #        Max Planck Institute fuer Kohlenforschung      #
                #                Kaiser Wilhelm Platz 1                 #
                #                 D-45470 Muelheim/Ruhr                 #
                #                      Germany                          #
                #                                                       #
                #                  All rights reserved                  #
                #                        -***-                          #
                #########################################################


                         Program Version 6.0.0  -   RELEASE  -


 With contributions from (in alphabetic order):
   Daniel Aravena         : Magnetic Suceptibility
   Michael Atanasov       : Ab Initio Ligand Field Theory (pilot matlab implementation)
   Alexander A. Auer      : GIAO ZORA, VPT2 properties, NMR spectrum
   Ute Becker             : All parallelization in ORCA, NUMFREQ, NUMCALC
   Giovanni Bistoni       : ED, misc. LED, open-shell LED, HFLD
   Martin Brehm           : Molecular dynamics
   Dmytro Bykov           : pre 5.0 version of the SCF Hessian
   Marcos Casanova-Páez   : Triplet and SCS-CIS(D). UHF-(DLPNO)-IP/EA/STEOM-CCSD. UHF-CVS-IP/STEOM-CCSD
   Vijay G. Chilkuri      : MRCI spin determinant printing, contributions to CSF-ICE
   Pauline Colinet        : FMM embedding
   Dipayan Datta          : RHF DLPNO-CCSD density
   Achintya Kumar Dutta   : EOM-CC, STEOM-CC
   Nicolas Foglia         : Exact transition moments, OPA infrastructure, MCD improvements
   Dmitry Ganyushin       : Spin-Orbit,Spin-Spin,Magnetic field MRCI
   Miquel Garcia          : C-PCM and meta-GGA Hessian, CCSD/C-PCM, Gaussian charge scheme
   Tiago L. C. Gouveia    : GS-ROHF, GS-ROCIS
   Yang Guo               : DLPNO-NEVPT2, F12-NEVPT2, CIM, IAO-localization
   Andreas Hansen         : Spin unrestricted coupled pair/coupled cluster methods
   Ingolf Harden          : AUTO-CI MPn and infrastructure 
   Benjamin Helmich-Paris : MC-RPA, TRAH-(SCF,CASSCF), AVAS, COSX integrals, SCF dyn. polar.
   Lee Huntington         : MR-EOM, pCC
   Robert Izsak           : Overlap fitted RIJCOSX, COSX-SCS-MP3, EOM
   Riya Kayal             : Wick's Theorem for AUTO-CI, AUTO-CI UHF-CCSDT
   Emily Kempfer          : AUTO-CI, RHF CISDT and CCSDT
   Christian Kollmar      : KDIIS, OOCD, Brueckner-CCSD(T), CCSD density, CASPT2, CASPT2-K, improved NEVPT2
   Axel Koslowski         : Symmetry handling
   Simone Kossmann        : Meta GGA functionals, TD-DFT gradient, OOMP2, (MP2 Hessian; deprecated post 5.0)
   Lucas Lang             : DCDCAS
   Marvin Lechner         : AUTO-CI (C++ implementation), FIC-MRCC
   Spencer Leger          : CASSCF response
   Dagmar Lenk            : GEPOL surface, SMD, ORCA-2-JSON
   Dimitrios Liakos       : Extrapolation schemes; Compound Job, initial MDCI parallelization
   Dimitrios Manganas     : Further ROCIS development; embedding schemes. LFT, Crystal Embedding
   Dimitrios Pantazis     : SARC Basis sets
   Anastasios Papadopoulos: AUTO-CI, single reference methods and gradients
   Taras Petrenko         : pre 6.0 DFT Hessian and TD-DFT gradient, (ASA, deprecated), ECA, 1-Electron XAS/XES, NRVS
   Peter Pinski           : DLPNO-MP2, DLPNO-MP2 Gradient
   Christoph Reimann      : Effective Core Potentials
   Marius Retegan         : Local ZFS, SOC
   Christoph Riplinger    : Optimizer, TS searches, QM/MM, DLPNO-CCSD(T), (RO)-DLPNO pert. Triples
   Michael Roemelt        : Original ROCIS implementation
   Masaaki Saitow         : Open-shell DLPNO-CCSD energy and density
   Barbara Sandhoefer     : DKH picture change effects
   Kantharuban Sivalingam : CASSCF convergence/infrastructure, NEVPT2 and variants, FIC-MRCI
   Bernardo de Souza      : ESD, SOC TD-DFT
   Georgi Stoychev        : AutoAux, RI-MP2 NMR, DLPNO-MP2 response, X2C
   Van Anh Tran           : RI-MP2 g-tensors
   Willem Van den Heuvel  : Paramagnetic NMR
   Zikuan Wang            : NOTCH, Electric field optimization 
   Frank Wennmohs         : Technical directorship and infrastructure
   Hang Xu                : AUTO-CI-Response properties 


 We gratefully acknowledge several colleagues who have allowed us to
 interface, adapt or use parts of their codes:
   Stefan Grimme, W. Hujo, H. Kruse, P. Pracht,  : VdW corrections, initial TS optimization,
                  C. Bannwarth, S. Ehlert,         DFT functionals, gCP, sTDA/sTD-DF
                  L. Wittmann, M. Mueller
   Ed Valeev, F. Pavosevic, A. Kumar             : LibInt (2-el integral package), F12 methods
   Garnet Chan, S. Sharma, J. Yang, R. Olivares  : DMRG
   Ulf Ekstrom                                   : XCFun DFT Library
   Mihaly Kallay                                 : mrcc  (arbitrary order and MRCC methods)
   Frank Weinhold                                : gennbo (NPA and NBO analysis)
   Simon Mueller                                 : openCOSMO-RS
   Christopher J. Cramer and Donald G. Truhlar   : smd solvation model
   Lars Goerigk                                  : TD-DFT with DH, B97 family of functionals
   V. Asgeirsson, H. Jonsson                     : NEB implementation
   FAccTs GmbH                                   : IRC, NEB, NEB-TS, DLPNO-Multilevel, CI-OPT
                                                   MM, QMMM, 2- and 3-layer-ONIOM, Crystal-QMMM,
                                                   LR-CPCM, SF, NACMEs, symmetry and pop. for TD-DFT,
                                                   nearIR, NL-DFT gradient (VV10), updates on ESD,
                                                   ML-optimized integration grids, MBIS, APM,
                                                   GOAT, DOCKER, SOLVATOR, interface openCOSMO-RS
   S Lehtola, MJT Oliveira, MAL Marques          : LibXC Library
   Liviu Ungur et al                             : ANISO software


 Your calculation uses the libint2 library for the computation of 2-el integrals
 For citations please refer to: http://libint.valeyev.net

 Your ORCA version has been built with support for libXC version: 6.2.2
 For citations please refer to: https://libxc.gitlab.io

 This ORCA versions uses:
   CBLAS   interface :  Fast vector & matrix operations
   LAPACKE interface :  Fast linear algebra routines
   SCALAPACK package :  Parallel linear algebra routines
   Shared memory     :  Shared parallel matrices
   BLAS/LAPACK       :  OpenBLAS 0.3.27  USE64BITINT DYNAMIC_ARCH NO_AFFINITY SkylakeX SINGLE_THREADED
        Core in use  :  SkylakeX
   Copyright (c) 2011-2014, The OpenBLAS Project


Your calculation utilizes the geometrical counterpoise correction gCP
Please cite in your paper:
H.Kruse, S. Grimme J.Chem.Phys., 136, (2012), 154101 
   

Your calculation utilizes the atom-pairwise dispersion correction
based on EEQ partial charges (D4)


Your calculation utilizes the SMD solvation module
Please cite in your paper:
A.V. Marenich, C.J. Cramer, D.G. Truhlar J. Phys. Chem. B, 113, (2009), 6378 

================================================================================

----- Orbital basis set information -----
Your calculation utilizes the basis: def2-mTZVPP
   Stefan Grimme, Andreas Hansen, Sebastian Ehlert, and Jan-Michael Mewes 
   J. Chem. Phys. 154, 064103 (2021). DOI: 10.1063/5.0040021

----- AuxJ basis set information -----
Your calculation utilizes the auxiliary basis: def2/J
   F. Weigend, Phys. Chem. Chem. Phys. 8, 1057 (2006).

================================================================================
                                        WARNINGS
                       Please study these warnings very carefully!
================================================================================

Using LibXC functional ID 497 : Re-regularized SCAN exchange by Furness et al
[ 1]  J. W. Furness, A. D. Kaplan, J. Ning, J. P. Perdew, and J. Sun.,  J. Phys. Chem. Lett. 11, 8208-8215 (2020)
[ 2]  J. W. Furness, A. D. Kaplan, J. Ning, J. P. Perdew, and J. Sun.,  J. Phys. Chem. Lett. 11, 9248-9248 (2020)
Using LibXC functional ID 498 : Re-regularized SCAN correlation by Furness et al
[ 1]  J. W. Furness, A. D. Kaplan, J. Ning, J. P. Perdew, and J. Sun.,  J. Phys. Chem. Lett. 11, 8208-8215 (2020)
[ 2]  J. W. Furness, A. D. Kaplan, J. Ning, J. P. Perdew, and J. Sun.,  J. Phys. Chem. Lett. 11, 9248-9248 (2020)
Using LibXC functional ID 497 : Re-regularized SCAN exchange by Furness et al
[ 1]  J. W. Furness, A. D. Kaplan, J. Ning, J. P. Perdew, and J. Sun.,  J. Phys. Chem. Lett. 11, 8208-8215 (2020)
[ 2]  J. W. Furness, A. D. Kaplan, J. Ning, J. P. Perdew, and J. Sun.,  J. Phys. Chem. Lett. 11, 9248-9248 (2020)
Using LibXC functional ID 498 : Re-regularized SCAN correlation by Furness et al
[ 1]  J. W. Furness, A. D. Kaplan, J. Ning, J. P. Perdew, and J. Sun.,  J. Phys. Chem. Lett. 11, 8208-8215 (2020)
[ 2]  J. W. Furness, A. D. Kaplan, J. Ning, J. P. Perdew, and J. Sun.,  J. Phys. Chem. Lett. 11, 9248-9248 (2020)

================================================================================
                                       INPUT FILE
================================================================================
NAME = sp_solv.inp
|  1> ! r2scan-3c def2/J RI DEFGRID2 scfconv6 printgap
|  2> %output
|  3>     printlevel normal
|  4> end
|  5> %cpcm
|  6>     smd true
|  7>     smdsolvent "water"
|  8> end
|  9> * xyz 0 1
| 10> C 2.1084488274 0.0245355836 0.0009967442
| 11> N 0.6705497798 -0.0096508872 -0.0013521935
| 12> C -0.1236026938 -1.1176498304 -0.0003145603
| 13> C -1.4112642625 -0.6628566026 0.0003216211
| 14> N -1.4233488538 0.6975919543 0.0006457942
| 15> C -0.1624992904 1.0517028918 -0.0005665736
| 16> H 2.4713835468 0.5210184093 0.9015617514
| 17> H 2.4891707185 -0.993403621 -0.0253581859
| 18> H 2.4722997868 0.5677847934 -0.8714246802
| 19> H 0.2764813288 -2.1097809139 -0.0006874685
| 20> H -2.3265963233 -1.2200431743 0.0012309296
| 21> H 0.1799181688 2.0666873051 -0.0007160683
| 22> *
| 23> 
| 24>                          ****END OF INPUT****
================================================================================

                       ****************************
                       * Single Point Calculation *
                       ****************************

---------------------------------
CARTESIAN COORDINATES (ANGSTROEM)
---------------------------------
  C      2.108449    0.024536    0.000997
  N      0.670550   -0.009651   -0.001352
  C     -0.123603   -1.117650   -0.000315
  C     -1.411264   -0.662857    0.000322
  N     -1.423349    0.697592    0.000646
  C     -0.162499    1.051703   -0.000567
  H      2.471384    0.521018    0.901562
  H      2.489171   -0.993404   -0.025358
  H      2.472300    0.567785   -0.871425
  H      0.276481   -2.109781   -0.000687
  H     -2.326596   -1.220043    0.001231
  H      0.179918    2.066687   -0.000716

----------------------------
CARTESIAN COORDINATES (A.U.)
----------------------------
  NO LB      ZA    FRAG     MASS         X           Y           Z
   0 C     6.0000    0    12.011    3.984391    0.046366    0.001884
   1 N     7.0000    0    14.007    1.267155   -0.018238   -0.002555
   2 C     6.0000    0    12.011   -0.233575   -2.112052   -0.000594
   3 C     6.0000    0    12.011   -2.666903   -1.252617    0.000608
   4 N     7.0000    0    14.007   -2.689740    1.318258    0.001220
   5 C     6.0000    0    12.011   -0.307079    1.987430   -0.001071
   6 H     1.0000    0     1.008    4.670238    0.984582    1.703705
   7 H     1.0000    0     1.008    4.703851   -1.877261   -0.047920
   8 H     1.0000    0     1.008    4.671970    1.072958   -1.646754
   9 H     1.0000    0     1.008    0.522474   -3.986908   -0.001299
  10 H     1.0000    0     1.008   -4.396630   -2.305547    0.002326
  11 H     1.0000    0     1.008    0.339996    3.905473   -0.001353

--------------------------------
INTERNAL COORDINATES (ANGSTROEM)
--------------------------------
 C      0   0   0     0.000000000000     0.00000000     0.00000000
 N      1   0   0     1.438307304919     0.00000000     0.00000000
 C      2   1   0     1.363209773344   126.99267267     0.00000000
 C      3   2   1     1.365616930287   106.17800815   179.83485216
 N      4   3   2     1.360502266961   109.96180839   359.95750357
 C      5   4   3     1.309632638345   105.17849992     0.03522235
 H      1   2   3     1.090520123131   110.17472439   241.67024939
 H      1   2   3     1.087126471467   109.13617979     1.62798749
 H      1   2   3     1.090241425720   110.13151603   121.59888168
 H      3   2   1     1.069762333907   122.40699253   359.79865071
 H      4   3   2     1.071583167119   129.21716805   180.00330539
 H      6   5   4     1.071187704352   124.32990020   179.99800442

---------------------------
INTERNAL COORDINATES (A.U.)
---------------------------
 C      0   0   0     0.000000000000     0.00000000     0.00000000
 N      1   0   0     2.718006902715     0.00000000     0.00000000
 C      2   1   0     2.576093134705   126.99267267     0.00000000
 C      3   2   1     2.580642002089   106.17800815   179.83485216
 N      4   3   2     2.570976689136   109.96180839   359.95750357
 C      5   4   3     2.474847022517   105.17849992     0.03522235
 H      1   2   3     2.060784376248   110.17472439   241.67024939
 H      1   2   3     2.054371304009   109.13617979     1.62798749
 H      1   2   3     2.060257714467   110.13151603   121.59888168
 H      3   2   1     2.021557839470   122.40699253   359.79865071
 H      4   3   2     2.024998715575   129.21716805   180.00330539
 H      6   5   4     2.024251399250   124.32990020   179.99800442

---------------------
BASIS SET INFORMATION
---------------------
There are 3 groups of distinct atoms

 Group   1 Type C   : 11s6p1d contracted to 5s3p1d pattern {62111/411/1}
 Group   2 Type N   : 11s6p2d contracted to 5s3p2d pattern {62111/411/11}
 Group   3 Type H   : 4s1p contracted to 2s1p pattern {31/1}

Atom   0C    basis set group =>   1
Atom   1N    basis set group =>   2
Atom   2C    basis set group =>   1
Atom   3C    basis set group =>   1
Atom   4N    basis set group =>   2
Atom   5C    basis set group =>   1
Atom   6H    basis set group =>   3
Atom   7H    basis set group =>   3
Atom   8H    basis set group =>   3
Atom   9H    basis set group =>   3
Atom  10H    basis set group =>   3
Atom  11H    basis set group =>   3
---------------------------------
AUXILIARY/J BASIS SET INFORMATION
---------------------------------
There are 3 groups of distinct atoms

 Group   1 Type C   : 12s5p4d2f1g contracted to 6s4p3d1f1g pattern {711111/2111/211/2/1}
 Group   2 Type N   : 12s5p4d2f1g contracted to 6s4p3d1f1g pattern {711111/2111/211/2/1}
 Group   3 Type H   : 5s2p1d contracted to 3s1p1d pattern {311/2/1}

Atom   0C    basis set group =>   1
Atom   1N    basis set group =>   2
Atom   2C    basis set group =>   1
Atom   3C    basis set group =>   1
Atom   4N    basis set group =>   2
Atom   5C    basis set group =>   1
Atom   6H    basis set group =>   3
Atom   7H    basis set group =>   3
Atom   8H    basis set group =>   3
Atom   9H    basis set group =>   3
Atom  10H    basis set group =>   3
Atom  11H    basis set group =>   3

Checking for AutoStart:
The File: sp_solv.gbw exists
Trying to determine its content:
     ... Fine, the file contains calculation information
     ... Fine, the calculation information was read
     ... Fine, the file contains a basis set
     ... Fine, the basis set was read
     ... Fine, the file contains a geometry
     ... Fine, the geometry was read
     ... Fine, the file contains a set of orbitals
     ... Fine, the orbitals can be read
     => possible old guess file was deleted
     => GBW file was renamed to GES file
     => GES file is set as startup file
     => Guess is set to MORead
     ... now leaving AutoStart

------------------------------------------------------------------------------
                             ORCA STARTUP CALCULATIONS
                           -- RI-GTO INTEGRALS CHOSEN --
------------------------------------------------------------------------------
------------------------------------------------------------------------------
                   ___                                                        
                  /   \      - P O W E R E D   B Y -                         
                 /     \                                                     
                 |  |  |   _    _      __       _____    __    __             
                 |  |  |  | |  | |    /  \     |  _  \  |  |  /  |          
                  \  \/   | |  | |   /    \    | | | |  |  | /  /          
                 / \  \   | |__| |  /  /\  \   | |_| |  |  |/  /          
                |  |  |   |  __  | /  /__\  \  |    /   |      \           
                |  |  |   | |  | | |   __   |  |    \   |  |\   \          
                \     /   | |  | | |  |  |  |  | |\  \  |  | \   \       
                 \___/    |_|  |_| |__|  |__|  |_| \__\ |__|  \__/        
                                                                              
                      - O R C A' S   B I G   F R I E N D -                    
                                      &                                       
                       - I N T E G R A L  F E E D E R -                       
                                                                              
 v1 FN, 2020, v2 2021, v3 2022-2024                                           
------------------------------------------------------------------------------


----------------------
SHARK INTEGRAL PACKAGE
----------------------

Number of atoms                             ...     12
Number of basis functions                   ...    154
Number of shells                            ...     74
Maximum angular momentum                    ...      2
Integral batch strategy                     ... SHARK/LIBINT Hybrid
RI-J (if used) integral strategy            ... SPLIT-RIJ (Revised 2003 algorithm where possible)
Printlevel                                  ...      1
Contraction scheme used                     ... SEGMENTED contraction
Prescreening option                         ... SCHWARTZ
   Thresh                                   ... 1.000e-10
   Tcut                                     ... 1.000e-11
   Tpresel                                  ... 1.000e-11 
Coulomb Range Separation                    ... NOT USED
Exchange Range Separation                   ... NOT USED
Multipole approximations                    ... NOT USED
Finite Nucleus Model                        ... NOT USED
CABS basis                                  ... NOT available
Auxiliary Coulomb fitting basis             ... AVAILABLE
   # of basis functions in Aux-J            ...    360
   # of shells in Aux-J                     ...    120
   Maximum angular momentum in Aux-J        ...      4
Auxiliary J/K fitting basis                 ... NOT available
Auxiliary Correlation fitting basis         ... NOT available
Auxiliary 'external' fitting basis          ... NOT available

Checking pre-screening integrals            ... done (  0.0 sec) Dimension = 74
Check shell pair data                       ... done (  0.0 sec)
Shell pair information
Shell pair cut-off parameter TPreSel        ...   1.0e-11
Total number of shell pairs                 ...      2775
Shell pairs after pre-screening             ...      2644
Total number of primitive shell pairs       ...     10020
Primitive shell pairs kept                  ...      7197
          la=0 lb=0:    839 shell pairs
          la=1 lb=0:    960 shell pairs
          la=1 lb=1:    291 shell pairs
          la=2 lb=0:    328 shell pairs
          la=2 lb=1:    190 shell pairs
          la=2 lb=2:     36 shell pairs

Calculating one electron integrals          ... done (  0.0 sec)
Calculating RI/J V-Matrix + Cholesky decomp.... done (  0.0 sec)
Calculating Nuclear repulsion               ... done (  0.0 sec) ENN=    228.031995429407 Eh

Diagonalization of the overlap matrix:
Smallest eigenvalue                        ... 2.243e-04
Time for diagonalization                   ...    0.002 sec
Threshold for overlap eigenvalues          ... 1.000e-07
Number of eigenvalues below threshold      ... 0
Time for construction of square roots      ...    0.013 sec
Total time needed                          ...    0.023 sec

-------------------
DFT GRID GENERATION
-------------------

General Integration Accuracy     IntAcc      ... 4.388
Radial Grid Type                 RadialGrid  ... OptM3 with GC (2021)
Angular Grid (max. ang.)         AngularGrid ... 4 (Lebedev-302)
Angular grid pruning method      GridPruning ... 4 (adaptive)
Weight generation scheme         WeightScheme... mBecke (2022)
Basis function cutoff            BFCut       ... 1.0000e-10
Integration weight cutoff        WCut        ... 1.0000e-14
Partially contracted basis set               ... off
Rotationally invariant grid construction     ... off
Angular grids for H and He will be reduced by one unit

Total number of grid points                  ...    55617
Total number of batches                      ...      876
Average number of points per batch           ...       63
Average number of grid points per atom       ...     4635
Initializing property integral containers    ... done (  0.0 sec)

SHARK setup successfully completed in   0.7 seconds

Maximum memory used throughout the entire STARTUP-calculation: 25.1 MB
-------------------------------------------------------------------------------
                                 ORCA GUESS
                   Start orbitals & Density for SCF / CASSCF
-------------------------------------------------------------------------------

------------
SCF SETTINGS
------------
Hamiltonian:
 Density Functional     Method          .... DFT(GTOs)
  Functional kind                       .... Exchange
  Functional name                       .... Re-regularized SCAN exchange by Furness et al
  Functional family                     .... MGGA
  Functional refs                              
    [ 0] J. W. Furness, A. D. Kaplan, J. Ning, J. P. Perdew, and J. Sun.,  J. Phys. Chem. Lett. 11, 8208-8215 (2020), doi: 10.1021/acs.jpclett.0c02405
    [ 1] J. W. Furness, A. D. Kaplan, J. Ning, J. P. Perdew, and J. Sun.,  J. Phys. Chem. Lett. 11, 9248-9248 (2020), doi: 10.1021/acs.jpclett.0c03077
  Functional external parameters        .... 6
    Parameter  0 _c1        =  6.670000e-01 : c1 parameter        
    Parameter  1 _c2        =  8.000000e-01 : c2 parameter        
    Parameter  2 _d         =  1.240000e+00 : d parameter         
    Parameter  3 _k1        =  6.500000e-02 : k1 parameter        
    Parameter  4 _eta       =  1.000000e-03 : eta parameter       
    Parameter  5 _dp2       =  3.610000e-01 : dp2 parameter       
  Functional kind                       .... Correlation
  Functional name                       .... Re-regularized SCAN correlation by Furness et al
  Functional family                     .... MGGA
  Functional refs                              
    [ 0] J. W. Furness, A. D. Kaplan, J. Ning, J. P. Perdew, and J. Sun.,  J. Phys. Chem. Lett. 11, 8208-8215 (2020), doi: 10.1021/acs.jpclett.0c02405
    [ 1] J. W. Furness, A. D. Kaplan, J. Ning, J. P. Perdew, and J. Sun.,  J. Phys. Chem. Lett. 11, 9248-9248 (2020), doi: 10.1021/acs.jpclett.0c03077
  Functional external parameters        .... 1
    Parameter  0 _eta       =  1.000000e-03 : Regularization parameter
 Gradients option       PostSCFGGA      .... off
 RI-approximation to the Coulomb term is turned on
   Number of AuxJ basis functions       .... 360


General Settings:
 Integral files         IntName         .... sp_solv
 Hartree-Fock type      HFTyp           .... RHF
 Total Charge           Charge          ....    0
 Multiplicity           Mult            ....    1
 Number of Electrons    NEL             ....   44
 Basis Dimension        Dim             ....  154
 Nuclear Repulsion      ENuc            ....    228.0319954294 Eh

Convergence Acceleration:
 AO-DIIS                CNVDIIS         .... on
   Start iteration      DIISMaxIt       ....    12
   Startup error        DIISStart       ....  0.200000
   # of expansion vecs  DIISMaxEq       ....     5
   Bias factor          DIISBfac        ....   1.050
   Max. coefficient     DIISMaxC        ....  10.000
 MO-DIIS                CNVKDIIS        .... off
 Trust-Rad. Augm. Hess. CNVTRAH         .... auto
   Auto Start mean grad. ratio tolernc. ....  1.125000
   Auto Start start iteration           ....     1
   Auto Start num. interpolation iter.  ....    10
   Max. Number of Micro iterations      ....    24
   Max. Number of Macro iterations      .... Maxiter - #DIIS iter
   Number of Davidson start vectors     ....     2
   Converg. threshold    (grad. norm)   ....   3.330e-04
   Grad. Scal. Fac. for Micro threshold ....   0.100
   Minimum threshold for Micro iter.    ....   1.000e-02
   NR start threshold (gradient norm)   ....   1.000e-04
   Initial trust radius                 ....   0.400
   Minimum AH scaling param. (alpha)    ....   1.000
   Maximum AH scaling param. (alpha)    .... 1000.000
   Quad. conv. algorithm                .... NR
   White noise on init. David. guess    .... on
   Maximum white noise                  ....   0.010
   Pseudo random numbers                .... off
   Inactive MOs                         .... canonical
   Orbital update algorithm             .... Taylor
   Preconditioner                       .... Diag
   Full preconditioner red. dimension   ....   250
   COSX micro iterations for RIJONX calc.... off
 SOSCF                  CNVSOSCF        .... on
   Start iteration      SOSCFMaxIt      ....   150
   Startup grad/error   SOSCFStart      ....  0.003300
   Hessian update       SOSCFHessUp     .... L-BFGS
 Level Shifting         CNVShift        .... on
   Level shift para.    LevelShift      ....    0.2500
   Turn off err/grad.   ShiftErr        ....    0.0010
 Zerner damping         CNVZerner       .... off
 Static damping         CNVDamp         .... on
   Fraction old density DampFac         ....    0.7000
   Max. Damping (<1)    DampMax         ....    0.9800
   Min. Damping (>=0)   DampMin         ....    0.0000
   Turn off err/grad.   DampErr         ....    0.1000

SCF Procedure:
 Maximum # iterations   MaxIter         ....   125
 SCF integral mode      SCFMode         .... Direct
   Integral package                     .... SHARK and LIBINT hybrid scheme
 Reset frequency        DirectResetFreq ....    20
 Integral Threshold     Thresh          ....  1.000e-10 Eh
 Primitive CutOff       TCut            ....  1.000e-11 Eh

Convergence Tolerance:
 Convergence Check Mode ConvCheckMode   .... Total+1el-Energy
 Convergence forced     ConvForced      .... 0
 Energy Change          TolE            ....  1.000e-06 Eh
 1-El. energy change                    ....  1.000e-03 Eh
 Orbital Gradient       TolG            ....  3.330e-04
 Orbital Rotation angle TolX            ....  3.330e-04
 DIIS Error             TolErr          ....  1.000e-06

---------------------
INITIAL GUESS: MOREAD
---------------------
Guess MOs are being read from file: sp_solv.ges
Input Geometry matches current geometry (good)
Atom 0: N(Shells)= 9 and 6 - projection required
Input basis set needs projection
NBasis(read)= 96
NBasis(calc)= 154
Basis set overlap was calculated
Using GuessMode=FMatrix for the initial guess
C*T matrix was formed
Effective Fockian was calculated
Effective Fockian was diagonalized
Initial density was built
                      ------------------
                      INITIAL GUESS DONE (   0.0 sec)
                      ------------------
             **** ENERGY FILE WAS UPDATED (sp_solv.en.tmp) ****
Finished Guess after   0.3 sec
Maximum memory used throughout the entire GUESS-calculation: 10.6 MB

-------------------------------------------------------------------------------------------
                                      ORCA LEAN-SCF
                              memory conserving SCF solver
-------------------------------------------------------------------------------------------

--------------------
CPCM SOLVATION MODEL
--------------------
CPCM parameters:
  Epsilon                                         ...      78.3550
  Refrac                                          ...       1.3328
  Rsolv                                           ...       1.3000
  Surface type                                    ... GAUSSIAN VDW
  Discretization scheme                           ... Constant charge density
    Threshold for H atoms                         ...       5.0000 (charges/Ang^2)
    Threshold for non-H atoms                     ...       5.0000 (charges/Ang^2)
  Epsilon function type                           ...         CPCM
Solvent:                                          ... WATER
SMD-CDS solvent descriptors:
  Soln                                            ...       1.3328
  Soln25                                          ...       1.3323
  Sola                                            ...       0.0000
  Solb                                            ...       0.0000
  Solg                                            ...       0.0000
  Solc                                            ...       0.0000
  Solh                                            ...       0.0000
Radii:
  Scheme                                          ... Element-dependent radii
  Radius for C  used is    3.4960 Bohr (=   1.8500 Ang.)
  Radius for N  used is    3.5716 Bohr (=   1.8900 Ang.)
  Radius for H  used is    2.2677 Bohr (=   1.2000 Ang.)
Calculating surface                               ...        done! (  0.0s)
Cavity surface points                             ...          987
Cavity Volume                                     ...     635.5717
Cavity Surface-area                               ...     411.2344
Calculating surface distance matrix               ...        done! (  0.0s)
Performing Cholesky decomposition & store         ...        done! (  0.0s)
Overall time for CPCM initialization              ...                 0.1s

----------------------------------------D-I-I-S--------------------------------------------
Iteration    Energy (Eh)           Delta-E    RMSDP     MaxDP     DIISErr   Damp  Time(sec)
-------------------------------------------------------------------------------------------
               ***  Starting incremental Fock matrix formation  ***
    1    -265.3422065400260408     0.00e+00  5.22e-03  1.86e-01  4.39e-01  0.700   1.7
    2    -265.3811332861138226    -3.89e-02  4.31e-03  1.61e-01  3.09e-01  0.700   1.6
    3    -265.4087649246176852    -2.76e-02  3.22e-03  1.22e-01  2.17e-01  0.700   1.6
                               ***Turning on AO-DIIS***
    4    -265.4282097861371312    -1.94e-02  2.43e-03  9.23e-02  1.52e-01  0.700   1.6
    5    -265.4418620477126751    -1.37e-02  1.76e-03  6.70e-02  1.06e-01  0.700   1.5
    6    -265.4514645378216073    -9.60e-03  1.26e-03  4.78e-02  7.39e-02  0.700   1.5
    7    -265.4582060236261896    -6.74e-03  2.99e-03  1.13e-01  5.19e-02  0.000   1.5
                              *** Initializing SOSCF ***
---------------------------------------S-O-S-C-F--------------------------------------
Iteration    Energy (Eh)           Delta-E    RMSDP     MaxDP     MaxGrad    Time(sec)
--------------------------------------------------------------------------------------
    8    -265.4739841301732213    -1.58e-02  6.43e-05  1.46e-03  1.11e-03     1.6
               *** Restarting incremental Fock matrix formation ***
    9    -265.4739838992757086     2.31e-07  5.48e-05  1.48e-03  4.25e-04     1.7
   10    -265.4739705397176976     1.34e-05  4.41e-05  1.01e-03  1.09e-03     1.4
   11    -265.4739873239514054    -1.68e-05  7.79e-06  1.76e-04  5.95e-05     1.4
                  *** Gradient check signals convergence ***

               *****************************************************
               *                     SUCCESS                       *
               *           SCF CONVERGED AFTER  11 CYCLES          *
               *****************************************************


SMD CDS free energy correction energy :                 2.18101     Kcal/mol
Total Energy after SMD CDS correction =              -265.470511664 Eh
             **** ENERGY FILE WAS UPDATED (sp_solv.en.tmp) ****

----------------
TOTAL SCF ENERGY
----------------

Total Energy       :       -265.47051166419823 Eh           -7223.81987 eV

Components:
Nuclear Repulsion  :        228.03199542940709 Eh            6205.06606 eV
Electronic Energy  :       -493.48591657471013 Eh          -13428.43448 eV
One Electron Energy:       -809.37702335126107 Eh          -22024.26850 eV
Two Electron Energy:        315.89110677655094 Eh            8595.83402 eV
CPCM Dielectric    :         -0.02006617864839 Eh              -0.54603 eV
SMD CDS (Gcds)     :          0.00347565975319 Eh               0.09458 eV

Virial components:
Potential Energy   :       -529.96561396810375 Eh          -14421.09751 eV
Kinetic Energy     :        264.49510230390547 Eh            7197.27764 eV
Virial Ratio       :          2.00368781634063

DFT components:
N(Alpha)           :       21.999984766423 electrons
N(Beta)            :       21.999984766423 electrons
N(Total)           :       43.999969532846 electrons
E(X)               :      -36.288112020722 Eh       
E(C)               :       -1.426828168991 Eh       
E(XC)              :      -37.714940189713 Eh       

CPCM Solvation Model Properties:
Surface-charge          :         -0.03296753970048
Corrected charge        :         -0.00000000000000
Outlying charge corr.   :          0.00009585195341 Eh               0.00261 eV
Free-energy (cav+disp)  :          0.00347565975319 Eh               0.09458 eV

---------------
SCF CONVERGENCE
---------------

  Last Energy change         ...    1.6784e-05  Tolerance :   1.0000e-06
  Last MAX-Density change    ...    1.7569e-04  Tolerance :   1.0000e-05
  Last RMS-Density change    ...    7.7902e-06  Tolerance :   1.0000e-06
  Last DIIS Error            ...    1.1106e-03  Tolerance :   1.0000e-06
  Last Orbital Gradient      ...    5.9454e-05  Tolerance :   3.3300e-04
  Last Orbital Rotation      ...    1.4042e-04  Tolerance :   3.3300e-04


----------------
ORBITAL ENERGIES
----------------

  NO   OCC          E(Eh)            E(eV) 
   0   2.0000     -14.219613      -386.9353 
   1   2.0000     -14.140996      -384.7961 
   2   2.0000     -10.072424      -274.0846 
   3   2.0000     -10.061892      -273.7980 
   4   2.0000     -10.050650      -273.4921 
   5   2.0000     -10.037708      -273.1399 
   6   2.0000      -0.991327       -26.9754 
   7   2.0000      -0.856970       -23.3193 
   8   2.0000      -0.716280       -19.4910 
   9   2.0000      -0.677890       -18.4463 
  10   2.0000      -0.565581       -15.3902 
  11   2.0000      -0.541822       -14.7437 
  12   2.0000      -0.497567       -13.5395 
  13   2.0000      -0.438820       -11.9409 
  14   2.0000      -0.411391       -11.1945 
  15   2.0000      -0.395362       -10.7584 
  16   2.0000      -0.373017       -10.1503 
  17   2.0000      -0.363992        -9.9047 
  18   2.0000      -0.361757        -9.8439 
  19   2.0000      -0.251613        -6.8467 
  20   2.0000      -0.248801        -6.7702 
  21   2.0000      -0.209564        -5.7025 
  22   0.0000      -0.001734        -0.0472 
  23   0.0000       0.031606         0.8601 
  24   0.0000       0.086643         2.3577 
  25   0.0000       0.115293         3.1373 
  26   0.0000       0.123026         3.3477 
  27   0.0000       0.137057         3.7295 
  28   0.0000       0.144832         3.9411 
  29   0.0000       0.153783         4.1847 
  30   0.0000       0.161545         4.3959 
  31   0.0000       0.176162         4.7936 
  32   0.0000       0.188424         5.1273 
*Only the first 10 virtual orbitals were printed.

                    ********************************
                    * MULLIKEN POPULATION ANALYSIS *
                    ********************************

-----------------------
MULLIKEN ATOMIC CHARGES
-----------------------
   0 C :   -0.418550
   1 N :    0.204192
   2 C :   -0.222986
   3 C :   -0.186485
   4 N :   -0.280643
   5 C :   -0.155259
   6 H :    0.183594
   7 H :    0.186768
   8 H :    0.183349
   9 H :    0.174933
  10 H :    0.161373
  11 H :    0.169715
Sum of atomic charges:    0.0000000

--------------------------------
MULLIKEN REDUCED ORBITAL CHARGES
--------------------------------
  0 C s       :     3.340470  s :     3.340470
      pz      :     1.115324  p :     3.041491
      px      :     0.797129
      py      :     1.129038
      dz2     :     0.006425  d :     0.036589
      dxz     :     0.009104
      dyz     :     0.004321
      dx2y2   :     0.011639
      dxy     :     0.005099

  1 N s       :     3.183395  s :     3.183395
      pz      :     1.476257  p :     3.428552
      px      :     0.956867
      py      :     0.995428
      dz2     :     0.004269  d :     0.183861
      dxz     :     0.031325
      dyz     :     0.022536
      dx2y2   :     0.076750
      dxy     :     0.048981

  2 C s       :     3.318610  s :     3.318610
      pz      :     1.072405  p :     2.855862
      px      :     0.879675
      py      :     0.903781
      dz2     :     0.004264  d :     0.048513
      dxz     :     0.008950
      dyz     :     0.005628
      dx2y2   :     0.011198
      dxy     :     0.018475

  3 C s       :     3.262375  s :     3.262375
      pz      :     1.064776  p :     2.872009
      px      :     0.942523
      py      :     0.864710
      dz2     :     0.004032  d :     0.052100
      dxz     :     0.005036
      dyz     :     0.008622
      dx2y2   :     0.016612
      dxy     :     0.017798

  4 N s       :     3.473446  s :     3.473446
      pz      :     1.262700  p :     3.754669
      px      :     1.330751
      py      :     1.161218
      dz2     :     0.005358  d :     0.052528
      dxz     :     0.014651
      dyz     :     0.009504
      dx2y2   :     0.015487
      dxy     :     0.007527

  5 C s       :     3.300888  s :     3.300888
      pz      :     0.985889  p :     2.786100
      px      :     0.848940
      py      :     0.951272
      dz2     :     0.004767  d :     0.068271
      dxz     :     0.013309
      dyz     :     0.005582
      dx2y2   :     0.017949
      dxy     :     0.026665

  6 H s       :     0.798309  s :     0.798309
      pz      :     0.009091  p :     0.018097
      px      :     0.003705
      py      :     0.005302

  7 H s       :     0.794953  s :     0.794953
      pz      :     0.003738  p :     0.018279
      px      :     0.003803
      py      :     0.010738

  8 H s       :     0.798533  s :     0.798533
      pz      :     0.008775  p :     0.018118
      px      :     0.003715
      py      :     0.005628

  9 H s       :     0.803700  s :     0.803700
      pz      :     0.004933  p :     0.021368
      px      :     0.004051
      py      :     0.012383

 10 H s       :     0.818054  s :     0.818054
      pz      :     0.004690  p :     0.020574
      px      :     0.010296
      py      :     0.005588

 11 H s       :     0.809448  s :     0.809448
      pz      :     0.004625  p :     0.020837
      px      :     0.003341
      py      :     0.012871


------------------------
MULLIKEN OVERLAP CHARGES
------------------------
B(  0-C ,  1-N ) :   0.5179 B(  0-C ,  2-C ) :  -0.0992 B(  0-C ,  5-C ) :  -0.0991 
B(  0-C ,  6-H ) :   0.7961 B(  0-C ,  7-H ) :   0.8061 B(  0-C ,  8-H ) :   0.7981 
B(  1-N ,  2-C ) :   0.8752 B(  1-N ,  3-C ) :  -0.2234 B(  1-N ,  4-N ) :  -0.2803 
B(  1-N ,  5-C ) :   0.8717 B(  1-N ,  6-H ) :  -0.0645 B(  1-N ,  8-H ) :  -0.0643 
B(  1-N ,  9-H ) :  -0.0720 B(  1-N , 11-H ) :  -0.0792 B(  2-C ,  3-C ) :   0.9351 
B(  2-C ,  4-N ) :  -0.2349 B(  2-C ,  5-C ) :  -0.2397 B(  2-C ,  9-H ) :   0.8382 
B(  2-C , 10-H ) :  -0.0824 B(  3-C ,  4-N ) :   0.8732 B(  3-C ,  5-C ) :  -0.3063 
B(  3-C ,  9-H ) :  -0.0603 B(  3-C , 10-H ) :   0.8567 B(  4-N ,  5-C ) :   1.1448 
B(  4-N , 10-H ) :  -0.0750 B(  4-N , 11-H ) :  -0.0654 B(  5-C , 11-H ) :   0.8299 
B(  6-H ,  8-H ) :  -0.0510 


                     *******************************
                     * LOEWDIN POPULATION ANALYSIS *
                     *******************************

----------------------
LOEWDIN ATOMIC CHARGES
----------------------
   0 C :   -0.083574
   1 N :   -0.764580
   2 C :    0.067903
   3 C :    0.019049
   4 N :   -0.639860
   5 C :    0.215085
   6 H :    0.190346
   7 H :    0.198906
   8 H :    0.190929
   9 H :    0.203465
  10 H :    0.188948
  11 H :    0.213384

-------------------------------
LOEWDIN REDUCED ORBITAL CHARGES
-------------------------------
  0 C s       :     2.873619  s :     2.873619
      pz      :     1.112310  p :     3.122418
      px      :     0.894162
      py      :     1.115945
      dz2     :     0.015178  d :     0.087537
      dxz     :     0.021081
      dyz     :     0.010819
      dx2y2   :     0.026293
      dxy     :     0.014166

  1 N s       :     3.075951  s :     3.075951
      pz      :     1.424785  p :     3.878936
      px      :     1.206124
      py      :     1.248027
      dz2     :     0.071780  d :     0.809693
      dxz     :     0.132267
      dyz     :     0.136725
      dx2y2   :     0.231870
      dxy     :     0.237052

  2 C s       :     2.825713  s :     2.825713
      pz      :     0.994711  p :     2.998636
      px      :     1.001870
      py      :     1.002054
      dz2     :     0.008055  d :     0.107749
      dxz     :     0.018165
      dyz     :     0.008387
      dx2y2   :     0.029513
      dxy     :     0.043630

  3 C s       :     2.835803  s :     2.835803
      pz      :     0.989363  p :     3.031674
      px      :     1.039110
      py      :     1.003201
      dz2     :     0.007645  d :     0.113474
      dxz     :     0.008124
      dyz     :     0.016382
      dx2y2   :     0.038994
      dxy     :     0.042328

  4 N s       :     3.248257  s :     3.248257
      pz      :     1.222402  p :     3.926584
      px      :     1.393720
      py      :     1.310462
      dz2     :     0.048601  d :     0.465019
      dxz     :     0.059966
      dyz     :     0.092027
      dx2y2   :     0.127565
      dxy     :     0.136861

  5 C s       :     2.768936  s :     2.768936
      pz      :     0.898835  p :     2.862770
      px      :     0.974039
      py      :     0.989896
      dz2     :     0.010885  d :     0.153209
      dxz     :     0.026886
      dyz     :     0.008169
      dx2y2   :     0.044752
      dxy     :     0.062518

  6 H s       :     0.768556  s :     0.768556
      pz      :     0.022026  p :     0.041098
      px      :     0.006956
      py      :     0.012116

  7 H s       :     0.759663  s :     0.759663
      pz      :     0.008092  p :     0.041431
      px      :     0.007236
      py      :     0.026102

  8 H s       :     0.767953  s :     0.767953
      pz      :     0.021208  p :     0.041118
      px      :     0.006965
      py      :     0.012945

  9 H s       :     0.750057  s :     0.750057
      pz      :     0.010965  p :     0.046478
      px      :     0.009711
      py      :     0.025803

 10 H s       :     0.766468  s :     0.766468
      pz      :     0.010449  p :     0.044584
      px      :     0.023076
      py      :     0.011058

 11 H s       :     0.743699  s :     0.743699
      pz      :     0.010004  p :     0.042917
      px      :     0.006916
      py      :     0.025997


---------------------------------
LOEWDIN BOND ORDERS (THRESH 0.050000)
---------------------------------
B(  0-C ,  1-N ) :   1.3437 B(  0-C ,  2-C ) :   0.0744 B(  0-C ,  5-C ) :   0.0782 
B(  0-C ,  6-H ) :   0.8476 B(  0-C ,  7-H ) :   0.8458 B(  0-C ,  8-H ) :   0.8476 
B(  1-N ,  2-C ) :   1.5324 B(  1-N ,  3-C ) :   0.2869 B(  1-N ,  4-N ) :   0.4786 
B(  1-N ,  5-C ) :   1.4779 B(  1-N ,  6-H ) :   0.1000 B(  1-N ,  7-H ) :   0.1006 
B(  1-N ,  8-H ) :   0.1000 B(  1-N ,  9-H ) :   0.0945 B(  1-N , 11-H ) :   0.0901 
B(  2-C ,  3-C ) :   1.3993 B(  2-C ,  4-N ) :   0.2581 B(  2-C ,  5-C ) :   0.1613 
B(  2-C ,  9-H ) :   0.8143 B(  2-C , 10-H ) :   0.0550 B(  3-C ,  4-N ) :   1.6663 
B(  3-C ,  5-C ) :   0.1451 B(  3-C ,  9-H ) :   0.0534 B(  3-C , 10-H ) :   0.8244 
B(  4-N ,  5-C ) :   1.8036 B(  4-N , 10-H ) :   0.0972 B(  4-N , 11-H ) :   0.0921 
B(  5-C , 11-H ) :   0.7663 

------------------------------------------
LOEWDIN REDUCED ORBITAL POPULATIONS PER MO
-------------------------------------------
THRESHOLD FOR PRINTING IS 0.1%%
                      0         1         2         3         4         5   
                 -14.21961 -14.14100 -10.07242 -10.06189 -10.05065 -10.03771
                   2.00000   2.00000   2.00000   2.00000   2.00000   2.00000
                  --------  --------  --------  --------  --------  --------
 0 C  s               0.0       0.0       0.0      99.4       0.0       0.0
 1 N  s              99.7       0.0       0.0       0.0       0.0       0.0
 1 N  px              0.0       0.0       0.1       0.1       0.0       0.0
 1 N  dx2y2           0.0       0.0       0.0       0.2       0.0       0.0
 1 N  dxy             0.0       0.0       0.2       0.0       0.2       0.0
 2 C  s               0.0       0.0       0.0       0.0      99.2       0.1
 2 C  px              0.0       0.0       0.0       0.0       0.0       0.1
 3 C  s               0.0       0.0       0.0       0.0       0.1      99.2
 3 C  px              0.0       0.0       0.0       0.0       0.1       0.0
 4 N  s               0.0      99.8       0.0       0.0       0.0       0.0
 4 N  px              0.0       0.0       0.1       0.0       0.0       0.0
 4 N  py              0.0       0.0       0.0       0.0       0.0       0.1
 4 N  dx2y2           0.0       0.0       0.2       0.0       0.0       0.2
 5 C  s               0.0       0.0      99.0       0.0       0.0       0.0

                      6         7         8         9        10        11   
                  -0.99133  -0.85697  -0.71628  -0.67789  -0.56558  -0.54182
                   2.00000   2.00000   2.00000   2.00000   2.00000   2.00000
                  --------  --------  --------  --------  --------  --------
 0 C  s               2.9       7.0       5.9      22.6       0.0       2.1
 0 C  px              3.3       2.7       0.1       0.5       0.1       3.9
 0 C  py              0.0       0.0       0.8       0.2       3.1       0.2
 0 C  dx2y2           0.1       0.2       0.0       0.0       0.0       0.1
 1 N  s              28.7      16.7       0.1       1.2       0.1       4.3
 1 N  px              1.8       4.3       5.9      16.7       0.0       0.4
 1 N  py              0.0       0.4      14.5       3.4      22.7       1.1
 1 N  dz2             1.1       0.1       0.0       0.5       0.0       1.1
 1 N  dx2y2           0.3       0.1       0.4       3.2       0.0       0.5
 1 N  dxy             0.0       0.3       3.1       0.4       0.3       0.1
 2 C  s               8.5       0.4      19.4       0.5       2.2       7.5
 2 C  px              0.2       5.8       0.9       0.5      13.5       3.8
 2 C  py              5.8       0.2       0.8       1.0       0.3       7.4
 2 C  dz2             0.2       0.0       0.2       0.0       0.0       0.0
 2 C  dx2y2           0.0       0.0       0.0       0.2       0.1       0.0
 2 C  dxy             0.1       0.4       0.0       0.1       0.1       0.2
 3 C  s               5.6       6.6       7.7       6.6      11.3       0.5
 3 C  px              2.3       0.2       2.9       0.9       2.7       4.0
 3 C  py              1.8       5.3       3.6       0.3       1.6      11.6
 3 C  dz2             0.1       0.1       0.1       0.0       0.0       0.0
 3 C  dx2y2           0.0       0.4       0.3       0.1       0.0       0.3
 4 N  s              10.5      25.8       3.8       3.1       2.9       1.8
 4 N  px              3.1       1.3       1.5       3.3       2.4       4.4
 4 N  py              0.7       1.2       5.0       3.1       8.4       6.6
 4 N  dz2             0.9       0.1       0.1       0.1       0.4       0.2
 4 N  dx2y2           0.2       0.3       1.3       1.9       0.3       0.1
 4 N  dxy             0.1       0.1       1.0       0.0       0.1       0.4
 5 C  s              12.9       1.5       7.7       5.5       0.2       8.3
 5 C  px              0.0      14.2       0.2       1.9      15.0       0.1
 5 C  py              6.0       0.1       1.4       0.9       0.5       8.7
 5 C  dz2             0.3       0.0       0.1       0.1       0.0       0.0
 5 C  dx2y2           0.0       0.3       0.3       0.1       0.1       0.0
 5 C  dxy             0.1       0.7       0.0       0.2       0.2       0.0
 6 H  s               0.2       0.7       1.3       4.9       0.0       1.5
 6 H  pz              0.0       0.0       0.1       0.3       0.0       0.1
 7 H  s               0.2       0.8       0.7       6.1       0.7       0.9
 7 H  py              0.0       0.1       0.1       0.4       0.0       0.1
 8 H  s               0.2       0.7       1.3       4.9       0.1       1.5
 8 H  pz              0.0       0.0       0.1       0.3       0.0       0.1
 8 H  py              0.0       0.0       0.0       0.1       0.0       0.0
 9 H  s               0.5       0.1       3.2       0.3       2.2       5.9
 9 H  px              0.0       0.0       0.0       0.0       0.0       0.2
 9 H  py              0.0       0.0       0.2       0.0       0.2       0.2
10 H  s               0.3       0.5       1.2       1.7       6.9       0.2
10 H  px              0.0       0.0       0.1       0.1       0.4       0.0
10 H  py              0.0       0.0       0.0       0.1       0.1       0.0
11 H  s               0.7       0.1       2.1       1.1       0.3       9.1
11 H  py              0.0       0.0       0.2       0.1       0.1       0.4

                     12        13        14        15        16        17   
                  -0.49757  -0.43882  -0.41139  -0.39536  -0.37302  -0.36399
                   2.00000   2.00000   2.00000   2.00000   2.00000   2.00000
                  --------  --------  --------  --------  --------  --------
 0 C  s               3.2       0.0       0.1       0.4       0.0       0.0
 0 C  pz              0.0      25.4       0.0       0.0       0.0      25.8
 0 C  px             18.3       0.0       3.9      10.6       0.3       0.0
 0 C  py              0.3       0.0      12.2       0.2       4.8       0.0
 0 C  dz2             0.2       0.0       0.0       0.1       0.0       0.0
 0 C  dxz             0.0       0.0       0.0       0.0       0.0       0.3
 0 C  dyz             0.0       0.1       0.0       0.0       0.0       0.3
 0 C  dx2y2           0.4       0.0       0.2       0.2       0.0       0.0
 1 N  s               1.5       0.0       0.0       0.2       0.3       0.0
 1 N  pz              0.0      33.0       0.0       0.0       0.0       1.8
 1 N  px             13.6       0.0       4.2      10.2       0.8       0.0
 1 N  py              0.4       0.0       9.3       0.8       2.9       0.0
 1 N  dxz             0.0       0.1       0.0       0.0       0.0       6.4
 1 N  dx2y2           3.6       0.0       0.1       2.9       0.2       0.0
 1 N  dxy             0.1       0.0       2.0       0.1       2.0       0.0
 2 C  s               0.6       0.0       1.0       0.6       0.6       0.0
 2 C  pz              0.0       8.3       0.0       0.0       0.0       5.7
 2 C  px              2.3       0.0       1.1      14.2       0.3       0.0
 2 C  py              6.2       0.0      14.6       6.8       3.8       0.0
 2 C  dyz             0.0       0.2       0.0       0.0       0.0       0.1
 2 C  dx2y2           0.0       0.0       0.0       0.9       0.0       0.0
 2 C  dxy             0.0       0.0       0.6       0.0       0.1       0.0
 3 C  s               1.4       0.0       1.1       0.7       0.3       0.0
 3 C  pz              0.0       3.7       0.0       0.0       0.0      11.1
 3 C  px              7.9       0.0       6.0       8.5       9.4       0.0
 3 C  py              0.4       0.0       0.8       6.9      11.4       0.0
 3 C  dyz             0.0       0.0       0.0       0.0       0.0       0.1
 3 C  dx2y2           0.1       0.0       0.2       0.3       0.0       0.0
 3 C  dxy             0.0       0.0       0.2       0.0       0.4       0.0
 4 N  s               2.3       0.0       1.0       0.7       0.0       0.0
 4 N  pz              0.0       5.3       0.0       0.0       0.0      18.1
 4 N  px              3.2       0.0       0.5       7.7       4.8       0.0
 4 N  py              0.7       0.0       0.2       4.1       6.8       0.0
 4 N  dz2             0.0       0.0       0.4       0.0       0.0       0.0
 4 N  dxz             0.0       0.8       0.0       0.0       0.0       0.5
 4 N  dyz             0.0       0.2       0.0       0.0       0.0       0.3
 4 N  dx2y2           0.2       0.0       0.1       0.8       0.5       0.0
 4 N  dxy             1.9       0.0       1.0       0.2       0.0       0.0
 5 C  s               0.7       0.0       1.0       0.1       0.6       0.0
 5 C  pz              0.0      10.4       0.0       0.0       0.0       9.5
 5 C  px              0.1       0.0       0.2       6.3       3.8       0.0
 5 C  py              7.8       0.0       7.3       0.4      16.2       0.0
 5 C  dxz             0.0       0.0       0.0       0.0       0.0       0.1
 5 C  dyz             0.0       0.2       0.0       0.0       0.0       0.1
 5 C  dx2y2           0.1       0.0       0.5       0.2       0.4       0.0
 5 C  dxy             0.0       0.0       0.0       0.0       0.4       0.0
 6 H  s               3.9       5.8       0.2       1.0       0.3      10.0
 6 H  pz              0.2       0.1       0.0       0.0       0.0       0.0
 6 H  py              0.0       0.1       0.0       0.0       0.0       0.1
 7 H  s               2.5       0.0       7.4       0.7       2.7       0.0
 7 H  pz              0.0       0.1       0.0       0.0       0.0       0.2
 7 H  py              0.2       0.0       0.2       0.0       0.0       0.0
 8 H  s               3.9       5.5       0.3       1.0       0.4       8.9
 8 H  pz              0.2       0.0       0.0       0.0       0.0       0.0
 8 H  py              0.1       0.1       0.0       0.0       0.0       0.2
 9 H  s               3.5       0.0       8.4      10.9       1.1       0.0
 9 H  px              0.0       0.0       0.2       0.0       0.0       0.0
 9 H  py              0.2       0.0       0.1       0.3       0.0       0.0
10 H  s               3.9       0.0       6.1       0.1      11.1       0.0
10 H  px              0.1       0.0       0.1       0.0       0.2       0.0
10 H  py              0.1       0.0       0.1       0.1       0.0       0.0
11 H  s               3.5       0.0       6.8       0.3      12.3       0.0
11 H  py              0.1       0.0       0.1       0.0       0.2       0.0

                     18        19        20        21        22        23   
                  -0.36176  -0.25161  -0.24880  -0.20956  -0.00173   0.03161
                   2.00000   2.00000   2.00000   2.00000   0.00000   0.00000
                  --------  --------  --------  --------  --------  --------
 0 C  pz              0.0       4.0       0.0       0.4       1.2       0.4
 0 C  px              0.6       0.0       0.5       0.0       0.0       0.0
 0 C  py             33.3       0.0       0.6       0.0       0.0       0.0
 0 C  dz2             0.3       0.0       0.0       0.0       0.0       0.0
 0 C  dxz             0.0       0.7       0.0       0.1       0.8       0.0
 0 C  dyz             0.0       0.1       0.0       0.0       0.1       0.0
 0 C  dxy             0.4       0.0       0.1       0.0       0.0       0.0
 1 N  s               0.3       0.0       0.7       0.0       0.0       0.0
 1 N  pz              0.0      32.2       0.0       4.2      22.3       0.6
 1 N  px              1.3       0.0       0.9       0.0       0.0       0.0
 1 N  py              5.0       0.0       1.7       0.0       0.0       0.0
 1 N  dz2             0.2       0.0       0.2       0.0       0.0       0.0
 1 N  dxz             0.0       0.1       0.0       0.0       2.2       0.0
 1 N  dyz             0.0       1.0       0.0       5.8       0.6       8.6
 1 N  dxy             2.4       0.0       0.5       0.0       0.0       0.0
 2 C  s               0.0       0.0       0.5       0.0       0.0       0.0
 2 C  pz              0.0       8.1       0.0      27.6      18.4      17.2
 2 C  px              3.2       0.0       4.1       0.0       0.0       0.0
 2 C  py              2.7       0.0       0.3       0.0       0.0       0.0
 2 C  dxz             0.0       0.4       0.0       0.5       0.1       0.7
 2 C  dyz             0.0       0.1       0.0       0.0       0.6       0.2
 2 C  dxy             0.5       0.0       0.1       0.0       0.0       0.0
 3 C  s               0.2       0.0       0.6       0.0       0.0       0.0
 3 C  pz              0.0       7.1       0.0      27.6       1.5      35.0
 3 C  px              5.3       0.0       1.7       0.0       0.0       0.0
 3 C  py              2.6       0.0       3.8       0.0       0.0       0.0
 3 C  dxz             0.0       0.1       0.0       0.2       0.3       0.5
 3 C  dyz             0.0       0.5       0.0       0.2       0.5       0.5
 3 C  dx2y2           0.1       0.0       0.1       0.0       0.0       0.0
 3 C  dxy             0.2       0.0       1.2       0.0       0.0       0.0
 4 N  s               0.2       0.0      10.5       0.0       0.0       0.0
 4 N  pz              0.0      35.8       0.0       1.9      11.0      23.1
 4 N  px              0.2       0.0      37.1       0.0       0.0       0.0
 4 N  py              5.5       0.0      23.0       0.0       0.0       0.0
 4 N  dz2             0.0       0.0       0.1       0.0       0.0       0.0
 4 N  dxz             0.0       0.2       0.0       1.4       4.6       0.3
 4 N  dyz             0.0       0.0       0.0       4.1       2.1       4.0
 4 N  dxy             0.2       0.0       1.5       0.0       0.0       0.0
 5 C  s               0.1       0.0       0.9       0.0       0.0       0.0
 5 C  pz              0.0       0.9       0.0      24.1      27.8       5.1
 5 C  px              2.8       0.0       3.9       0.0       0.0       0.0
 5 C  py              0.1       0.0       0.0       0.0       0.0       0.0
 5 C  dxz             0.0       1.2       0.0       0.0       0.0       1.0
 5 C  dyz             0.0       0.1       0.0       0.0       0.8       0.0
 5 C  dx2y2           0.0       0.0       0.1       0.0       0.0       0.0
 5 C  dxy             0.0       0.0       1.4       0.0       0.0       0.0
 6 H  s               4.6       3.6       0.1       0.4       1.4       0.0
 6 H  pz              0.2       0.0       0.0       0.0       0.0       0.0
 7 H  s              14.6       0.0       0.7       0.0       0.0       0.0
 7 H  px              0.1       0.0       0.0       0.0       0.0       0.0
 7 H  py              0.2       0.0       0.0       0.0       0.0       0.0
 8 H  s               5.8       3.4       0.0       0.3       1.4       0.0
 8 H  pz              0.2       0.0       0.0       0.0       0.0       0.0
 9 H  s               0.9       0.0       0.7       0.0       0.0       0.0
 9 H  pz              0.0       0.1       0.0       0.4       0.7       0.9
10 H  s               5.0       0.0       1.3       0.0       0.0       0.0
10 H  pz              0.0       0.1       0.0       0.4       0.1       1.6
11 H  s               0.1       0.0       0.8       0.0       0.0       0.0
11 H  pz              0.0       0.0       0.0       0.4       1.2       0.3

                     24        25        26        27        28        29   
                   0.08664   0.11529   0.12303   0.13706   0.14483   0.15378
                   0.00000   0.00000   0.00000   0.00000   0.00000   0.00000
                  --------  --------  --------  --------  --------  --------
 0 C  s              11.7       6.4      18.0       0.6       0.4       0.2
 0 C  px             11.4      15.7       6.5       3.5      14.1       0.4
 0 C  py              0.3       1.2       1.1       4.1      15.9       0.3
 0 C  dz2             0.5       0.0       0.2       0.0       0.8       0.0
 0 C  dx2y2           1.2       1.6       0.1       0.8       0.8       0.0
 0 C  dxy             0.0       0.2       0.1       0.3       0.4       0.0
 1 N  s               8.0       1.1       0.8       6.2       3.3       0.1
 1 N  px              0.5       4.7       0.3       0.2       1.9       0.3
 1 N  py              0.1       0.4       0.1       1.1       2.7       0.7
 1 N  dz2             6.0       7.8       1.0       3.7       0.1       0.1
 1 N  dx2y2           0.2       3.8       2.3       2.9       0.0       0.4
 1 N  dxy             0.0       1.3       0.1       1.3       1.2       0.0
 2 C  s              10.3       0.9       2.7       3.5       2.4       1.9
 2 C  px              4.1       1.2       4.3       7.7       3.0       0.7
 2 C  py              1.2       6.9       4.0       8.1       6.4       7.1
 2 C  dz2             0.4       0.2       0.4       0.4       0.0       0.0
 2 C  dx2y2           0.0       0.9       0.1       0.7       0.1       0.0
 2 C  dxy             0.6       0.7       0.0       0.9       0.7       0.0
 3 C  s               8.6       0.6       4.9       3.2       2.9       6.7
 3 C  px              0.2       5.9       3.0       1.0       0.8      15.2
 3 C  py              1.8       0.8       2.9       5.5       3.6      13.5
 3 C  dz2             0.4       0.4       0.2       0.0       0.4       0.4
 3 C  dx2y2           0.3       0.6       0.3       0.5       0.7       0.0
 3 C  dxy             0.1       0.5       0.1       0.0       0.1       0.1
 4 N  s               1.8       0.1       6.3       0.2       3.5       2.5
 4 N  px              0.3       0.6       0.5       0.2       0.8       0.2
 4 N  py              0.2       0.4       0.7       2.9       0.6       0.7
 4 N  dz2             3.4       1.7       1.0       0.6       0.1       0.0
 4 N  dx2y2           0.0       0.0       1.0       0.1       2.3       5.6
 4 N  dxy             0.5       0.8       0.5       0.5       0.1       0.0
 5 C  s              11.3       1.9       3.2       6.6       0.1       4.0
 5 C  px              0.6       0.3      10.2       2.1      10.7       3.5
 5 C  py              0.4       7.4       2.8      13.0       2.6      21.9
 5 C  dz2             0.6       0.6       0.8       0.1       0.1       0.0
 5 C  dx2y2           0.0       0.5       0.3       1.2       0.0       0.2
 5 C  dxy             0.1       0.0       0.1       0.0       1.1       0.5
 6 H  s               2.4       1.8       1.4       0.5       0.9       0.0
 6 H  pz              0.9       0.4       0.4       0.1       0.4       0.0
 6 H  px              0.2       0.8       0.1       0.3       0.1       0.0
 6 H  py              0.2       0.0       0.6       0.0       0.0       0.0
 7 H  s               1.8       1.6       7.5       2.0       2.9       0.0
 7 H  px              0.2       0.3       0.2       0.0       1.0       0.0
 7 H  py              1.2       0.1       2.3       0.5       0.8       0.0
 8 H  s               2.3       1.7       1.5       0.5       1.0       0.0
 8 H  pz              0.8       0.4       0.4       0.1       0.4       0.0
 8 H  px              0.2       0.8       0.1       0.3       0.1       0.0
 8 H  py              0.3       0.0       0.7       0.0       0.0       0.0
 9 H  s               0.6       4.2       0.3       1.6       4.1       0.6
 9 H  px              0.6       0.2       0.2       0.6       0.7       0.0
 9 H  py              0.1       0.8       0.1       1.2       1.0       0.2
10 H  s               0.2       3.2       0.4       0.6       0.1       5.3
10 H  px              0.1       0.8       0.4       0.1       0.1       1.8
10 H  py              0.0       0.1       0.2       0.4       0.2       1.2
11 H  s               0.8       3.5       1.5       5.2       0.2       1.6
11 H  px              0.1       0.0       0.6       0.0       1.0       0.1
11 H  py              0.0       0.9       0.2       2.3       0.0       1.5

                     30        31        32        33        34        35   
                   0.16154   0.17616   0.18842   0.20579   0.21459   0.23188
                   0.00000   0.00000   0.00000   0.00000   0.00000   0.00000
                  --------  --------  --------  --------  --------  --------
 0 C  s               0.7       0.0       4.3       0.0       0.4       0.0
 0 C  pz              0.0      27.3       0.0      31.6       0.2      37.7
 0 C  px              7.2       0.0       3.7       0.0       2.2       0.0
 0 C  py              4.8       0.0       8.2       0.1      30.1       0.0
 0 C  dz2             1.1       0.0       2.1       0.0       0.3       0.0
 0 C  dxz             0.0       0.2       0.0       0.6       0.0       0.1
 0 C  dyz             0.0       1.7       0.0       2.3       0.0       0.5
 0 C  dx2y2           0.0       0.0       0.2       0.0       0.0       0.0
 0 C  dxy             0.3       0.0       0.4       0.0       0.5       0.0
 1 N  s               0.1       0.0       0.0       0.0       0.1       0.0
 1 N  pz              0.0       1.3       0.0       2.0       0.0       0.1
 1 N  px              2.6       0.0       0.4       0.0       0.2       0.0
 1 N  py              1.2       0.0       0.6       0.0       3.2       0.0
 1 N  dz2             0.6       0.0       0.4       0.1       5.6       0.0
 1 N  dxz             0.0       3.4       0.0       1.5       0.0       0.7
 1 N  dyz             0.0       1.5       0.0       1.5       0.0       0.9
 1 N  dx2y2           1.9       0.0       1.2       0.0       0.2       0.0
 1 N  dxy             3.5       0.0       0.6       0.0       3.4       0.0
 2 C  s               5.8       0.0       3.9       0.0       3.4       0.0
 2 C  pz              0.0      27.2       0.0       1.2       0.1       0.6
 2 C  px              1.3       0.0       4.3       0.0       0.3       0.0
 2 C  py             15.8       0.0       1.2       0.0       3.0       0.0
 2 C  dz2             0.5       0.0       0.2       0.0       1.1       0.0
 2 C  dxz             0.0       0.1       0.0       0.1       0.0       0.1
 2 C  dyz             0.0       0.2       0.0       0.2       0.0       0.1
 2 C  dx2y2           0.0       0.0       0.2       0.0       0.0       0.0
 2 C  dxy             0.2       0.0       0.4       0.0       0.2       0.0
 3 C  s               3.0       0.0       7.6       0.0       3.2       0.0
 3 C  pz              0.0       9.3       0.0       0.5       0.0      27.8
 3 C  px             15.2       0.0       8.0       0.0       2.1       0.0
 3 C  py              2.1       0.0       3.9       0.1      10.9       0.0
 3 C  dz2             0.1       0.0       0.7       0.0       0.3       0.0
 3 C  dxz             0.0       0.4       0.0       0.0       0.0       0.1
 3 C  dyz             0.0       0.0       0.0       0.0       0.0       0.2
 3 C  dx2y2           0.4       0.0       0.9       0.0       0.4       0.0
 4 N  s               0.2       0.0       0.6       0.0       2.5       0.0
 4 N  pz              0.0       0.8       0.0       0.5       0.0       3.3
 4 N  px              2.8       0.0       0.9       0.0       1.5       0.0
 4 N  py              0.1       0.0       0.6       0.0       0.8       0.0
 4 N  dz2             0.1       0.0       7.3       0.0       0.9       0.0
 4 N  dxz             0.0       1.2       0.0       1.4       0.0       2.4
 4 N  dyz             0.0       0.3       0.0       0.0       0.0       2.6
 4 N  dx2y2           0.3       0.0       0.3       0.0       0.9       0.0
 4 N  dxy             0.3       0.0       0.5       0.0       0.0       0.0
 5 C  s               1.8       0.0       3.0       0.0       1.2       0.0
 5 C  pz              0.0      12.5       0.0      14.6       0.1      19.0
 5 C  px              1.1       0.0       1.2       0.0       0.5       0.0
 5 C  py              4.7       0.0       0.1       0.0       2.1       0.0
 5 C  dz2             0.1       0.0       0.0       0.0       0.4       0.0
 5 C  dyz             0.0       0.2       0.0       0.0       0.0       0.4
 5 C  dx2y2           0.2       0.0       0.3       0.0       0.0       0.0
 5 C  dxy             0.1       0.0       0.2       0.0       0.0       0.0
 6 H  s               0.9       5.4       6.3      14.8       0.3       0.6
 6 H  pz              0.1       0.0       2.7       2.2       0.0       0.3
 6 H  px              0.1       0.0       0.1       0.8       0.2       0.2
 6 H  py              0.1       0.3       0.1       2.2       0.7       0.1
 7 H  s               2.9       0.0       6.7       0.0       0.2       0.0
 7 H  pz              0.0       1.1       0.0       1.5       0.0       0.7
 7 H  px              0.5       0.0       0.2       0.0       0.4       0.0
 7 H  py              0.1       0.0       0.2       0.0       0.1       0.0
 8 H  s               1.1       5.1       6.7      14.6       0.1       0.7
 8 H  pz              0.1       0.0       2.7       1.8       0.0       0.3
 8 H  px              0.1       0.0       0.1       1.0       0.1       0.1
 8 H  py              0.1       0.3       0.0       2.6       0.4       0.0
 9 H  s               3.6       0.0       1.5       0.0       8.0       0.0
 9 H  px              0.1       0.0       0.0       0.0       0.2       0.0
 9 H  py              2.1       0.0       0.0       0.0       1.3       0.0
10 H  s               3.8       0.0       2.1       0.0       1.8       0.0
10 H  px              2.1       0.0       0.9       0.0       0.1       0.0
10 H  py              0.0       0.0       0.1       0.0       0.5       0.0
11 H  s               1.3       0.0       0.4       0.0       2.2       0.0
11 H  px              0.3       0.0       0.5       0.0       0.1       0.0
11 H  py              0.5       0.0       0.0       0.0       0.9       0.0

                     36        37        38        39        40        41   
                   0.24604   0.26061   0.27070   0.27268   0.28749   0.31390
                   0.00000   0.00000   0.00000   0.00000   0.00000   0.00000
                  --------  --------  --------  --------  --------  --------
 0 C  s               0.2       0.7       0.0       0.5       0.5       4.0
 0 C  pz              0.0       0.0       1.5       0.1       0.0       0.0
 0 C  px              0.4       3.4       0.2       4.4       2.2      28.9
 0 C  py              0.1       5.3       0.2       3.2      21.3       2.2
 0 C  dz2             0.1       0.0       0.0       0.0       0.0       0.1
 0 C  dxz             0.0       0.0       0.2       0.0       0.0       0.0
 0 C  dyz             0.0       0.0       0.5       0.0       0.0       0.0
 0 C  dx2y2           0.0       0.7       0.1       0.8       0.8       0.2
 0 C  dxy             0.0       1.0       0.0       0.3       0.2       0.1
 1 N  s               0.7       0.5       0.0       0.3       0.2       5.6
 1 N  pz              0.0       0.0       0.9       0.0       0.0       0.0
 1 N  px              0.9       1.7       0.0       0.7       1.0       0.8
 1 N  py              2.2       6.3       0.1       1.2       4.7       1.1
 1 N  dz2             0.0       0.5       0.3       8.8       0.0       0.8
 1 N  dxz             0.0       0.0       0.9       0.1       0.0       0.0
 1 N  dyz             0.0       0.0       0.5       0.0       0.0       0.0
 1 N  dx2y2           1.0       1.1       0.0       0.8       0.0       2.2
 1 N  dxy             1.1       2.1       0.2       4.6       1.5       0.5
 2 C  s               8.9       4.9       0.0       0.6       1.9       5.1
 2 C  pz              0.0       0.0      16.7       0.7       0.0       0.0
 2 C  px              1.3      12.9       0.0       1.5       1.5       4.2
 2 C  py              1.3       2.2       0.1       1.7       0.3       0.3
 2 C  dz2             0.9       0.1       0.0       0.1       0.9       1.1
 2 C  dyz             0.0       0.0       0.2       0.0       0.0       0.0
 2 C  dx2y2           0.1       1.0       0.1       1.2       0.7       0.2
 2 C  dxy             0.7       2.3       0.0       0.3       0.0       0.0
 3 C  s               5.6       2.8       0.1       4.8       0.2       2.7
 3 C  pz              0.0       0.0      27.0       1.4       0.0       0.0
 3 C  px              3.7       2.8       0.1       1.7       2.1      10.1
 3 C  py              5.2       1.1       0.3       5.9      14.7       0.1
 3 C  dz2             0.7       0.5       0.0       0.2       0.1       1.0
 3 C  dxz             0.0       0.0       0.1       0.0       0.0       0.0
 3 C  dx2y2           0.1       0.0       0.1       1.7       0.3       0.2
 3 C  dxy             0.9       1.2       0.0       0.1       0.1       0.0
 4 N  s               0.2       0.9       0.0       0.6       0.7       0.1
 4 N  pz              0.0       0.0       0.7       0.0       0.0       0.0
 4 N  px              3.7       0.4       0.1       2.2       0.8       4.4
 4 N  py              6.3       1.8       0.3       4.3       1.5       0.9
 4 N  dz2             1.6       0.1       0.0       0.0       2.8       0.6
 4 N  dxz             0.0       0.0       0.2       0.0       0.0       0.0
 4 N  dyz             0.0       0.0       0.6       0.0       0.0       0.0
 4 N  dx2y2           0.9       4.2       0.0       0.3       8.5       3.6
 4 N  dxy             1.9       3.8       0.0       1.0       1.4       0.0
 5 C  s              16.1       4.4       0.3       5.4       1.5       1.7
 5 C  pz              0.0       0.1      38.8       1.8       0.0       0.0
 5 C  px              5.5       3.8       0.7      14.8       4.5       1.0
 5 C  py              1.4       0.9       0.1       2.0       4.6       1.5
 5 C  dz2             1.3       0.6       0.0       0.0       0.2       0.7
 5 C  dyz             0.0       0.0       0.5       0.0       0.0       0.0
 5 C  dx2y2           0.3       0.3       0.0       0.3       0.0       1.1
 5 C  dxy             0.0       0.1       0.0       0.1       2.9       0.2
 6 H  s               0.0       0.1       1.5       1.8       0.9       2.5
 6 H  pz              0.0       0.0       0.1       0.1       0.3       0.7
 6 H  px              0.0       0.5       0.2       0.0       0.0       0.0
 6 H  py              0.0       0.0       0.1       0.4       0.8       0.0
 7 H  s               0.1      11.2       0.1       2.5       3.5       0.6
 7 H  pz              0.0       0.0       0.2       0.0       0.0       0.0
 7 H  px              0.0       1.2       0.0       0.2       0.1       0.2
 7 H  py              0.0       2.8       0.1       1.9       0.0       0.0
 8 H  s               0.0       0.0       2.7       0.5       1.2       2.5
 8 H  pz              0.0       0.0       0.2       0.0       0.3       0.8
 8 H  px              0.0       0.5       0.2       0.0       0.0       0.0
 8 H  py              0.0       0.1       0.3       0.2       0.9       0.0
 9 H  s               1.5       0.0       0.3       4.3       1.0       1.6
 9 H  px              0.4       2.6       0.0       0.0       0.3       0.0
 9 H  py              0.0       0.0       0.1       1.9       0.1       0.1
10 H  s               8.4       1.0       0.2       3.8       0.2       3.2
10 H  px              0.3       0.0       0.0       0.9       0.1       0.2
10 H  py              2.5       0.6       0.0       0.2       0.0       0.0
11 H  s               9.9       2.4       0.0       0.1       3.1       0.0
11 H  pz              0.0       0.0       0.4       0.0       0.0       0.0
11 H  px              0.3       0.2       0.0       0.3       1.8       0.0
11 H  py              1.3       0.3       0.0       0.0       0.7       0.0

                     42        43        44        45        46        47   
                   0.32240   0.33216   0.35551   0.39224   0.42211   0.45832
                   0.00000   0.00000   0.00000   0.00000   0.00000   0.00000
                  --------  --------  --------  --------  --------  --------
 0 C  s               0.4       0.0       2.6       1.0      13.4       0.1
 0 C  pz              0.0       9.8       0.0       0.0       0.0       0.6
 0 C  px             19.4       0.0       0.5       0.8       0.1       0.0
 0 C  py              3.6       0.0       3.4       1.8       0.9       0.0
[...]
 5 C  py              1.3       1.0       0.0       1.8       0.0       0.1
 5 C  dz2             1.2       0.0       0.0       0.2       0.4       1.5
 5 C  dxz             0.0       0.0       0.2       0.0       0.0       0.0
 5 C  dx2y2           0.6       0.0       0.0       3.6       7.0       3.0
 5 C  dxy             0.2       2.4       0.1       5.0       1.9       0.0
 6 H  s               0.0       3.2       6.1       1.5       0.2       0.1
 6 H  pz              0.0       6.2       8.6       3.9       0.2       0.0
 6 H  px              0.0       1.0       1.6       0.0       0.2       0.0
 6 H  py              0.0       0.5       5.2       0.5       0.1       0.0
 7 H  s               0.0       8.9       0.6       1.1       0.2       0.7
 7 H  pz              0.0       0.0       0.7       0.0       0.0       0.0
 7 H  px              0.0       2.5       0.2       0.6       0.2       0.0
 7 H  py              0.0      20.4       1.2       1.1       0.2       1.4
 8 H  s               0.0       0.2       9.4       1.3       0.2       0.0
 8 H  pz              0.0       0.7      13.5       3.4       0.2       0.0
 8 H  px              0.0       0.1       2.5       0.0       0.2       0.0
 8 H  py              0.0       0.1       6.7       0.5       0.1       0.0
 9 H  s               5.3       0.2       0.0       1.0       0.0       0.1
 9 H  px              2.5       0.1       0.0       0.6       0.0       0.1
 9 H  py             21.8       0.5       0.0       2.5       0.0       0.2
10 H  s               5.1       0.0       0.0       0.1       0.5       0.0
10 H  px             17.6       0.1       0.0       0.3       1.0       0.0
10 H  py              5.2       0.1       0.0       0.4       0.1       0.0
11 H  s               1.4       0.5       0.0       2.9       0.9       1.0
11 H  px              0.5       0.0       0.0       1.1       0.1       0.2
11 H  py              5.9       1.6       0.1       7.6       2.1       2.0

                    144       145       146       147       148       149   
                   3.87204   3.96376   3.99149   4.19041  21.90842  22.04341
                   0.00000   0.00000   0.00000   0.00000   0.00000   0.00000
                  --------  --------  --------  --------  --------  --------
 0 C  s               0.6       0.5       0.9       0.1       0.2      96.5
 0 C  px              2.1       2.5       1.4       0.3       0.0       0.0
 0 C  dz2             0.5       1.2       0.4       0.1       0.0       0.0
 0 C  dx2y2           3.2       3.7       1.8       0.5       0.0       0.0
 0 C  dxy             0.5       0.0       0.1       0.1       0.0       0.0
 1 N  s               0.4       5.2       0.1       0.1       0.2       0.1
 1 N  px              3.4       0.6       4.8       0.2       0.0       0.1
 1 N  py              0.3       0.6      11.4       5.1       0.0       0.0
 1 N  dz2             0.2       4.3       0.1       0.0       0.0       0.0
 1 N  dx2y2           8.0      11.1       6.5       3.1       0.0       0.1
 1 N  dxy             2.1       0.0      20.0       9.0       0.0       0.0
 2 C  s               1.9       0.7       1.8       0.6      45.8       0.7
 2 C  px              0.9       0.4       0.5       0.4       0.0       0.0
 2 C  py              0.2       0.9       0.4       2.6       0.0       0.0
 2 C  dz2             1.6       1.6       1.1       0.0       0.0       0.0
 2 C  dx2y2           1.9       5.4       1.6       0.5       0.0       0.0
 2 C  dxy             0.1       3.1       0.3       7.3       0.0       0.0
 3 C  s               2.5       1.8       0.1       1.0      49.0       0.3
 3 C  px              0.7       1.0       0.1       0.3       0.0       0.0
 3 C  py              0.0       0.3       0.0       3.8       0.0       0.0
 3 C  dz2             2.4       1.8       0.1       0.1       0.0       0.0
 3 C  dx2y2           0.0       0.1       0.0       7.6       0.0       0.0
 3 C  dxy             8.1       4.9       0.1       1.6       0.0       0.0
 4 N  s               5.6       1.1       3.9       0.1       0.1       0.0
 4 N  px              3.2       3.6       4.7       4.9       0.0       0.0
 4 N  py              2.7       2.0       0.2       7.2       0.0       0.0
 4 N  dz2             6.2       1.2       3.9       0.0       0.0       0.0
 4 N  dx2y2           0.3      10.4       1.5      21.9       0.0       0.0
 4 N  dxy             7.1       3.6       2.4       0.5       0.0       0.0
 5 C  s               1.7       3.9       6.2       0.3       4.3       1.8
 5 C  px              0.0       1.6       0.0       5.7       0.0       0.0
 5 C  py              0.4       0.4       8.0       0.1       0.0       0.0
 5 C  dz2             1.8       2.4       2.0       0.0       0.0       0.0
 5 C  dx2y2           3.6       0.2       3.1       4.1       0.0       0.0
 5 C  dxy             4.6       0.8       5.6       3.6       0.0       0.0
 6 H  s               0.0       0.1       0.0       0.0       0.0       0.0
 6 H  pz              0.1       0.3       0.0       0.0       0.0       0.0
 7 H  s               0.3       0.1       0.0       0.1       0.0       0.0
 7 H  py              0.7       0.2       0.0       0.1       0.0       0.0
 8 H  s               0.0       0.1       0.0       0.0       0.0       0.0
 8 H  pz              0.1       0.2       0.0       0.0       0.0       0.0
 9 H  s               1.0       2.9       0.2       1.5       0.0       0.0
 9 H  px              0.1       0.9       0.2       0.2       0.0       0.0
 9 H  py              2.3       4.7       0.6       2.0       0.0       0.0
10 H  s               2.6       2.1       0.0       1.2       0.0       0.0
10 H  px              4.6       3.0       0.0       1.0       0.0       0.0
10 H  py              1.3       1.8       0.0       0.5       0.0       0.0
11 H  s               2.5       0.1       1.6       0.0       0.0       0.0
11 H  px              0.5       0.2       0.3       0.0       0.0       0.0
11 H  py              5.0       0.3       1.5       0.0       0.0       0.0

                    150       151       152       153   
                  22.18893  22.24463  31.81620  31.98128
                   0.00000   0.00000   0.00000   0.00000
                  --------  --------  --------  --------
 0 C  s               1.0       1.7       0.0       0.0
 1 N  s               0.0       0.1      61.6      38.1
 1 N  py              0.1       0.0       0.0       0.0
 2 C  s              10.0      42.8       0.0       0.1
 3 C  s               0.1      50.0       0.0       0.1
 4 N  s               0.1       0.0      38.2      61.6
 4 N  px              0.1       0.0       0.0       0.0
 5 C  s              88.1       4.9       0.1       0.0


                      *****************************
                      * MAYER POPULATION ANALYSIS *
                      *****************************

  NA   - Mulliken gross atomic population
  ZA   - Total nuclear charge
  QA   - Mulliken gross atomic charge
  VA   - Mayer's total valence
  BVA  - Mayer's bonded valence
  FA   - Mayer's free valence

  ATOM       NA         ZA         QA         VA         BVA        FA
  0 C      6.4186     6.0000    -0.4186     3.7944     3.7944     0.0000
  1 N      6.7958     7.0000     0.2042     3.3992     3.3992     0.0000
  2 C      6.2230     6.0000    -0.2230     3.7529     3.7529    -0.0000
  3 C      6.1865     6.0000    -0.1865     3.8080     3.8080     0.0000
  4 N      7.2806     7.0000    -0.2806     2.9199     2.9199    -0.0000
  5 C      6.1553     6.0000    -0.1553     3.9819     3.9819     0.0000
  6 H      0.8164     1.0000     0.1836     0.9482     0.9482     0.0000
  7 H      0.8132     1.0000     0.1868     0.9528     0.9528    -0.0000
  8 H      0.8167     1.0000     0.1833     0.9487     0.9487     0.0000
  9 H      0.8251     1.0000     0.1749     0.9685     0.9685    -0.0000
 10 H      0.8386     1.0000     0.1614     0.9678     0.9678     0.0000
 11 H      0.8303     1.0000     0.1697     0.9679     0.9679     0.0000

  Mayer bond orders larger than 0.100000
B(  0-C ,  1-N ) :   0.9141 B(  0-C ,  6-H ) :   0.9444 B(  0-C ,  7-H ) :   0.9555 
B(  0-C ,  8-H ) :   0.9456 B(  1-N ,  2-C ) :   1.2171 B(  1-N ,  5-C ) :   1.2721 
B(  2-C ,  3-C ) :   1.4766 B(  2-C ,  9-H ) :   0.9626 B(  3-C ,  4-N ) :   1.3087 
B(  3-C , 10-H ) :   0.9709 B(  4-N ,  5-C ) :   1.5908 B(  5-C , 11-H ) :   0.9511 


-------
TIMINGS
-------

Total SCF time: 0 days 0 hours 0 min 17 sec 

Total time                  ....      17.551 sec
Sum of individual times     ....      17.082 sec  ( 97.3%)

SCF preparation             ....       0.230 sec  (  1.3%)
Fock matrix formation       ....      15.973 sec  ( 91.0%)
  Startup                   ....       0.060 sec  (  0.4% of F)
  Split-RI-J                ....       2.027 sec  ( 12.7% of F)
  XC integration            ....      10.847 sec  ( 67.9% of F)
    Basis function eval.    ....       1.809 sec  ( 16.7% of XC)
    Density eval.           ....       3.053 sec  ( 28.1% of XC)
    XC-Functional eval.     ....       1.434 sec  ( 13.2% of XC)
    XC-Potential eval.      ....       3.728 sec  ( 34.4% of XC)
  CPCM terms                ....       2.491 sec  ( 15.6% of F)
Diagonalization             ....       0.000 sec  (  0.0%)
Density matrix formation    ....       0.242 sec  (  1.4%)
Total Energy calculation    ....       0.046 sec  (  0.3%)
Population analysis         ....       0.068 sec  (  0.4%)
Orbital Transformation      ....       0.043 sec  (  0.2%)
Orbital Orthonormalization  ....       0.000 sec  (  0.0%)
DIIS solution               ....       0.369 sec  (  2.1%)
  MO trafo                  ....       0.000 sec  (  0.0 % of DIIS)
  Orb grad                  ....       0.000 sec  (  0.0 % of DIIS)
  Energy W gradient         ....       0.000 sec  (  0.0 % of DIIS)
  DIIS error                ....       0.006 sec  (  1.6 % of DIIS)
  DIIS work                 ....       0.320 sec  ( 86.8 % of DIIS)
  Form Q                    ....       0.000 sec  (  0.0 % of DIIS)
  Form QpQm                 ....       0.000 sec  (  0.0 % of DIIS)
  Exp/Cayley                ....       0.000 sec  (  0.0 % of DIIS)
  Orb update                ....       0.000 sec  (  0.0 % of DIIS)
  Wake-sleep                ....       0.019 sec  (  5.2 % of DIIS)
SOSCF solution              ....       0.112 sec  (  0.6%)
  MO trafo                  ....       0.049 sec  ( 44.1 % of SOSCF)
  Orb grad                  ....       0.002 sec  (  1.7 % of SOSCF)
  Rot update                ....       0.036 sec  ( 32.0 % of SOSCF)
  Step                      ....       0.025 sec  ( 22.2 % of SOSCF)
Finished LeanSCF after  17.7 sec

Maximum memory used throughout the entire LEANSCF-calculation: 16.3 MB


-------------------------------------------------------------------------------
                          DFT DISPERSION CORRECTION                            
                                                                               
                                DFTD4 V3.4.0                                   
-------------------------------------------------------------------------------
The R2SCAN3C composite method is recognized
Using three-body term ABC
Active option DFTDOPT                   ...         5   

-------------------------   ----------------
Dispersion correction           -0.003065065
-------------------------   ----------------

------------------   -----------------
gCP correction             0.011969703
------------------   -----------------

-------------------------   --------------------
FINAL SINGLE POINT ENERGY      -265.461607026467
-------------------------   --------------------


------------------------------------------------------------------------------
                              ORCA PROPERTY CALCULATIONS
------------------------------------------------------------------------------

GBWName                                 ... sp_solv.gbw
Number of atoms                         ...     12
Number of basis functions               ...    154
Max core memory                         ...   1024 MB

Electric properties:
Dipole moment                           ... YES
Quadrupole moment                       ...  NO
Static polarizability (Dipole/Dipole)   ...  NO
Static polarizability (Dipole/Quad.)    ...  NO
Static polarizability (Quad./Quad.)     ...  NO
Static polarizability (Velocity)        ...  NO

Atomic electric properties:
Dipole moment                           ...  NO
Quadrupole moment                       ...  NO
Static polarizability                   ...  NO

Choice of electric origin               ... Center of mass
Position of electric origin             ...     0.000005    -0.000001     0.000000

General magnetic properties:
Magnetizability                         ...  NO

EPR properties:
g-Tensor (aka g-matrix)                 ...  NO
Zero-Field splitting spin-orbit         ...  NO
Zero-field splitting spin-spin          ...  NO
Hyperfine couplings                     ...  NO (   0 nuclei)
Quadrupole couplings                    ...  NO (   0 nuclei)
Contact density                         ...  NO (   0 nuclei)

NMR properties:
Chemical shifts                         ...  NO (   0 nuclei)
Spin-rotation constants                 ...  NO (   0 nuclei)
Spin-spin couplings                     ...  NO (   0 nuclei,    0 pairs)

Choice of magnetic origin               ... GIAO
Position of magnetic origin             ...     0.000000     0.000000     0.000000

Properties with geometric perturbations:
SCF Hessian                             ...  NO
IR spectrum                             ...  NO
VCD spectrum                            ...  NO
X-ray spectroscopy properties:
SCF XES/XAS/RIXS spectra                ...  NO


-------------
DIPOLE MOMENT
-------------

Method             : SCF
Type of density    : Electron Density
Multiplicity       :   1
Irrep              :   0
Energy             :  -265.4705116641982272 Eh
Relativity type    : 
Basis              : AO
                                X                 Y                 Z
Electronic contribution:     -3.012655323       0.484332966      -0.004698502
Nuclear contribution   :      5.214593668      -1.091751746       0.004317599
                        -----------------------------------------
Total Dipole Moment    :      2.201938345      -0.607418780      -0.000380903
                        -----------------------------------------
Magnitude (a.u.)       :      2.284182609
Magnitude (Debye)      :      5.805930788



--------------------
Rotational spectrum 
--------------------
 
Rotational constants in cm-1:             0.312985             0.121972             0.089241 
Rotational constants in MHz :          9383.065813          3656.620599          2675.390977 

Dipole components along the rotational axes: 
x,y,z [a.u.] :    -2.199517    -0.616129    -0.000435 
x,y,z [Debye]:    -5.590728    -1.566074    -0.001106 

 

Dipole moment calculation done in   0.0 sec 

Maximum memory used throughout the entire PROP-calculation: 9.0 MB

--------------------------------
SUGGESTED CITATIONS FOR THIS RUN
--------------------------------

Below you find a list of papers that are relevant to this ORCA run
We neither can nor want to force you to cite these papers, but we appreciate if you do
You receive ORCA, which is the product of decades of hard work by many enthusiastic individuals, for free
The only thing we kindly ask in return is that you cite our papers,
We deeply appreciate it, if you show your appreciation for ORCA by not just citing the generic ORCA reference.

Please note that relegating all ORCA citations to the supporting information does *not* help us.
SI sections are not indexed - citations you put there will not count into any citation statistics
But we need these citations in order to attract the funding resources that allow us to do what we are doing

Therefore, if you are a happy ORCA user, please consider citing a few of the papers listed below in the main body of your paper

In addition to the list printed below, the program has created the file sp_solv.bibtex that contains the list in bibtex format
You can import this file easily into all common literature databanks and citation aid programs


List of essential papers. We consider these as the minimum necessary citations

  1. Neese,F.
     Software update: the ORCA program system, version 5.0
     WIRES Comput. Molec. Sci., 2022 12(1)e1606
     doi.org/10.1002/wcms.1606
  2. Grimme,S.; Hansen,A.; Ehlert,S.; Mewes,J.
     r2SCAN-3c: A 'Swiss army knife' composite electronic-structure method
     J. Chem. Phys., 2021 154 064103
     doi.org/10.1063/5.0040021

List of papers to cite with high priority. The work reported in these papers was absolutely
necessary for this run to complete.
Our perspective: the developers of density functionals and basis sets usually get cited in chemistry papers
Good! But without the algorithms to do something with them, the functionals or basis sets would not do anything.
Hence, in our opinion, the algorithm design and method developments papers are equally worthy of getting cited

  1. Neese,F.
     An improvement of the resolution of the identity approximation for the formation of the Coulomb matrix
     J. Comp. Chem., 2003 24(14)1740-1747
     doi.org/10.1002/jcc.10318
  2. Garcia-Rates,M.; Neese,F.
     Effect of the Solute Cavity on the Solvation Energy and its Derivatives within the Framework of the Gaussian Charge Scheme
     J. Comput. Chem., 2020 41 922-939
     doi.org/10.1002/jcc.26139
  3. Neese,F.
     The SHARK Integral Generation and Digestion System
     J. Comp. Chem., 2022  1-16
     doi.org/10.1002/jcc.26942
  4. Lehtola,S.; Steigemann,C.; Oliveira,M.; Marques,M.
     Recent developments in Libxc - A comprehensive library of functionals for density functional theory
     Software X, 2018 7 
     doi.org/10.1016/j.softx.2017.11.002
  5. Caldeweyher,E.; Bannwarth,C.; Grimme,S.
     Extension of the D3 dispersion coefficient model
     J. Chem. Phys., 2017 147 034112-XXXX
     doi.org/10.1063/1.4993215
  6. Caldeweyher,E.; Ehlert,S.; Hansen,A.; Neugebauer,H.; Spicher,S.; Bannwarth,C.; Grimme,S.
     A generally applicable atomic-charge dependent London dispersion correction
     J. Chem. Phys., 2019 150 154122-XXXX
     doi.org/10.1063/1.5090222
  7. Caldeweyher,E.; Mewes,J.; Ehlert,S.; Grimme,S.
     Extension and evaluation of the D4 London-dispersion model for periodic systems
     Phys. Chem. Chem. Phys., 2020 22(16)8499-8512
     doi.org/10.1039/D0CP00502A

List of suggested additional citations. These are papers that are important in the 'surrounding' of 
of this run, or papers that preceded the highly important papers. If you like your results we are grateful for a citation.

  1. Neese,F.
     The ORCA program system
     WIRES Comput. Molec. Sci., 2012 2(1)73-78
     doi.org/10.1002/wcms.81
  2. Neese,F.
     Software update: the ORCA program system, version 4.0
     WIRES Comput. Molec. Sci., 2018 8(1)1-6
     doi.org/10.1002/wcms.1327
  3. Neese,F.; Wennmohs,F.; Becker,U.; Riplinger,C.
     The ORCA quantum chemistry program package
     J. Chem. Phys., 2020 152 Art. No. L224108
     doi.org/10.1063/5.0004608

List of optional additional citations

  1. Neese,F.
     Approximate second-order SCF convergence for spin unrestricted wavefunctions
     Chem. Phys. Lett., 2000 325(1-3)93-98
     doi.org/10.1016/s0009-2614(00)00662-x

Timings for individual modules:

Sum of individual times          ...       18.858 sec (=   0.314 min)
Startup calculation              ...        0.774 sec (=   0.013 min)   4.1 %
SCF iterations                   ...       17.985 sec (=   0.300 min)  95.4 %
Property calculations            ...        0.098 sec (=   0.002 min)   0.5 %
                             ****ORCA TERMINATED NORMALLY****
TOTAL RUN TIME: 0 days 0 hours 0 minutes 19 seconds 539 msec
