15
 energy: -23.094109225837 gnorm: 0.021726052097 xtb: 6.7.1 (edcfbbe)
C           -2.68862920558729        0.00027589785423       -0.40746957754024
C           -2.02761552916249        1.20661173247910       -0.18371126520825
C           -0.70960173654178        1.20663453113319        0.26079058061341
C           -0.04142304195985       -0.00026971383787        0.48737917785558
C           -0.70991468336469       -1.20689557256694        0.26025095218829
C           -2.02793610519192       -1.20632913451141       -0.18424252264457
C            1.36843756746136       -0.00056277106789        0.96167995634760
Cl           2.54605262928948        0.00017156377152       -0.48443274680259
H           -3.71794476211794        0.00048733956989       -0.75160380041816
H           -2.54120232413615        2.14780728037165       -0.35209937378200
H           -0.19217087082854        2.14552669963409        0.43707177051028
H           -0.19272966085824       -2.14600165195092        0.43611316159300
H           -2.54177157674721       -2.14731596407582       -0.35303760626380
H            1.61925187097535       -0.89746411393844        1.52770282507107
H            1.61931391596283        0.89572455426706        1.52864873596221
15
 energy: -23.095076589119 gnorm: 0.010827444870 xtb: 6.7.1 (edcfbbe)
C           -2.68047756175124        0.00027491879460       -0.40399628084552
C           -2.02231584294003        1.19982830553923       -0.18224750829504
C           -0.71070803971254        1.20022175737872        0.26038144291940
C           -0.04416648178194       -0.00027227132139        0.49070001105591
C           -0.71102182362749       -1.20048538691750        0.25983868613655
C           -2.02263607595984       -1.19954878745501       -0.18277978028816
C            1.36351951420860       -0.00056249951641        0.96935705678583
Cl           2.50522480256785        0.00016068509399       -0.47798919113575
H           -3.70416292138481        0.00048755932667       -0.74980612481116
H           -2.53265920362104        2.13664636300214       -0.35414759924823
H           -0.19622134983800        2.13541919736306        0.43155737976543
H           -0.19678478549942       -2.13589593073911        0.43059861160804
H           -2.53322671044196       -2.13615678905234       -0.35508941416643
H            1.62384711844590       -0.89950006270344        1.52286458177404
H            1.62390584852886        0.89778361833824        1.52379839622691
15
 energy: -23.095245472895 gnorm: 0.005709454261 xtb: 6.7.1 (edcfbbe)
C           -2.67703337820493        0.00027527067392       -0.40513757504518
C           -2.01957763677325        1.19789074161307       -0.18297612224873
C           -0.71135724307070        1.19822934386499        0.26416395378103
C           -0.04621813347994       -0.00027509781152        0.49762850031664
C           -0.71167189791735       -1.19849699468938        0.26361877887101
C           -2.01989708607860       -1.19761261642114       -0.18351310429132
C            1.36645274833392       -0.00055832660018        0.96584063563664
Cl           2.48570363325924        0.00014845473254       -0.47975827981467
H           -3.69907628122012        0.00048868756786       -0.75044339400968
H           -2.52787765755999        2.13346274478082       -0.35700915268999
H           -0.19797679249538        2.13230105085040        0.43328927852408
H           -0.19854186448745       -2.13278193513821        0.43232492648305
H           -2.52844367021742       -2.13297345617217       -0.35796004314390
H            1.62378639999404       -0.89806247775370        1.52102987748105
H            1.62384534711085        0.89636528763411        1.52194198763178
15
 energy: -23.095292958508 gnorm: 0.002085212375 xtb: 6.7.1 (edcfbbe)
C           -2.67678959735157        0.00027562072437       -0.40561912541714
C           -2.01940184390140        1.19801881354295       -0.18211457641152
C           -0.71123273824989        1.19822998763193        0.26610194091735
C           -0.04642875532736       -0.00027596338226        0.49974838882979
C           -0.71154619825614       -1.19849929919336        0.26555220033637
C           -2.01971953262740       -1.19774125206409       -0.18265699274250
C            1.37061273492978       -0.00055469405073        0.96227559572105
Cl           2.47586665942645        0.00013180775080       -0.48192374979750
H           -3.69742922446309        0.00048990463385       -0.75490382673440
H           -2.52632274680599        2.13384402063683       -0.35862566076494
H           -0.19844331308674        2.13250391328773        0.43613901664026
H           -0.19900666539209       -2.13298706971943        0.43516691789743
H           -2.52688603448431       -2.13335417870907       -0.35958698690882
H            1.62439127712946       -0.89730440410984        1.52129866889779
H            1.62445246565319        0.89562347015175        1.52218845701862
15
 energy: -23.095300658549 gnorm: 0.000404100803 xtb: 6.7.1 (edcfbbe)
C           -2.67685606243353        0.00027589546854       -0.40730406259652
C           -2.01972756024690        1.19847376747264       -0.18230761877638
C           -0.71137437655414        1.19866075995246        0.26704941132293
C           -0.04668172809015       -0.00027530818556        0.50016316135657
C           -0.71168562336605       -1.19892947894240        0.26649600891738
C           -2.02004285299282       -1.19819569157638       -0.18285444978808
C            1.37270982483981       -0.00055253544830        0.96015445163361
Cl           2.47522329020313        0.00011477169479       -0.48261555899048
H           -3.69760611284075        0.00048982558743       -0.75742464180218
H           -2.52690906752973        2.13474495688751       -0.35804840895870
H           -0.19861721239431        2.13335792791184        0.43792700403653
H           -0.19917631277820       -2.13384038093498        0.43694744059988
H           -2.52746840531814       -2.13425499219927       -0.35901832179475
H            1.62513130503073       -0.89706850274019        1.52150230014192
H            1.62519738166395        0.89539966218331        1.52237355218010
15
 energy: -23.095300952132 gnorm: 0.000159386049 xtb: 6.7.1 (edcfbbe)
C           -2.67706156972856        0.00027564596628       -0.40715059023314
C           -2.02000286032199        1.19863503105186       -0.18203857647259
C           -0.71126879944025        1.19886142155156        0.26677265188812
C           -0.04650439644363       -0.00027377627945        0.49908143560973
C           -0.71157718538173       -1.19912816692056        0.26621508578805
C           -2.02031528790407       -1.19835655026711       -0.18258970944450
C            1.37299446008762       -0.00055131178890        0.95979829940740
Cl           2.47634530356730        0.00009685676259       -0.48259908839470
H           -3.69762835017095        0.00048903564681       -0.75843122084068
H           -2.52739709048601        2.13506657816946       -0.35755341497712
H           -0.19860415244556        2.13370876287988        0.43834871480238
H           -0.19915797129746       -2.13418873088115        0.43736186295512
H           -2.52795158038909       -2.13457678672842       -0.35853084695952
H            1.62508682484874       -0.89711267922429        1.52175119066158
H            1.62515914269856        0.89545534719289        1.52260447369169
15
 energy: -23.095301034472 gnorm: 0.000037821252 xtb: 6.7.1 (edcfbbe)
C           -2.67693069102340        0.00027556635989       -0.40736476389317
C           -2.01992852929662        1.19858736548665       -0.18220470256809
C           -0.71132296846940        1.19882098622437        0.26683772261140
C           -0.04661652506935       -0.00027318124764        0.49927447966244
C           -0.71163006204577       -1.19908688494226        0.26627807445734
C           -2.02023955913925       -1.19830873457107       -0.18275807874592
C            1.37286377235962       -0.00055066531143        0.95984844317853
Cl           2.47649378744959        0.00008721337424       -0.48235917657264
H           -3.69766190081733        0.00048856047087       -0.75800365209606
H           -2.52740499793175        2.13496287489537       -0.35747603920712
H           -0.19860384108673        2.13361927676860        0.43814776036242
H           -0.19915507580346       -2.13409794801852        0.43715690678395
H           -2.52795686583846       -2.13447331326835       -0.35845766358153
H            1.62506712972637       -0.89710227818786        1.52163894203803
H            1.62514281417883        0.89545183909857        1.52248201505225
