
                                 *****************
                                 * O   R   C   A *
                                 *****************

                                            #,                                       
                                            ###                                      
                                            ####                                     
                                            #####                                    
                                            ######                                   
                                           ########,                                 
                                     ,,################,,,,,                         
                               ,,#################################,,                 
                          ,,##########################################,,             
                       ,#########################################, ''#####,          
                    ,#############################################,,   '####,        
                  ,##################################################,,,,####,       
                ,###########''''           ''''###############################       
              ,#####''   ,,,,##########,,,,          '''####'''          '####       
            ,##' ,,,,###########################,,,                        '##       
           ' ,,###''''                  '''############,,,                           
         ,,##''                                '''############,,,,        ,,,,,,###''
      ,#''                                            '''#######################'''  
     '                                                          ''''####''''         
             ,#######,   #######,   ,#######,      ##                                
            ,#'     '#,  ##    ##  ,#'     '#,    #''#        ,####,   ,####,        
            ##       ##  ##   ,#'  ##            #'  '#       #'       #'  '#        
            ##       ##  #######   ##           ,######,      #####,   #    #        
            '#,     ,#'  ##    ##  '#,     ,#' ,#      #,     #,   #   #,  ,#        
             '#######'   ##     ##  '#######'  #'      '#     '####' # '####'        



                #########################################################
                #                        -***-                          #
                #          Department of theory and spectroscopy        #
                #                                                       #
                #                      Frank Neese                      #
                #                                                       #
                #     Directorship, Architecture, Infrastructure        #
                #                    SHARK, DRIVERS                     #
                #        Core code/Algorithms in most modules           #
                #                                                       #
                #        Max Planck Institute fuer Kohlenforschung      #
                #                Kaiser Wilhelm Platz 1                 #
                #                 D-45470 Muelheim/Ruhr                 #
                #                      Germany                          #
                #                                                       #
                #                  All rights reserved                  #
                #                        -***-                          #
                #########################################################


                         Program Version 6.0.0  -   RELEASE  -


 With contributions from (in alphabetic order):
   Daniel Aravena         : Magnetic Suceptibility
   Michael Atanasov       : Ab Initio Ligand Field Theory (pilot matlab implementation)
   Alexander A. Auer      : GIAO ZORA, VPT2 properties, NMR spectrum
   Ute Becker             : All parallelization in ORCA, NUMFREQ, NUMCALC
   Giovanni Bistoni       : ED, misc. LED, open-shell LED, HFLD
   Martin Brehm           : Molecular dynamics
   Dmytro Bykov           : pre 5.0 version of the SCF Hessian
   Marcos Casanova-Páez   : Triplet and SCS-CIS(D). UHF-(DLPNO)-IP/EA/STEOM-CCSD. UHF-CVS-IP/STEOM-CCSD
   Vijay G. Chilkuri      : MRCI spin determinant printing, contributions to CSF-ICE
   Pauline Colinet        : FMM embedding
   Dipayan Datta          : RHF DLPNO-CCSD density
   Achintya Kumar Dutta   : EOM-CC, STEOM-CC
   Nicolas Foglia         : Exact transition moments, OPA infrastructure, MCD improvements
   Dmitry Ganyushin       : Spin-Orbit,Spin-Spin,Magnetic field MRCI
   Miquel Garcia          : C-PCM and meta-GGA Hessian, CCSD/C-PCM, Gaussian charge scheme
   Tiago L. C. Gouveia    : GS-ROHF, GS-ROCIS
   Yang Guo               : DLPNO-NEVPT2, F12-NEVPT2, CIM, IAO-localization
   Andreas Hansen         : Spin unrestricted coupled pair/coupled cluster methods
   Ingolf Harden          : AUTO-CI MPn and infrastructure 
   Benjamin Helmich-Paris : MC-RPA, TRAH-(SCF,CASSCF), AVAS, COSX integrals, SCF dyn. polar.
   Lee Huntington         : MR-EOM, pCC
   Robert Izsak           : Overlap fitted RIJCOSX, COSX-SCS-MP3, EOM
   Riya Kayal             : Wick's Theorem for AUTO-CI, AUTO-CI UHF-CCSDT
   Emily Kempfer          : AUTO-CI, RHF CISDT and CCSDT
   Christian Kollmar      : KDIIS, OOCD, Brueckner-CCSD(T), CCSD density, CASPT2, CASPT2-K, improved NEVPT2
   Axel Koslowski         : Symmetry handling
   Simone Kossmann        : Meta GGA functionals, TD-DFT gradient, OOMP2, (MP2 Hessian; deprecated post 5.0)
   Lucas Lang             : DCDCAS
   Marvin Lechner         : AUTO-CI (C++ implementation), FIC-MRCC
   Spencer Leger          : CASSCF response
   Dagmar Lenk            : GEPOL surface, SMD, ORCA-2-JSON
   Dimitrios Liakos       : Extrapolation schemes; Compound Job, initial MDCI parallelization
   Dimitrios Manganas     : Further ROCIS development; embedding schemes. LFT, Crystal Embedding
   Dimitrios Pantazis     : SARC Basis sets
   Anastasios Papadopoulos: AUTO-CI, single reference methods and gradients
   Taras Petrenko         : pre 6.0 DFT Hessian and TD-DFT gradient, (ASA, deprecated), ECA, 1-Electron XAS/XES, NRVS
   Peter Pinski           : DLPNO-MP2, DLPNO-MP2 Gradient
   Christoph Reimann      : Effective Core Potentials
   Marius Retegan         : Local ZFS, SOC
   Christoph Riplinger    : Optimizer, TS searches, QM/MM, DLPNO-CCSD(T), (RO)-DLPNO pert. Triples
   Michael Roemelt        : Original ROCIS implementation
   Masaaki Saitow         : Open-shell DLPNO-CCSD energy and density
   Barbara Sandhoefer     : DKH picture change effects
   Kantharuban Sivalingam : CASSCF convergence/infrastructure, NEVPT2 and variants, FIC-MRCI
   Bernardo de Souza      : ESD, SOC TD-DFT
   Georgi Stoychev        : AutoAux, RI-MP2 NMR, DLPNO-MP2 response, X2C
   Van Anh Tran           : RI-MP2 g-tensors
   Willem Van den Heuvel  : Paramagnetic NMR
   Zikuan Wang            : NOTCH, Electric field optimization 
   Frank Wennmohs         : Technical directorship and infrastructure
   Hang Xu                : AUTO-CI-Response properties 


 We gratefully acknowledge several colleagues who have allowed us to
 interface, adapt or use parts of their codes:
   Stefan Grimme, W. Hujo, H. Kruse, P. Pracht,  : VdW corrections, initial TS optimization,
                  C. Bannwarth, S. Ehlert,         DFT functionals, gCP, sTDA/sTD-DF
                  L. Wittmann, M. Mueller
   Ed Valeev, F. Pavosevic, A. Kumar             : LibInt (2-el integral package), F12 methods
   Garnet Chan, S. Sharma, J. Yang, R. Olivares  : DMRG
   Ulf Ekstrom                                   : XCFun DFT Library
   Mihaly Kallay                                 : mrcc  (arbitrary order and MRCC methods)
   Frank Weinhold                                : gennbo (NPA and NBO analysis)
   Simon Mueller                                 : openCOSMO-RS
   Christopher J. Cramer and Donald G. Truhlar   : smd solvation model
   Lars Goerigk                                  : TD-DFT with DH, B97 family of functionals
   V. Asgeirsson, H. Jonsson                     : NEB implementation
   FAccTs GmbH                                   : IRC, NEB, NEB-TS, DLPNO-Multilevel, CI-OPT
                                                   MM, QMMM, 2- and 3-layer-ONIOM, Crystal-QMMM,
                                                   LR-CPCM, SF, NACMEs, symmetry and pop. for TD-DFT,
                                                   nearIR, NL-DFT gradient (VV10), updates on ESD,
                                                   ML-optimized integration grids, MBIS, APM,
                                                   GOAT, DOCKER, SOLVATOR, interface openCOSMO-RS
   S Lehtola, MJT Oliveira, MAL Marques          : LibXC Library
   Liviu Ungur et al                             : ANISO software


 Your calculation uses the libint2 library for the computation of 2-el integrals
 For citations please refer to: http://libint.valeyev.net

 Your ORCA version has been built with support for libXC version: 6.2.2
 For citations please refer to: https://libxc.gitlab.io

 This ORCA versions uses:
   CBLAS   interface :  Fast vector & matrix operations
   LAPACKE interface :  Fast linear algebra routines
   SCALAPACK package :  Parallel linear algebra routines
   Shared memory     :  Shared parallel matrices
   BLAS/LAPACK       :  OpenBLAS 0.3.27  USE64BITINT DYNAMIC_ARCH NO_AFFINITY SkylakeX SINGLE_THREADED
        Core in use  :  SkylakeX
   Copyright (c) 2011-2014, The OpenBLAS Project


Your calculation utilizes the geometrical counterpoise correction gCP
Please cite in your paper:
H.Kruse, S. Grimme J.Chem.Phys., 136, (2012), 154101 
   

Your calculation utilizes the atom-pairwise dispersion correction
based on EEQ partial charges (D4)


================================================================================

----- Orbital basis set information -----
Your calculation utilizes the basis: def2-mTZVPP
   Stefan Grimme, Andreas Hansen, Sebastian Ehlert, and Jan-Michael Mewes 
   J. Chem. Phys. 154, 064103 (2021). DOI: 10.1063/5.0040021

----- AuxJ basis set information -----
Your calculation utilizes the auxiliary basis: def2/J
   F. Weigend, Phys. Chem. Chem. Phys. 8, 1057 (2006).

================================================================================
                                        WARNINGS
                       Please study these warnings very carefully!
================================================================================

Using LibXC functional ID 497 : Re-regularized SCAN exchange by Furness et al
[ 1]  J. W. Furness, A. D. Kaplan, J. Ning, J. P. Perdew, and J. Sun.,  J. Phys. Chem. Lett. 11, 8208-8215 (2020)
[ 2]  J. W. Furness, A. D. Kaplan, J. Ning, J. P. Perdew, and J. Sun.,  J. Phys. Chem. Lett. 11, 9248-9248 (2020)
Using LibXC functional ID 498 : Re-regularized SCAN correlation by Furness et al
[ 1]  J. W. Furness, A. D. Kaplan, J. Ning, J. P. Perdew, and J. Sun.,  J. Phys. Chem. Lett. 11, 8208-8215 (2020)
[ 2]  J. W. Furness, A. D. Kaplan, J. Ning, J. P. Perdew, and J. Sun.,  J. Phys. Chem. Lett. 11, 9248-9248 (2020)
Using LibXC functional ID 497 : Re-regularized SCAN exchange by Furness et al
[ 1]  J. W. Furness, A. D. Kaplan, J. Ning, J. P. Perdew, and J. Sun.,  J. Phys. Chem. Lett. 11, 8208-8215 (2020)
[ 2]  J. W. Furness, A. D. Kaplan, J. Ning, J. P. Perdew, and J. Sun.,  J. Phys. Chem. Lett. 11, 9248-9248 (2020)
Using LibXC functional ID 498 : Re-regularized SCAN correlation by Furness et al
[ 1]  J. W. Furness, A. D. Kaplan, J. Ning, J. P. Perdew, and J. Sun.,  J. Phys. Chem. Lett. 11, 8208-8215 (2020)
[ 2]  J. W. Furness, A. D. Kaplan, J. Ning, J. P. Perdew, and J. Sun.,  J. Phys. Chem. Lett. 11, 9248-9248 (2020)

================================================================================
                                       INPUT FILE
================================================================================
NAME = sp_gas.inp
|  1> ! r2scan-3c def2/J RI DEFGRID2 scfconv6 printgap
|  2> %output
|  3>     printlevel normal
|  4> end
|  5> * xyz 0 1
|  6> C 1.7791987491 0.9102319513 0.6531501103
|  7> C 1.2658481778 0.069691714 -0.5098165593
|  8> C 1.511271936 -1.4200808733 -0.3030190974
|  9> O -0.1324018222 0.3412111209 -0.7796950414
| 10> C -1.0810291631 0.0801686021 0.1087510565
| 11> O -0.8916141928 -0.3877779159 1.212772077
| 12> C -2.4368377225 0.4310890046 -0.4357735316
| 13> H 1.5550464737 1.9607252958 0.4839690868
| 14> H 1.3108172168 0.594854468 1.5823151975
| 15> H 2.8539432606 0.7859080151 0.7380150559
| 16> H 1.7400806955 0.3973640266 -1.4412870842
| 17> H 1.0414331051 -1.7556280001 0.6183566743
| 18> H 2.5793876383 -1.6022556004 -0.2426722945
| 19> H 1.1005505136 -1.9866404273 -1.1353329409
| 20> H -2.9602453596 -0.491611916 -0.6760286436
| 21> H -2.3338465859 1.0366851458 -1.329360643
| 22> H -3.0070249487 0.9525068102 0.3273925158
| 23> *
| 24> 
| 25>                          ****END OF INPUT****
================================================================================

                       ****************************
                       * Single Point Calculation *
                       ****************************

---------------------------------
CARTESIAN COORDINATES (ANGSTROEM)
---------------------------------
  C      1.779199    0.910232    0.653150
  C      1.265848    0.069692   -0.509817
  C      1.511272   -1.420081   -0.303019
  O     -0.132402    0.341211   -0.779695
  C     -1.081029    0.080169    0.108751
  O     -0.891614   -0.387778    1.212772
  C     -2.436838    0.431089   -0.435774
  H      1.555046    1.960725    0.483969
  H      1.310817    0.594854    1.582315
  H      2.853943    0.785908    0.738015
  H      1.740081    0.397364   -1.441287
  H      1.041433   -1.755628    0.618357
  H      2.579388   -1.602256   -0.242672
  H      1.100551   -1.986640   -1.135333
  H     -2.960245   -0.491612   -0.676029
  H     -2.333847    1.036685   -1.329361
  H     -3.007025    0.952507    0.327393

----------------------------
CARTESIAN COORDINATES (A.U.)
----------------------------
  NO LB      ZA    FRAG     MASS         X           Y           Z
   0 C     6.0000    0    12.011    3.362198    1.720089    1.234275
   1 C     6.0000    0    12.011    2.392106    0.131698   -0.963414
   2 C     6.0000    0    12.011    2.855890   -2.683564   -0.572623
   3 O     8.0000    0    15.999   -0.250203    0.644796   -1.473410
   4 C     6.0000    0    12.011   -2.042849    0.151497    0.205510
   5 O     8.0000    0    15.999   -1.684907   -0.732794    2.291807
   6 C     6.0000    0    12.011   -4.604956    0.814640   -0.823493
   7 H     1.0000    0     1.008    2.938612    3.705234    0.914569
   8 H     1.0000    0     1.008    2.477086    1.124112    2.990142
   9 H     1.0000    0     1.008    5.393171    1.485151    1.394646
  10 H     1.0000    0     1.008    3.288276    0.750909   -2.723638
  11 H     1.0000    0     1.008    1.968023   -3.317656    1.168525
  12 H     1.0000    0     1.008    4.874336   -3.027824   -0.458584
  13 H     1.0000    0     1.008    2.079739   -3.754206   -2.145468
  14 H     1.0000    0     1.008   -5.594053   -0.929012   -1.277509
  15 H     1.0000    0     1.008   -4.410331    1.959051   -2.512128
  16 H     1.0000    0     1.008   -5.682454    1.799977    0.618682

--------------------------------
INTERNAL COORDINATES (ANGSTROEM)
--------------------------------
 C      0   0   0     0.000000000000     0.00000000     0.00000000
 C      1   0   0     1.523984309032     0.00000000     0.00000000
 C      2   1   0     1.523948940486   112.41869778     0.00000000
 O      2   1   3     1.449710400709   111.32463991   125.68875978
 C      4   2   1     1.325659646138   121.90712420   296.59212336
 O      5   4   2     1.213966386844   125.01185501     0.65579136
 C      5   4   2     1.502620712515   110.90498957   181.12027877
 H      1   2   3     1.087383431968   110.16127040   181.95393906
 H      1   2   3     1.087286519756   110.30669626   302.23989036
 H      1   2   3     1.085234659004   109.27376466    62.12571674
 H      2   1   3     1.095400823464   109.76059784   237.53191816
 H      3   2   1     1.087324107155   110.30869834    57.70078736
 H      3   2   1     1.085219112122   109.27829366   297.82504343
 H      3   2   1     1.087395120979   110.16014659   178.00424867
 H      7   5   4     1.087683346518   108.42888386   106.42229861
 H      7   5   4     1.084366997891   110.08140868   346.38730963
 H      7   5   4     1.086007558363   109.34188736   224.01092680

---------------------------
INTERNAL COORDINATES (A.U.)
---------------------------
 C      0   0   0     0.000000000000     0.00000000     0.00000000
 C      1   0   0     2.879912976463     0.00000000     0.00000000
 C      2   1   0     2.879846139598   112.41869778     0.00000000
 O      2   1   3     2.739555630837   111.32463991   125.68875978
 C      4   2   1     2.505133677991   121.90712420   296.59212336
 O      5   4   2     2.294064006922   125.01185501     0.65579136
 C      5   4   2     2.839541629811   110.90498957   181.12027877
 H      1   2   3     2.054856888983   110.16127040   181.95393906
 H      1   2   3     2.054673751444   110.30669626   302.23989036
 H      1   2   3     2.050796296557   109.27376466    62.12571674
 H      2   1   3     2.070007563219   109.76059784   237.53191816
 H      3   2   1     2.054744781334   110.30869834    57.70078736
 H      3   2   1     2.050766917207   109.27829366   297.82504343
 H      3   2   1     2.054878978012   110.16014659   178.00424867
 H      7   5   4     2.055423645346   108.42888386   106.42229861
 H      7   5   4     2.049156654676   110.08140868   346.38730963
 H      7   5   4     2.052256864675   109.34188736   224.01092680

---------------------
BASIS SET INFORMATION
---------------------
There are 3 groups of distinct atoms

 Group   1 Type C   : 11s6p1d contracted to 5s3p1d pattern {62111/411/1}
 Group   2 Type O   : 11s6p2d contracted to 5s3p2d pattern {62111/411/11}
 Group   3 Type H   : 4s1p contracted to 2s1p pattern {31/1}

Atom   0C    basis set group =>   1
Atom   1C    basis set group =>   1
Atom   2C    basis set group =>   1
Atom   3O    basis set group =>   2
Atom   4C    basis set group =>   1
Atom   5O    basis set group =>   2
Atom   6C    basis set group =>   1
Atom   7H    basis set group =>   3
Atom   8H    basis set group =>   3
Atom   9H    basis set group =>   3
Atom  10H    basis set group =>   3
Atom  11H    basis set group =>   3
Atom  12H    basis set group =>   3
Atom  13H    basis set group =>   3
Atom  14H    basis set group =>   3
Atom  15H    basis set group =>   3
Atom  16H    basis set group =>   3
---------------------------------
AUXILIARY/J BASIS SET INFORMATION
---------------------------------
There are 3 groups of distinct atoms

 Group   1 Type C   : 12s5p4d2f1g contracted to 6s4p3d1f1g pattern {711111/2111/211/2/1}
 Group   2 Type O   : 12s5p4d2f1g contracted to 6s4p3d1f1g pattern {711111/2111/211/2/1}
 Group   3 Type H   : 5s2p1d contracted to 3s1p1d pattern {311/2/1}

Atom   0C    basis set group =>   1
Atom   1C    basis set group =>   1
Atom   2C    basis set group =>   1
Atom   3O    basis set group =>   2
Atom   4C    basis set group =>   1
Atom   5O    basis set group =>   2
Atom   6C    basis set group =>   1
Atom   7H    basis set group =>   3
Atom   8H    basis set group =>   3
Atom   9H    basis set group =>   3
Atom  10H    basis set group =>   3
Atom  11H    basis set group =>   3
Atom  12H    basis set group =>   3
Atom  13H    basis set group =>   3
Atom  14H    basis set group =>   3
Atom  15H    basis set group =>   3
Atom  16H    basis set group =>   3

Checking for AutoStart:
The File: sp_gas.gbw exists
Trying to determine its content:
     ... Fine, the file contains calculation information
     ... Fine, the calculation information was read
     ... Fine, the file contains a basis set
     ... Fine, the basis set was read
     ... Fine, the file contains a geometry
     ... Fine, the geometry was read
     ... Fine, the file contains a set of orbitals
     ... Fine, the orbitals can be read
     => possible old guess file was deleted
     => GBW file was renamed to GES file
     => GES file is set as startup file
     => Guess is set to MORead
     ... now leaving AutoStart

------------------------------------------------------------------------------
                             ORCA STARTUP CALCULATIONS
                           -- RI-GTO INTEGRALS CHOSEN --
------------------------------------------------------------------------------
------------------------------------------------------------------------------
                   ___                                                        
                  /   \      - P O W E R E D   B Y -                         
                 /     \                                                     
                 |  |  |   _    _      __       _____    __    __             
                 |  |  |  | |  | |    /  \     |  _  \  |  |  /  |          
                  \  \/   | |  | |   /    \    | | | |  |  | /  /          
                 / \  \   | |__| |  /  /\  \   | |_| |  |  |/  /          
                |  |  |   |  __  | /  /__\  \  |    /   |      \           
                |  |  |   | |  | | |   __   |  |    \   |  |\   \          
                \     /   | |  | | |  |  |  |  | |\  \  |  | \   \       
                 \___/    |_|  |_| |__|  |__|  |_| \__\ |__|  \__/        
                                                                              
                      - O R C A' S   B I G   F R I E N D -                    
                                      &                                       
                       - I N T E G R A L  F E E D E R -                       
                                                                              
 v1 FN, 2020, v2 2021, v3 2022-2024                                           
------------------------------------------------------------------------------


----------------------
SHARK INTEGRAL PACKAGE
----------------------

Number of atoms                             ...     17
Number of basis functions                   ...    193
Number of shells                            ...     95
Maximum angular momentum                    ...      2
Integral batch strategy                     ... SHARK/LIBINT Hybrid
RI-J (if used) integral strategy            ... SPLIT-RIJ (Revised 2003 algorithm where possible)
Printlevel                                  ...      1
Contraction scheme used                     ... SEGMENTED contraction
Prescreening option                         ... SCHWARTZ
   Thresh                                   ... 1.000e-10
   Tcut                                     ... 1.000e-11
   Tpresel                                  ... 1.000e-11 
Coulomb Range Separation                    ... NOT USED
Exchange Range Separation                   ... NOT USED
Multipole approximations                    ... NOT USED
Finite Nucleus Model                        ... NOT USED
CABS basis                                  ... NOT available
Auxiliary Coulomb fitting basis             ... AVAILABLE
   # of basis functions in Aux-J            ...    453
   # of shells in Aux-J                     ...    155
   Maximum angular momentum in Aux-J        ...      4
Auxiliary J/K fitting basis                 ... NOT available
Auxiliary Correlation fitting basis         ... NOT available
Auxiliary 'external' fitting basis          ... NOT available

Checking pre-screening integrals            ... done (  0.0 sec) Dimension = 95
Check shell pair data                       ... done (  0.0 sec)
Shell pair information
Shell pair cut-off parameter TPreSel        ...   1.0e-11
Total number of shell pairs                 ...      4560
Shell pairs after pre-screening             ...      4187
Total number of primitive shell pairs       ...     16115
Primitive shell pairs kept                  ...     10734
          la=0 lb=0:   1389 shell pairs
          la=1 lb=0:   1553 shell pairs
          la=1 lb=1:    456 shell pairs
          la=2 lb=0:    475 shell pairs
          la=2 lb=1:    269 shell pairs
          la=2 lb=2:     45 shell pairs

Calculating one electron integrals          ... done (  0.0 sec)
Calculating RI/J V-Matrix + Cholesky decomp.... done (  0.1 sec)
Calculating Nuclear repulsion               ... done (  0.0 sec) ENN=    326.431827891132 Eh

Diagonalization of the overlap matrix:
Smallest eigenvalue                        ... 2.801e-04
Time for diagonalization                   ...    0.004 sec
Threshold for overlap eigenvalues          ... 1.000e-07
Number of eigenvalues below threshold      ... 0
Time for construction of square roots      ...    0.013 sec
Total time needed                          ...    0.024 sec

-------------------
DFT GRID GENERATION
-------------------

General Integration Accuracy     IntAcc      ... 4.388
Radial Grid Type                 RadialGrid  ... OptM3 with GC (2021)
Angular Grid (max. ang.)         AngularGrid ... 4 (Lebedev-302)
Angular grid pruning method      GridPruning ... 4 (adaptive)
Weight generation scheme         WeightScheme... mBecke (2022)
Basis function cutoff            BFCut       ... 1.0000e-10
Integration weight cutoff        WCut        ... 1.0000e-14
Partially contracted basis set               ... off
Rotationally invariant grid construction     ... off
Angular grids for H and He will be reduced by one unit
Diffuse basis detected: some atoms will have their outermost
                        angular grid increased by 1.

Total number of grid points                  ...    75020
Total number of batches                      ...     1181
Average number of points per batch           ...       63
Average number of grid points per atom       ...     4413
Initializing property integral containers    ... done (  0.0 sec)

SHARK setup successfully completed in   0.9 seconds

Maximum memory used throughout the entire STARTUP-calculation: 33.8 MB
-------------------------------------------------------------------------------
                                 ORCA GUESS
                   Start orbitals & Density for SCF / CASSCF
-------------------------------------------------------------------------------

------------
SCF SETTINGS
------------
Hamiltonian:
 Density Functional     Method          .... DFT(GTOs)
  Functional kind                       .... Exchange
  Functional name                       .... Re-regularized SCAN exchange by Furness et al
  Functional family                     .... MGGA
  Functional refs                              
    [ 0] J. W. Furness, A. D. Kaplan, J. Ning, J. P. Perdew, and J. Sun.,  J. Phys. Chem. Lett. 11, 8208-8215 (2020), doi: 10.1021/acs.jpclett.0c02405
    [ 1] J. W. Furness, A. D. Kaplan, J. Ning, J. P. Perdew, and J. Sun.,  J. Phys. Chem. Lett. 11, 9248-9248 (2020), doi: 10.1021/acs.jpclett.0c03077
  Functional external parameters        .... 6
    Parameter  0 _c1        =  6.670000e-01 : c1 parameter        
    Parameter  1 _c2        =  8.000000e-01 : c2 parameter        
    Parameter  2 _d         =  1.240000e+00 : d parameter         
    Parameter  3 _k1        =  6.500000e-02 : k1 parameter        
    Parameter  4 _eta       =  1.000000e-03 : eta parameter       
    Parameter  5 _dp2       =  3.610000e-01 : dp2 parameter       
  Functional kind                       .... Correlation
  Functional name                       .... Re-regularized SCAN correlation by Furness et al
  Functional family                     .... MGGA
  Functional refs                              
    [ 0] J. W. Furness, A. D. Kaplan, J. Ning, J. P. Perdew, and J. Sun.,  J. Phys. Chem. Lett. 11, 8208-8215 (2020), doi: 10.1021/acs.jpclett.0c02405
    [ 1] J. W. Furness, A. D. Kaplan, J. Ning, J. P. Perdew, and J. Sun.,  J. Phys. Chem. Lett. 11, 9248-9248 (2020), doi: 10.1021/acs.jpclett.0c03077
  Functional external parameters        .... 1
    Parameter  0 _eta       =  1.000000e-03 : Regularization parameter
 Gradients option       PostSCFGGA      .... off
 RI-approximation to the Coulomb term is turned on
   Number of AuxJ basis functions       .... 453


General Settings:
 Integral files         IntName         .... sp_gas
 Hartree-Fock type      HFTyp           .... RHF
 Total Charge           Charge          ....    0
 Multiplicity           Mult            ....    1
 Number of Electrons    NEL             ....   56
 Basis Dimension        Dim             ....  193
 Nuclear Repulsion      ENuc            ....    326.4318278911 Eh

Convergence Acceleration:
 AO-DIIS                CNVDIIS         .... on
   Start iteration      DIISMaxIt       ....    12
   Startup error        DIISStart       ....  0.200000
   # of expansion vecs  DIISMaxEq       ....     5
   Bias factor          DIISBfac        ....   1.050
   Max. coefficient     DIISMaxC        ....  10.000
 MO-DIIS                CNVKDIIS        .... off
 Trust-Rad. Augm. Hess. CNVTRAH         .... auto
   Auto Start mean grad. ratio tolernc. ....  1.125000
   Auto Start start iteration           ....     1
   Auto Start num. interpolation iter.  ....    10
   Max. Number of Micro iterations      ....    24
   Max. Number of Macro iterations      .... Maxiter - #DIIS iter
   Number of Davidson start vectors     ....     2
   Converg. threshold    (grad. norm)   ....   3.330e-04
   Grad. Scal. Fac. for Micro threshold ....   0.100
   Minimum threshold for Micro iter.    ....   1.000e-02
   NR start threshold (gradient norm)   ....   1.000e-04
   Initial trust radius                 ....   0.400
   Minimum AH scaling param. (alpha)    ....   1.000
   Maximum AH scaling param. (alpha)    .... 1000.000
   Quad. conv. algorithm                .... NR
   White noise on init. David. guess    .... on
   Maximum white noise                  ....   0.010
   Pseudo random numbers                .... off
   Inactive MOs                         .... canonical
   Orbital update algorithm             .... Taylor
   Preconditioner                       .... Diag
   Full preconditioner red. dimension   ....   250
   COSX micro iterations for RIJONX calc.... off
 SOSCF                  CNVSOSCF        .... on
   Start iteration      SOSCFMaxIt      ....   150
   Startup grad/error   SOSCFStart      ....  0.003300
   Hessian update       SOSCFHessUp     .... L-BFGS
 Level Shifting         CNVShift        .... on
   Level shift para.    LevelShift      ....    0.2500
   Turn off err/grad.   ShiftErr        ....    0.0010
 Zerner damping         CNVZerner       .... off
 Static damping         CNVDamp         .... on
   Fraction old density DampFac         ....    0.7000
   Max. Damping (<1)    DampMax         ....    0.9800
   Min. Damping (>=0)   DampMin         ....    0.0000
   Turn off err/grad.   DampErr         ....    0.1000

SCF Procedure:
 Maximum # iterations   MaxIter         ....   125
 SCF integral mode      SCFMode         .... Direct
   Integral package                     .... SHARK and LIBINT hybrid scheme
 Reset frequency        DirectResetFreq ....    20
 Integral Threshold     Thresh          ....  1.000e-10 Eh
 Primitive CutOff       TCut            ....  1.000e-11 Eh

Convergence Tolerance:
 Convergence Check Mode ConvCheckMode   .... Total+1el-Energy
 Convergence forced     ConvForced      .... 0
 Energy Change          TolE            ....  1.000e-06 Eh
 1-El. energy change                    ....  1.000e-03 Eh
 Orbital Gradient       TolG            ....  3.330e-04
 Orbital Rotation angle TolX            ....  3.330e-04
 DIIS Error             TolErr          ....  1.000e-06

---------------------
INITIAL GUESS: MOREAD
---------------------
Guess MOs are being read from file: sp_gas.ges
Input Geometry matches current geometry (good)
Atom 0: N(Shells)= 9 and 6 - projection required
Input basis set needs projection
NBasis(read)= 118
NBasis(calc)= 193
Basis set overlap was calculated
Using GuessMode=FMatrix for the initial guess
C*T matrix was formed
Effective Fockian was calculated
Effective Fockian was diagonalized
Initial density was built
                      ------------------
                      INITIAL GUESS DONE (   0.0 sec)
                      ------------------
             **** ENERGY FILE WAS UPDATED (sp_gas.en.tmp) ****
Finished Guess after   0.2 sec
Maximum memory used throughout the entire GUESS-calculation: 13.2 MB

-------------------------------------------------------------------------------------------
                                      ORCA LEAN-SCF
                              memory conserving SCF solver
-------------------------------------------------------------------------------------------

----------------------------------------D-I-I-S--------------------------------------------
Iteration    Energy (Eh)           Delta-E    RMSDP     MaxDP     DIISErr   Damp  Time(sec)
-------------------------------------------------------------------------------------------
               ***  Starting incremental Fock matrix formation  ***
    1    -346.7681512139182018     0.00e+00  3.58e-03  1.19e-01  6.27e-01  0.700   2.3
    2    -346.8207890344758084    -5.26e-02  2.99e-03  8.97e-02  4.41e-01  0.700   1.9
    3    -346.8580004989229906    -3.72e-02  2.21e-03  6.39e-02  3.09e-01  0.700   1.8
    4    -346.8841272032618122    -2.61e-02  1.59e-03  4.52e-02  2.16e-01  0.700   1.8
                               ***Turning on AO-DIIS***
    5    -346.9024538595189711    -1.83e-02  1.16e-03  3.26e-02  1.52e-01  0.700   1.8
    6    -346.9153002118657128    -1.28e-02  8.21e-04  2.31e-02  1.06e-01  0.700   1.8
    7    -346.9243057321834272    -9.01e-03  5.80e-04  1.63e-02  7.42e-02  0.700   1.8
    8    -346.9306152008704771    -6.31e-03  1.36e-03  3.80e-02  5.20e-02  0.000   1.9
                              *** Initializing SOSCF ***
---------------------------------------S-O-S-C-F--------------------------------------
Iteration    Energy (Eh)           Delta-E    RMSDP     MaxDP     MaxGrad    Time(sec)
--------------------------------------------------------------------------------------
    9    -346.9453564259192149    -1.47e-02  9.07e-06  2.72e-04  1.00e-04     1.8
               *** Restarting incremental Fock matrix formation ***
   10    -346.9453564557513232    -2.98e-08  4.88e-06  7.51e-05  2.83e-05     2.1
                  *** Gradient check signals convergence ***

               *****************************************************
               *                     SUCCESS                       *
               *           SCF CONVERGED AFTER  10 CYCLES          *
               *****************************************************

             **** ENERGY FILE WAS UPDATED (sp_gas.en.tmp) ****

----------------
TOTAL SCF ENERGY
----------------

Total Energy       :       -346.94535645575132 Eh           -9440.86311 eV

Components:
Nuclear Repulsion  :        326.43182789113195 Eh            8882.66162 eV
Electronic Energy  :       -673.37718434688327 Eh          -18323.52474 eV
One Electron Energy:      -1118.24378008453823 Eh          -30428.96023 eV
Two Electron Energy:        444.86659573765496 Eh           12105.43550 eV

Virial components:
Potential Energy   :       -692.48076468682723 Eh          -18843.35959 eV
Kinetic Energy     :        345.53540823107591 Eh            9402.49647 eV
Virial Ratio       :          2.00408047392854

DFT components:
N(Alpha)           :       28.000002627584 electrons
N(Beta)            :       28.000002627584 electrons
N(Total)           :       56.000005255168 electrons
E(X)               :      -46.157837950966 Eh       
E(C)               :       -1.789717689219 Eh       
E(XC)              :      -47.947555640185 Eh       

---------------
SCF CONVERGENCE
---------------

  Last Energy change         ...    2.9832e-08  Tolerance :   1.0000e-06
  Last MAX-Density change    ...    7.5087e-05  Tolerance :   1.0000e-05
  Last RMS-Density change    ...    4.8814e-06  Tolerance :   1.0000e-06
  Last DIIS Error            ...    1.0016e-04  Tolerance :   1.0000e-06
  Last Orbital Gradient      ...    2.8326e-05  Tolerance :   3.3300e-04
  Last Orbital Rotation      ...    1.1049e-04  Tolerance :   3.3300e-04


----------------
ORBITAL ENERGIES
----------------

  NO   OCC          E(Eh)            E(eV) 
   0   2.0000     -18.993699      -516.8448 
   1   2.0000     -18.924903      -514.9728 
   2   2.0000     -10.154709      -276.3237 
   3   2.0000     -10.100663      -274.8530 
   4   2.0000     -10.035857      -273.0896 
   5   2.0000     -10.022719      -272.7321 
   6   2.0000     -10.022571      -272.7280 
   7   2.0000      -1.067523       -29.0488 
   8   2.0000      -0.974631       -26.5211 
   9   2.0000      -0.769919       -20.9506 
  10   2.0000      -0.708507       -19.2794 
  11   2.0000      -0.662650       -18.0316 
  12   2.0000      -0.613137       -16.6843 
  13   2.0000      -0.497896       -13.5484 
  14   2.0000      -0.462827       -12.5942 
  15   2.0000      -0.444807       -12.1038 
  16   2.0000      -0.443433       -12.0664 
  17   2.0000      -0.407282       -11.0827 
  18   2.0000      -0.396004       -10.7758 
  19   2.0000      -0.390284       -10.6202 
  20   2.0000      -0.371699       -10.1144 
  21   2.0000      -0.364185        -9.9100 
  22   2.0000      -0.344702        -9.3798 
  23   2.0000      -0.329291        -8.9605 
  24   2.0000      -0.320161        -8.7120 
  25   2.0000      -0.303148        -8.2491 
  26   2.0000      -0.269746        -7.3402 
  27   2.0000      -0.229496        -6.2449 
  28   0.0000      -0.013317        -0.3624 
  29   0.0000       0.075396         2.0516 
  30   0.0000       0.093145         2.5346 
  31   0.0000       0.111362         3.0303 
  32   0.0000       0.132620         3.6088 
  33   0.0000       0.135485         3.6867 
  34   0.0000       0.143128         3.8947 
  35   0.0000       0.153694         4.1822 
  36   0.0000       0.156646         4.2626 
  37   0.0000       0.169108         4.6017 
  38   0.0000       0.172628         4.6975 
*Only the first 10 virtual orbitals were printed.

                    ********************************
                    * MULLIKEN POPULATION ANALYSIS *
                    ********************************

-----------------------
MULLIKEN ATOMIC CHARGES
-----------------------
   0 C :   -0.504646
   1 C :    0.056203
   2 C :   -0.503840
   3 O :   -0.166947
   4 C :    0.437333
   5 O :   -0.441095
   6 C :   -0.526148
   7 H :    0.152465
   8 H :    0.192869
   9 H :    0.145271
  10 H :    0.151912
  11 H :    0.192535
  12 H :    0.145408
  13 H :    0.152482
  14 H :    0.172929
  15 H :    0.171102
  16 H :    0.172168
Sum of atomic charges:    0.0000000

--------------------------------
MULLIKEN REDUCED ORBITAL CHARGES
--------------------------------
  0 C s       :     3.338561  s :     3.338561
      pz      :     1.011457  p :     3.140577
      px      :     1.075345
      py      :     1.053776
      dz2     :     0.007220  d :     0.025508
      dxz     :     0.003812
      dyz     :     0.005021
      dx2y2   :     0.007451
      dxy     :     0.002003

  1 C s       :     3.130871  s :     3.130871
      pz      :     1.041820  p :     2.749756
      px      :     0.750340
      py      :     0.957597
      dz2     :     0.011411  d :     0.063171
      dxz     :     0.012027
      dyz     :     0.009643
      dx2y2   :     0.017589
      dxy     :     0.012501

  2 C s       :     3.337929  s :     3.337929
      pz      :     1.115874  p :     3.140396
      px      :     1.090700
      py      :     0.933823
      dz2     :     0.005083  d :     0.025515
      dxz     :     0.003026
      dyz     :     0.006580
      dx2y2   :     0.007862
      dxy     :     0.002964

  3 O s       :     3.696833  s :     3.696833
      pz      :     1.603133  p :     4.443955
      px      :     1.118852
      py      :     1.721970
      dz2     :     0.007152  d :     0.026159
      dxz     :     0.008644
      dyz     :     0.005481
      dx2y2   :     0.000162
      dxy     :     0.004720

  4 C s       :     3.112657  s :     3.112657
      pz      :     0.759707  p :     2.323568
      px      :     0.808699
      py      :     0.755162
      dz2     :     0.030404  d :     0.126442
      dxz     :     0.046779
      dyz     :     0.021603
      dx2y2   :     0.011795
      dxy     :     0.015861

  5 O s       :     3.839851  s :     3.839851
      pz      :     1.344187  p :     4.579897
      px      :     1.802703
      py      :     1.433007
      dz2     :     0.009834  d :     0.021348
      dxz     :    -0.001058
      dyz     :     0.008830
      dx2y2   :     0.002065
      dxy     :     0.001678

  6 C s       :     3.341680  s :     3.341680
      pz      :     1.083005  p :     3.159988
      px      :     0.988583
      py      :     1.088401
      dz2     :     0.003815  d :     0.024480
      dxz     :     0.005507
      dyz     :     0.005157
      dx2y2   :     0.005027
      dxy     :     0.004974

  7 H s       :     0.829316  s :     0.829316
      pz      :     0.003704  p :     0.018218
      px      :     0.003932
      py      :     0.010582

  8 H s       :     0.788552  s :     0.788552
      pz      :     0.009047  p :     0.018579
      px      :     0.005366
      py      :     0.004166

  9 H s       :     0.836252  s :     0.836252
      pz      :     0.003801  p :     0.018477
      px      :     0.010909
      py      :     0.003768

 10 H s       :     0.831161  s :     0.831161
      pz      :     0.009152  p :     0.016927
      px      :     0.003755
      py      :     0.004020

 11 H s       :     0.788890  s :     0.788890
      pz      :     0.009215  p :     0.018576
      px      :     0.005319
      py      :     0.004041

 12 H s       :     0.836112  s :     0.836112
      pz      :     0.003871  p :     0.018481
      px      :     0.010738
      py      :     0.003872

 13 H s       :     0.829302  s :     0.829302
      pz      :     0.007837  p :     0.018216
      px      :     0.004711
      py      :     0.005667

 14 H s       :     0.808461  s :     0.808461
      pz      :     0.004128  p :     0.018610
      px      :     0.005575
      py      :     0.008906

 15 H s       :     0.810729  s :     0.810729
      pz      :     0.008838  p :     0.018169
      px      :     0.003390
      py      :     0.005940

 16 H s       :     0.809490  s :     0.809490
      pz      :     0.007217  p :     0.018343
      px      :     0.005719
      py      :     0.005406


------------------------
MULLIKEN OVERLAP CHARGES
------------------------
B(  0-C ,  1-C ) :   0.5596 B(  0-C ,  2-C ) :  -0.2430 B(  0-C ,  3-O ) :  -0.1348 
B(  0-C ,  7-H ) :   0.7881 B(  0-C ,  8-H ) :   0.8555 B(  0-C ,  9-H ) :   0.7896 
B(  0-C , 10-H ) :  -0.0567 B(  1-C ,  2-C ) :   0.5550 B(  1-C ,  3-O ) :   0.3908 
B(  1-C ,  4-C ) :  -0.1935 B(  1-C ,  7-H ) :  -0.0663 B(  1-C ,  8-H ) :  -0.0897 
B(  1-C ,  9-H ) :  -0.0642 B(  1-C , 10-H ) :   0.8330 B(  1-C , 11-H ) :  -0.0903 
B(  1-C , 12-H ) :  -0.0626 B(  1-C , 13-H ) :  -0.0672 B(  2-C ,  3-O ) :  -0.1330 
B(  2-C , 10-H ) :  -0.0565 B(  2-C , 11-H ) :   0.8552 B(  2-C , 12-H ) :   0.7872 
B(  2-C , 13-H ) :   0.7893 B(  3-O ,  4-C ) :   0.3936 B(  3-O ,  5-O ) :  -0.2230 
B(  3-O ,  6-C ) :  -0.0871 B(  3-O , 10-H ) :  -0.1289 B(  4-C ,  5-O ) :   0.9905 
B(  4-C ,  6-C ) :   0.5173 B(  4-C , 15-H ) :  -0.1311 B(  4-C , 16-H ) :  -0.0658 
B(  5-O ,  6-C ) :  -0.1140 B(  6-C , 14-H ) :   0.7665 B(  6-C , 15-H ) :   0.8626 
B(  6-C , 16-H ) :   0.8255 


                     *******************************
                     * LOEWDIN POPULATION ANALYSIS *
                     *******************************

----------------------
LOEWDIN ATOMIC CHARGES
----------------------
   0 C :   -0.383088
   1 C :    0.072107
   2 C :   -0.383286
   3 O :   -0.594749
   4 C :    0.359524
   5 O :   -0.448623
   6 C :   -0.335325
   7 H :    0.161232
   8 H :    0.178927
   9 H :    0.159047
  10 H :    0.183997
  11 H :    0.178847
  12 H :    0.159140
  13 H :    0.161139
  14 H :    0.180327
  15 H :    0.173610
  16 H :    0.177175

-------------------------------
LOEWDIN REDUCED ORBITAL CHARGES
-------------------------------
  0 C s       :     2.967631  s :     2.967631
      pz      :     1.106862  p :     3.355018
      px      :     1.126705
      py      :     1.121451
      dz2     :     0.016747  d :     0.060439
      dxz     :     0.008643
      dyz     :     0.011572
      dx2y2   :     0.019042
      dxy     :     0.004435

  1 C s       :     2.837751  s :     2.837751
      pz      :     1.075216  p :     2.955507
      px      :     0.829445
      py      :     1.050846
      dz2     :     0.023679  d :     0.134635
      dxz     :     0.028533
      dyz     :     0.018848
      dx2y2   :     0.038239
      dxy     :     0.025337

  2 C s       :     2.967563  s :     2.967563
      pz      :     1.163957  p :     3.355276
      px      :     1.140012
      py      :     1.051307
      dz2     :     0.012239  d :     0.060448
      dxz     :     0.007519
      dyz     :     0.014835
      dx2y2   :     0.019284
      dxy     :     0.006571

  3 O s       :     3.460423  s :     3.460423
      pz      :     1.630860  p :     4.659165
      px      :     1.337297
      py      :     1.691008
      dz2     :     0.079138  d :     0.475161
      dxz     :     0.136264
      dyz     :     0.039668
      dx2y2   :     0.125096
      dxy     :     0.094995

  4 C s       :     2.733808  s :     2.733808
      pz      :     0.940529  p :     2.631829
      px      :     0.937107
      py      :     0.754194
      dz2     :     0.068682  d :     0.274839
      dxz     :     0.104212
      dyz     :     0.046921
      dx2y2   :     0.024270
      dxy     :     0.030754

  5 O s       :     3.550753  s :     3.550753
      pz      :     1.477289  p :     4.678055
      px      :     1.752757
      py      :     1.448009
      dz2     :     0.064271  d :     0.219815
      dxz     :     0.061972
      dyz     :     0.052094
      dx2y2   :     0.014332
      dxy     :     0.027145

  6 C s       :     2.957754  s :     2.957754
      pz      :     1.130936  p :     3.320848
      px      :     1.047581
      py      :     1.142330
      dz2     :     0.008796  d :     0.056724
      dxz     :     0.012369
      dyz     :     0.013785
      dx2y2   :     0.010210
      dxy     :     0.011564

  7 H s       :     0.795258  s :     0.795258
      pz      :     0.008510  p :     0.043510
      px      :     0.008774
      py      :     0.026227

  8 H s       :     0.775089  s :     0.775089
      pz      :     0.023312  p :     0.045985
      px      :     0.012900
      py      :     0.009773

  9 H s       :     0.796724  s :     0.796724
      pz      :     0.008734  p :     0.044229
      px      :     0.027096
      py      :     0.008398

 10 H s       :     0.776779  s :     0.776779
      pz      :     0.022246  p :     0.039224
      px      :     0.007294
      py      :     0.009684

 11 H s       :     0.775177  s :     0.775177
      pz      :     0.023767  p :     0.045976
      px      :     0.012745
      py      :     0.009464

 12 H s       :     0.796623  s :     0.796623
      pz      :     0.008727  p :     0.044238
      px      :     0.026746
      py      :     0.008764

 13 H s       :     0.795352  s :     0.795352
      pz      :     0.019468  p :     0.043509
      px      :     0.010873
      py      :     0.013168

 14 H s       :     0.775166  s :     0.775166
      pz      :     0.009042  p :     0.044507
      px      :     0.013000
      py      :     0.022465

 15 H s       :     0.782094  s :     0.782094
      pz      :     0.022351  p :     0.044296
      px      :     0.007609
      py      :     0.014336

 16 H s       :     0.778809  s :     0.778809
      pz      :     0.018080  p :     0.044016
      px      :     0.013424
      py      :     0.012512


---------------------------------
LOEWDIN BOND ORDERS (THRESH 0.050000)
---------------------------------
B(  0-C ,  1-C ) :   1.0554 B(  0-C ,  2-C ) :   0.0697 B(  0-C ,  3-O ) :   0.1415 
B(  0-C ,  7-H ) :   0.9180 B(  0-C ,  8-H ) :   0.9035 B(  0-C ,  9-H ) :   0.9135 
B(  1-C ,  2-C ) :   1.0555 B(  1-C ,  3-O ) :   1.2689 B(  1-C ,  4-C ) :   0.0718 
B(  1-C , 10-H ) :   0.8008 B(  2-C ,  3-O ) :   0.1412 B(  2-C , 11-H ) :   0.9035 
B(  2-C , 12-H ) :   0.9135 B(  2-C , 13-H ) :   0.9181 B(  3-O ,  4-C ) :   1.4578 
B(  3-O ,  5-O ) :   0.4516 B(  3-O ,  6-C ) :   0.1894 B(  3-O , 10-H ) :   0.0979 
B(  4-C ,  5-O ) :   2.1670 B(  4-C ,  6-C ) :   0.9672 B(  5-O ,  6-C ) :   0.1899 
B(  6-C , 14-H ) :   0.8985 B(  6-C , 15-H ) :   0.9028 B(  6-C , 16-H ) :   0.9043 


------------------------------------------
LOEWDIN REDUCED ORBITAL POPULATIONS PER MO
-------------------------------------------
THRESHOLD FOR PRINTING IS 0.1%%
                      0         1         2         3         4         5   
                 -18.99370 -18.92490 -10.15471 -10.10066 -10.03586 -10.02272
                   2.00000   2.00000   2.00000   2.00000   2.00000   2.00000
                  --------  --------  --------  --------  --------  --------
 1 C  s               0.0       0.0       0.0      99.4       0.0       0.0
 2 C  s               0.0       0.0       0.0       0.0       0.0      99.7
 3 O  s              99.9       0.0       0.0       0.0       0.0       0.0
 3 O  dxz             0.0       0.0       0.2       0.0       0.0       0.0
 3 O  dx2y2           0.0       0.0       0.1       0.2       0.0       0.0
 4 C  s               0.0       0.0      98.9       0.0       0.0       0.0
 5 O  s               0.0      99.9       0.0       0.0       0.0       0.0
 5 O  pz              0.0       0.0       0.2       0.0       0.0       0.0
 5 O  dz2             0.0       0.0       0.2       0.0       0.0       0.0
 5 O  dyz             0.0       0.0       0.1       0.0       0.0       0.0
 6 C  s               0.0       0.0       0.0       0.0      99.7       0.0

                      6         7         8         9        10        11   
                 -10.02257  -1.06752  -0.97463  -0.76992  -0.70851  -0.66265
                   2.00000   2.00000   2.00000   2.00000   2.00000   2.00000
                  --------  --------  --------  --------  --------  --------
 0 C  s              99.7       0.4       0.1      11.7       4.3      22.5
 0 C  pz              0.0       0.3       0.2       1.4       0.1       0.1
 0 C  px              0.0       0.5       0.0       0.1       0.0       0.0
 0 C  py              0.0       0.1       0.0       1.0       0.2       0.7
 1 C  s               0.0       4.2       1.9      21.2       1.9       0.0
 1 C  pz              0.1       0.0       0.2       0.6       0.9       2.5
 1 C  px              0.0       5.1       1.3       1.0       2.3       0.2
 1 C  py              0.0       0.1       0.1       0.2       0.3      14.6
 1 C  dz2             0.0       0.1       0.0       0.0       0.0       0.1
 1 C  dyz             0.0       0.0       0.0       0.0       0.0       0.1
 1 C  dx2y2           0.0       0.2       0.1       0.0       0.1       0.1
 2 C  s               0.0       0.4       0.1      11.7       4.4      22.4
 2 C  pz              0.0       0.0       0.1       0.0       0.0       0.1
 2 C  px              0.0       0.3       0.0       0.0       0.0       0.0
 2 C  py              0.0       0.6       0.2       2.5       0.2       0.7
 3 O  s               0.0      42.0      15.7       0.8       2.1       0.0
 3 O  pz              0.0       2.2       0.4       0.2       0.1       0.1
 3 O  px              0.0       0.1       0.7      13.1       1.1       0.0
 3 O  py              0.0       0.3       0.0       0.1       0.0       0.7
 3 O  dz2             0.0       0.0       0.6       0.1       0.6       0.1
 3 O  dxz             0.0       0.3       0.5       0.8       0.0       0.1
 3 O  dyz             0.0       0.1       0.2       0.0       0.0       0.1
 3 O  dx2y2           0.0       0.3       0.0       0.2       1.3       0.1
 3 O  dxy             0.0       0.0       0.1       0.2       0.0       0.5
 4 C  s               0.0      16.4       4.2       2.8       3.5       0.0
 4 C  pz              0.0       0.2      19.6       3.8       2.1       0.0
 4 C  px              0.0       4.6       0.9       1.5      10.5       0.0
 4 C  py              0.0       0.0       2.9       0.7       0.8       0.2
 4 C  dz2             0.0       0.3       0.7       0.0       0.1       0.0
 4 C  dxz             0.0       0.3       0.6       0.1       0.1       0.0
 4 C  dyz             0.0       0.3       0.4       0.0       0.0       0.0
 4 C  dx2y2           0.0       0.1       0.1       0.1       0.1       0.0
 5 O  s               0.0      11.7      42.7       1.0       1.4       0.0
 5 O  pz              0.0       2.6       3.0       0.2       0.4       0.0
 5 O  px              0.0       0.0       0.2       0.1       0.4       0.0
 5 O  py              0.0       0.4       0.6       0.1       0.1       0.0
 5 O  dz2             0.0       0.8       0.1       0.2       0.0       0.0
 5 O  dxz             0.0       0.1       0.2       0.1       0.5       0.0
 5 O  dyz             0.0       0.5       0.0       0.2       0.1       0.0
 5 O  dxy             0.0       0.0       0.0       0.0       0.1       0.1
 6 C  s               0.0       1.1       0.2       4.5      32.8       0.0
 6 C  pz              0.0       0.1       0.4       0.0       0.0       0.0
 6 C  px              0.0       1.8       0.1       0.6       0.2       0.0
 7 H  s               0.0       0.0       0.0       1.6       0.7       5.7
 7 H  py              0.0       0.0       0.0       0.1       0.1       0.5
 8 H  s               0.0       0.0       0.0       1.6       0.7       4.7
 8 H  pz              0.0       0.0       0.0       0.1       0.0       0.3
 9 H  s               0.0       0.0       0.0       1.7       0.9       5.1
 9 H  px              0.0       0.0       0.0       0.1       0.1       0.4
10 H  s               0.0       0.2       0.2       3.5       0.3       0.0
10 H  pz              0.0       0.0       0.0       0.2       0.0       0.0
11 H  s               0.0       0.0       0.0       1.6       0.7       4.7
11 H  pz              0.0       0.0       0.0       0.1       0.0       0.3
12 H  s               0.0       0.0       0.0       1.7       1.0       5.1
12 H  px              0.0       0.0       0.0       0.1       0.1       0.4
13 H  s               0.0       0.0       0.0       1.6       0.7       5.7
13 H  pz              0.0       0.0       0.0       0.1       0.0       0.3
13 H  py              0.0       0.0       0.0       0.0       0.0       0.1
14 H  s               0.0       0.1       0.0       0.6       6.6       0.0
14 H  px              0.0       0.0       0.0       0.0       0.2       0.0
14 H  py              0.0       0.0       0.0       0.0       0.4       0.0
15 H  s               0.0       0.1       0.0       0.9       6.3       0.0
15 H  pz              0.0       0.0       0.0       0.1       0.4       0.0
15 H  py              0.0       0.0       0.0       0.0       0.2       0.0
16 H  s               0.0       0.1       0.0       0.6       6.4       0.0
16 H  pz              0.0       0.0       0.0       0.0       0.3       0.0
16 H  px              0.0       0.0       0.0       0.0       0.2       0.0
16 H  py              0.0       0.0       0.0       0.0       0.1       0.0

                     12        13        14        15        16        17   
                  -0.61314  -0.49790  -0.46283  -0.44481  -0.44343  -0.40728
                   2.00000   2.00000   2.00000   2.00000   2.00000   2.00000
                  --------  --------  --------  --------  --------  --------
 0 C  s               5.7       1.3       0.7       0.4       0.2       0.0
 0 C  pz              1.4       7.0       0.2       1.7       0.7       1.8
 0 C  px              0.5       0.3       3.6       0.0       3.9       0.9
 0 C  py              0.0       1.5       5.9       1.8       0.1      10.6
 0 C  dyz             0.0       0.1       0.1       0.0       0.0       0.0
 1 C  s               4.0       6.3       1.8       0.3       0.0       0.2
 1 C  pz              6.8       2.6      10.8       0.0       0.9       5.8
 1 C  px              3.3      11.8       0.7       5.7       0.5       0.8
 1 C  py              1.6       0.1       1.7       0.3       3.3       1.0
 1 C  dxz             0.0       0.1       0.0       0.0       0.0       0.2
 1 C  dx2y2           0.2       0.1       0.0       0.0       0.0       0.0
 1 C  dxy             0.0       0.0       0.0       0.0       0.1       0.0
 2 C  s               5.6       1.3       0.8       0.0       0.5       0.1
 2 C  pz              0.6       1.2       2.5       0.2       0.4       9.9
 2 C  px              0.3       0.9       2.0       2.6       1.1       0.3
 2 C  py              1.1       6.7       5.6       0.8       2.5       2.8
 2 C  dx2y2           0.0       0.1       0.1       0.0       0.0       0.0
 3 O  s               0.5       2.0       3.8       0.1       0.0       0.6
 3 O  pz              4.1       0.6      21.0       0.2       4.4       5.3
 3 O  px             24.0       4.7       0.7       5.3       2.1       0.2
 3 O  py              0.1       0.0       4.4       4.6      17.4       0.6
 3 O  dz2             0.2       0.4       0.2       0.0       0.2       0.1
 3 O  dxz             0.1       0.9       0.6       0.3       0.0       0.3
 3 O  dyz             0.0       0.0       0.2       0.0       0.3       0.0
 3 O  dx2y2           0.4       1.6       0.0       0.1       0.0       0.2
 3 O  dxy             0.0       0.0       0.1       0.2       0.1       0.1
 4 C  s               2.1       4.3       0.1       2.6       0.4       0.2
 4 C  pz              2.7       0.5       0.1       1.1       4.5       1.3
 4 C  px              3.6       0.7       4.8       5.7       0.2      10.7
 4 C  py              0.3       0.2       0.3       3.3      15.3       0.6
 4 C  dz2             0.0       0.0       0.2       0.1       0.0       0.0
 4 C  dxz             0.2       0.0       0.0       0.0       0.0       0.0
 5 O  s               0.6       1.9       2.0       8.9       1.5       1.7
 5 O  pz              0.4       3.1       3.3      17.6       0.3       8.6
 5 O  px              0.5       1.0       3.3       5.4       0.3       2.4
 5 O  py              0.0       0.7       0.2       0.6      11.1       1.0
 5 O  dz2             0.2       0.3       0.1       0.2       0.4       0.2
 5 O  dxz             0.1       0.1       0.5       0.4       0.0       0.3
 5 O  dyz             0.1       0.2       0.0       0.0       0.8       0.0
 5 O  dx2y2           0.0       0.1       0.1       0.1       0.1       0.1
 5 O  dxy             0.0       0.0       0.1       0.1       0.1       0.1
 6 C  s               5.4       1.9       0.4       0.5       0.0       0.2
 6 C  pz              0.0       0.8       0.1       7.3       6.5       1.6
 6 C  px              2.1       7.4       3.4       1.6       0.5       9.7
 6 C  py              0.0       0.3       0.0       7.3       7.6       0.3
 6 C  dxz             0.0       0.1       0.0       0.1       0.0       0.1
 6 C  dx2y2           0.0       0.1       0.0       0.0       0.1       0.1
 7 H  s               1.3       1.3       2.4       1.0       0.1       4.2
 8 H  s               2.1       2.9       0.0       0.4       0.1       1.9
 9 H  s               2.2       0.2       2.0       0.1       2.0       0.2
 9 H  px              0.2       0.0       0.1       0.0       0.1       0.0
10 H  s               2.7       8.8       1.6       1.2       0.2       2.4
10 H  pz              0.1       0.4       0.0       0.1       0.0       0.0
10 H  px              0.1       0.0       0.0       0.0       0.0       0.0
11 H  s               2.0       2.9       0.0       0.1       0.4       1.7
11 H  pz              0.1       0.1       0.0       0.0       0.0       0.0
12 H  s               2.2       0.2       2.2       0.5       1.3       0.3
12 H  px              0.2       0.0       0.1       0.0       0.1       0.0
13 H  s               1.3       1.3       2.5       0.9       0.1       4.0
14 H  s               2.1       1.8       0.8       0.1       4.0       1.3
14 H  py              0.1       0.1       0.0       0.0       0.1       0.1
15 H  s               1.1       1.4       0.1       6.8       0.2       0.8
15 H  pz              0.1       0.0       0.0       0.1       0.0       0.0
16 H  s               2.3       1.9       0.6       0.2       2.1       0.8
16 H  pz              0.1       0.1       0.0       0.1       0.0       0.1
16 H  px              0.0       0.0       0.0       0.0       0.1       0.0

                     18        19        20        21        22        23   
                  -0.39600  -0.39028  -0.37170  -0.36419  -0.34470  -0.32929
                   2.00000   2.00000   2.00000   2.00000   2.00000   2.00000
                  --------  --------  --------  --------  --------  --------
 0 C  s               0.2       0.0       0.0       0.0       0.0       0.1
 0 C  pz              8.8       0.1       0.9      12.8       0.0       6.2
 0 C  px              4.1      12.8       1.8       9.7       9.4       4.4
 0 C  py              0.4       5.0       1.6       1.2       7.4       0.9
 0 C  dz2             0.0       0.0       0.0       0.1       0.0       0.2
 0 C  dxz             0.1       0.0       0.0       0.1       0.0       0.1
 0 C  dx2y2           0.1       0.2       0.1       0.0       0.3       0.0
 1 C  s               0.0       0.3       0.1       0.0       0.0       0.3
 1 C  pz              1.8       0.1       0.0       0.2       0.1       6.4
 1 C  px              0.1       1.3       0.5       0.0       0.0       4.0
 1 C  py              9.9       0.1       0.0       1.4       0.4       0.7
 1 C  dz2             0.0       0.0       0.0       0.0       0.0       0.5
 1 C  dxz             0.0       0.1       0.1       0.0       0.0       0.1
 1 C  dyz             0.0       0.0       0.0       0.0       0.0       0.2
 1 C  dx2y2           0.0       0.2       0.1       0.0       0.0       0.1
 1 C  dxy             0.0       0.1       0.0       0.2       0.0       0.0
 2 C  s               0.2       0.0       0.0       0.0       0.0       0.1
 2 C  pz              6.6       2.5       2.1      12.1       2.2       6.8
 2 C  px              3.1      16.1       1.7      10.2      12.3       4.2
 2 C  py              3.9       0.4       0.0       1.2       2.0       0.5
 2 C  dz2             0.0       0.1       0.0       0.1       0.1       0.1
 2 C  dyz             0.0       0.0       0.0       0.0       0.1       0.1
 2 C  dx2y2           0.1       0.1       0.0       0.0       0.1       0.0
 3 O  s               0.0       2.4       0.1       0.0       0.0       0.2
 3 O  pz              0.6       0.5       2.5       0.1       1.5       7.8
 3 O  px              0.1       0.0       2.6       0.0       0.1       5.2
 3 O  py              4.5       0.1       0.3       0.8       8.7       1.9
 3 O  dz2             0.0       0.4       0.0       0.1       0.0       0.2
 3 O  dxz             0.2       0.1       0.0       0.0       0.0       0.5
 3 O  dyz             0.0       0.0       0.1       0.2       0.0       0.1
 3 O  dx2y2           0.1       0.5       0.1       0.0       0.0       0.0
 3 O  dxy             1.7       0.1       0.0       0.0       0.2       0.1
 4 C  s               0.0       0.2       0.2       0.0       0.0       0.0
 4 C  pz              0.4       1.0       4.6       0.1       0.5       0.6
 4 C  px              0.1       0.9       0.1       0.0       0.0       1.4
 4 C  py              1.9       0.3       0.7       0.7       3.6       0.2
 4 C  dz2             0.0       0.0       0.1       0.0       0.0       0.1
 4 C  dxz             0.0       0.2       0.3       0.0       0.0       0.0
 4 C  dx2y2           0.0       0.0       0.1       0.0       0.0       0.1
 4 C  dxy             0.2       0.0       0.0       0.1       0.2       0.0
 5 O  s               0.0       0.4       2.5       0.0       0.0       0.9
 5 O  pz              0.2       1.3      14.4       0.6       1.0       4.9
 5 O  px              0.0       0.4       0.1       0.0       0.1       2.4
 5 O  py              2.2       0.3       2.2       3.3       4.9       0.6
 5 O  dz2             0.0       0.0       0.1       0.0       0.1       0.2
 5 O  dyz             0.0       0.0       0.1       0.0       0.1       0.1
 5 O  dxy             0.0       0.0       0.0       0.5       0.0       0.0
 6 C  pz              3.1       6.9      23.8       1.2       1.2       0.5
 6 C  px              0.0       9.6       3.8       0.0       0.0       3.6
 6 C  py             18.4       0.8       3.4       6.5       8.0       0.0
 6 C  dyz             0.0       0.1       0.4       0.0       0.0       0.0
 6 C  dxy             0.1       0.0       0.0       0.1       0.2       0.0
 7 H  s               0.6       3.9       1.2       0.4       6.4       0.5
 7 H  py              0.0       0.1       0.0       0.0       0.1       0.0
 8 H  s               2.0       0.3       0.1      10.7       0.2       7.3
 8 H  pz              0.0       0.0       0.0       0.2       0.0       0.1
 8 H  px              0.1       0.1       0.0       0.0       0.0       0.0
 9 H  s               3.1       6.7       1.3       3.3       6.6       2.4
 9 H  pz              0.0       0.0       0.0       0.1       0.0       0.1
 9 H  px              0.1       0.1       0.0       0.0       0.1       0.0
10 H  s               0.0       0.3       0.2       0.0       0.0       9.2
11 H  s               2.4       0.3       0.1      10.5       0.2       7.3
11 H  pz              0.0       0.0       0.0       0.2       0.1       0.1
12 H  s               2.9       7.1       1.0       3.5       6.5       2.4
12 H  pz              0.0       0.0       0.0       0.1       0.0       0.1
12 H  px              0.1       0.1       0.0       0.0       0.1       0.0
13 H  s               0.7       4.1       1.1       0.3       6.2       0.5
13 H  pz              0.0       0.1       0.0       0.0       0.1       0.0
13 H  px              0.0       0.0       0.0       0.1       0.0       0.1
13 H  py              0.1       0.1       0.0       0.0       0.0       0.0
14 H  s               7.7       1.4       1.0       3.3       4.7       0.4
14 H  pz              0.0       0.1       0.2       0.0       0.0       0.0
14 H  px              0.1       0.0       0.0       0.0       0.0       0.0
15 H  s               0.4       3.9      14.5       0.2       0.3       0.5
15 H  pz              0.1       0.1       0.1       0.0       0.0       0.0
15 H  py              0.1       0.1       0.1       0.0       0.0       0.0
16 H  s               5.2       4.5       6.6       2.0       2.6       1.1
16 H  px              0.1       0.0       0.0       0.0       0.0       0.0
16 H  py              0.0       0.1       0.2       0.0       0.0       0.0

                     24        25        26        27        28        29   
                  -0.32016  -0.30315  -0.26975  -0.22950  -0.01332   0.07540
                   2.00000   2.00000   2.00000   2.00000   0.00000   0.00000
                  --------  --------  --------  --------  --------  --------
 0 C  s               0.4       0.4       0.3       0.0       0.3       6.5
 0 C  pz              0.2       6.5       3.8       1.1       0.2       0.7
 0 C  px              1.5       1.8       0.7       0.2       0.1       1.0
 0 C  py             15.9       0.1       1.5       0.0       0.2       1.0
 0 C  dz2             0.2       0.0       0.0       0.0       0.0       0.3
 0 C  dyz             0.0       0.1       0.0       0.0       0.0       0.2
 0 C  dx2y2           0.1       0.2       0.0       0.0       0.0       0.2
 1 C  s               0.0       0.0       0.0       0.0       0.0       3.4
 1 C  pz              1.8      10.8       0.7       0.6       0.0       4.5
 1 C  px              0.2       2.0       0.0       0.5       0.0       6.0
 1 C  py             10.1       2.4       4.1       0.1       0.1       0.8
 1 C  dz2             0.2       0.0       0.1       0.0       0.1       0.2
 1 C  dxz             0.0       0.3       0.1       0.1       0.1       0.1
 1 C  dyz             0.2       0.1       0.1       0.0       0.1       0.0
 1 C  dx2y2           0.1       0.4       0.1       0.0       0.1       0.2
 1 C  dxy             0.0       0.0       0.5       0.0       0.2       0.1
 2 C  s               0.4       0.4       0.3       0.0       0.3       6.5
 2 C  pz              6.8       3.0       0.2       0.8       0.0       0.0
 2 C  px              0.1       1.3       0.2       0.3       0.0       0.7
 2 C  py             10.6       4.5       5.4       0.3       0.4       2.1
 2 C  dyz             0.3       0.1       0.0       0.0       0.0       0.1
 2 C  dx2y2           0.0       0.2       0.0       0.0       0.0       0.6
 3 O  s               0.0       2.7       0.0       0.2       0.0       3.8
 3 O  pz              0.0      16.7       6.1       7.1       1.5       0.4
 3 O  px              0.0       5.4       0.4       0.8       0.1       0.4
 3 O  py              0.0       4.0      34.8       1.1       8.5       0.1
 3 O  dz2             0.0       0.1       0.2       0.2       0.9       0.3
 3 O  dxz             0.1       1.5       0.1       0.0       0.6       0.0
 3 O  dyz             0.1       0.0       0.3       0.2       1.6       0.2
 3 O  dx2y2           0.0       0.8       0.2       0.0       0.0       4.5
 3 O  dxy             0.8       0.1       0.3       0.0       4.1       0.3
 4 C  s               0.0       0.5       0.0       0.1       0.0      10.0
 4 C  pz              0.8       2.5       0.1       0.5       5.5       0.0
 4 C  px              0.0       0.1       0.0       1.0       0.3       0.4
 4 C  py              5.0       0.4       0.5       0.1      34.0       0.0
 4 C  dz2             0.1       0.6       0.8       0.2       0.2       0.1
 4 C  dxz             0.0       0.2       0.0       3.1       0.1       0.0
 4 C  dyz             0.2       0.1       1.0       0.0       0.2       0.4
 4 C  dx2y2           0.1       0.2       0.2       0.0       0.2       0.6
 4 C  dxy             0.0       0.1       0.2       0.6       0.3       0.0
 5 O  s               0.0       0.3       0.0       0.0       0.0       1.4
 5 O  pz              2.4       2.9       4.7       1.9       3.1       0.3
 5 O  px              0.2       4.2       0.4      66.2       0.2       0.3
 5 O  py             13.5       0.9      29.5       0.1      19.7       0.0
 5 O  dz2             0.1       0.1       0.0       0.0       2.2       0.2
 5 O  dxz             0.0       0.0       0.0       0.5       0.2       0.1
 5 O  dyz             0.1       0.1       0.0       0.0       3.1       0.6
 5 O  dx2y2           0.1       0.0       0.0       0.0       1.2       0.4
 5 O  dxy             0.1       0.0       0.0       0.1       0.2       0.1
 6 C  s               0.0       0.3       0.0       0.6       0.0      14.6
 6 C  pz              0.7       0.1       0.1       2.1       0.0       0.0
 6 C  px              0.0       4.0       0.0       3.9       0.0       0.9
 6 C  py              3.7       0.0       0.1       0.4       0.1       0.0
 6 C  dxz             0.0       0.0       0.0       0.0       0.4       0.0
 6 C  dxy             0.1       0.0       0.0       0.0       1.5       0.0
 7 H  s               7.0       1.1       0.3       0.0       0.0       1.1
 7 H  pz              0.0       0.0       0.0       0.0       0.0       0.2
 7 H  px              0.1       0.0       0.0       0.0       0.0       0.2
 7 H  py              0.0       0.0       0.0       0.0       0.0       0.2
 8 H  s               1.4       1.8       0.0       0.6       0.1       0.4
 8 H  pz              0.1       0.0       0.0       0.0       0.0       0.0
 8 H  px              0.0       0.0       0.0       0.0       0.0       0.2
 8 H  py              0.1       0.0       0.0       0.0       0.0       0.1
 9 H  s               0.1       1.3       0.3       0.2       0.0       3.5
 9 H  px              0.0       0.0       0.0       0.0       0.0       0.9
 9 H  py              0.2       0.0       0.0       0.0       0.0       0.2
10 H  s               0.0       6.7       0.0       1.3       0.0       2.1
10 H  pz              0.0       0.0       0.0       0.0       0.0       1.1
10 H  py              0.1       0.0       0.1       0.0       0.0       0.2
11 H  s               1.5       1.8       0.0       0.6       0.1       0.4
11 H  pz              0.0       0.0       0.0       0.0       0.0       0.1
11 H  px              0.0       0.0       0.0       0.0       0.0       0.1
11 H  py              0.1       0.0       0.1       0.0       0.0       0.1
12 H  s               0.1       1.4       0.3       0.2       0.0       3.6
12 H  px              0.0       0.0       0.0       0.0       0.0       1.0
13 H  s               7.2       1.0       0.3       0.0       0.0       1.1
13 H  pz              0.0       0.0       0.0       0.0       0.0       0.4
13 H  px              0.1       0.0       0.0       0.0       0.0       0.3
14 H  s               2.4       0.2       0.0       0.0       4.0       1.9
14 H  px              0.0       0.0       0.0       0.1       0.2       0.1
14 H  py              0.0       0.0       0.0       0.0       0.0       0.7
15 H  s               0.2       0.0       0.0       1.2       0.3       0.9
15 H  pz              0.0       0.0       0.0       0.0       0.0       0.3
15 H  py              0.0       0.0       0.0       0.0       0.0       0.2
16 H  s               1.4       0.3       0.0       0.0       2.4       1.5
16 H  pz              0.0       0.0       0.0       0.0       0.0       0.3
16 H  py              0.0       0.0       0.0       0.0       0.0       0.2

                     30        31        32        33        34        35   
                   0.09315   0.11136   0.13262   0.13548   0.14313   0.15369
                   0.00000   0.00000   0.00000   0.00000   0.00000   0.00000
                  --------  --------  --------  --------  --------  --------
 0 C  s               3.9       0.4      14.1      10.5       0.2       0.3
 0 C  pz              0.7       1.7       1.7      13.8       1.9       2.1
 0 C  px              0.1       5.6       2.4       3.6       1.2       4.6
 0 C  py              0.3       0.9       8.5       3.4       8.6       4.1
 0 C  dz2             0.0       0.3       0.4       0.0       0.0       0.2
 0 C  dxz             0.8       0.1       0.0       0.3       0.0       0.2
 0 C  dyz             0.0       0.2       0.0       0.5       0.7       0.0
 0 C  dx2y2           0.5       0.0       0.0       0.4       0.0       1.8
 0 C  dxy             0.2       0.0       0.0       0.0       0.5       0.1
 1 C  s               5.3       3.2       0.0       9.2       1.8       0.2
 1 C  pz              0.5       6.6       1.7       2.3       5.4       1.6
 1 C  px             26.1       6.5       0.1       0.2       0.7       5.3
 1 C  py              0.6       0.8      10.8       0.3       0.9       0.5
 1 C  dz2             0.7       0.5       0.4       0.0       0.1       0.4
 1 C  dxz             0.1       0.4       0.0       0.0       0.7       0.1
 1 C  dyz             0.0       0.0       0.6       0.1       0.2       0.6
 1 C  dx2y2           2.2       0.2       0.2       0.1       0.2       0.1
 1 C  dxy             0.2       0.1       0.0       0.0       0.1       0.1
 2 C  s               3.9       0.5      14.8       9.6       0.5       0.3
 2 C  pz              0.0       0.5       1.6       1.9       3.1       5.6
 2 C  px              0.1       6.8       0.9       1.4       0.2       5.9
 2 C  py              0.8       1.2      12.6      16.3       6.3       0.3
 2 C  dz2             0.2       0.1       0.0       0.2       0.5       0.1
 2 C  dxz             0.0       0.0       0.1       0.1       0.1       0.8
 2 C  dyz             0.0       0.2       0.3       0.1       0.0       0.9
 2 C  dx2y2           0.0       0.1       0.1       0.9       0.3       0.4
 2 C  dxy             1.2       0.2       0.0       0.0       0.2       0.1
 3 O  s               6.9       0.1       0.0       0.2       0.3       0.9
 3 O  pz              1.4       0.1       0.3       0.3       0.2       2.6
 3 O  px              5.7       2.5       0.0       0.5       0.5       0.6
 3 O  py              0.6       0.0       1.4       0.1       0.1       0.3
 3 O  dz2             0.6       0.5       0.6       0.5       0.7       0.1
 3 O  dxz             0.0       0.1       0.0       0.0       5.5       0.9
 3 O  dyz             0.1       0.4       0.7       0.0       1.9       0.1
 3 O  dx2y2           3.8       0.4       0.1       1.3       0.2       0.3
 3 O  dxy             0.1       0.1       0.4       0.0       1.5       0.5
 4 C  s               0.7       7.0       0.0       0.3       3.3       0.8
 4 C  pz              2.7       0.3       0.5       0.2       1.1       4.7
 4 C  px              0.2       2.3       0.1       0.4       2.3       2.9
 4 C  py              0.5       0.1       3.2       0.0       0.1       0.7
 4 C  dz2             0.5       0.3       0.0       0.1       0.0       0.0
 4 C  dxz             0.1       0.0       0.0       0.0       0.0       0.1
 4 C  dyz             0.0       0.5       0.0       0.0       0.1       0.0
 4 C  dx2y2           0.7       0.4       0.0       0.1       0.4       0.0
 5 O  s               0.4       1.0       0.0       0.0       0.0       0.9
 5 O  pz              0.3       0.2       0.1       0.1       0.2       0.3
 5 O  px              0.1       0.7       0.0       0.0       0.3       0.6
 5 O  py              0.1       0.0       0.9       0.0       0.0       0.1
 5 O  dz2             0.2       0.0       0.0       0.1       0.9       0.3
 5 O  dxz             0.7       0.1       0.1       0.0       1.0       0.2
 5 O  dyz             0.1       0.8       0.0       0.0       0.1       0.1
 5 O  dx2y2           0.0       2.4       0.0       0.1       1.1       0.0
 5 O  dxy             0.1       0.1       0.2       0.0       0.1       0.0
 6 C  s               1.7      19.1       0.0       0.4       1.9       0.2
 6 C  pz              0.5       0.0       0.1       0.4       3.9       0.2
 6 C  px              2.1       1.2       0.0       1.3      12.2       3.8
 6 C  py              0.1       0.5       0.5       0.1       2.2       0.0
 6 C  dz2             0.2       0.0       0.0       0.1       0.6       0.0
 6 C  dxz             0.0       0.0       0.0       0.0       0.7       0.1
 6 C  dyz             0.2       0.0       0.0       0.0       0.1       0.3
 6 C  dx2y2           0.3       0.1       0.0       0.2       1.1       0.2
 6 C  dxy             0.0       0.0       0.0       0.0       0.3       0.0
 7 H  s               2.3       0.5       1.3       3.0       1.1       7.2
 7 H  pz              0.0       0.2       0.1       0.2       0.3       0.0
 7 H  px              0.0       0.0       0.0       0.0       0.2       0.0
 7 H  py              0.6       0.0       1.0       1.5       0.0       1.1
 8 H  s               2.1       0.1       2.9       0.7       0.2       2.8
 8 H  pz              0.4       0.1       1.3       0.5       0.0       0.3
[...]
 3 O  s               0.0       0.0       6.4      26.3       6.1       1.0
 3 O  pz              0.0       0.6       6.6       2.8       6.5       0.1
 3 O  px              0.0       0.8       0.1      10.5      24.7       0.5
 3 O  py              0.1       0.1       1.0       1.2       0.2       0.0
 3 O  dz2             0.0       0.1       5.5       3.3       2.3       0.3
 3 O  dxz             0.0       0.8       0.4       0.0      22.4       0.1
 3 O  dyz             0.0       0.0       2.8       0.5       1.0       0.0
 3 O  dx2y2           0.0       1.1       0.6      19.9       0.9       1.3
 3 O  dxy             0.1       0.0       0.0       1.0       3.0       0.1
 4 C  s               0.0       0.1       0.8       0.1       2.7       5.3
 4 C  pz              0.0       0.0       0.8       0.7       3.1       6.5
 4 C  px              0.0       0.0       0.3       0.2       4.1       0.2
 4 C  py              0.0       0.0       0.1       0.1       0.3       1.2
 4 C  dz2             0.0       0.0       5.0       0.1       0.3       3.8
 4 C  dxz             0.0       0.0       4.4       1.4      10.4       0.4
 4 C  dyz             0.0       0.0       0.3       0.0       0.3       2.6
 4 C  dx2y2           0.0       0.0       4.0       0.1       1.1       0.1
 4 C  dxy             0.0       0.0       1.5       0.2       1.2       0.1
 5 O  s               0.0       0.5       3.7       1.3       0.5      19.2
 5 O  pz              0.0       0.0       0.9       0.8       0.1      18.1
 5 O  px              0.0       0.6       6.8       0.6       0.3       0.4
 5 O  py              0.1       0.0       0.0       0.1       0.0       3.3
 5 O  dz2             0.1       0.1       0.5       1.0       0.2      18.7
 5 O  dxz             0.0       0.0      18.4       0.1       1.3       2.0
 5 O  dyz             0.1       0.0       0.0       0.4       0.0      12.5
 5 O  dx2y2           0.0       0.3       0.1       0.1       0.5       0.4
 5 O  dxy             0.1       0.0       2.8       0.0       0.4       0.4
 6 C  s               0.0       0.0       0.1       0.0       0.0       0.0
 6 C  pz              0.1       0.0       0.1       0.0       0.0       0.0
 6 C  px              0.0       0.0       1.4       0.0       0.1       0.0
 6 C  py              0.0       0.0       0.2       0.0       0.0       0.0
 6 C  dz2             0.0       0.0       1.2       0.0       0.1       0.0
 6 C  dxz             0.0       0.0       1.7       0.1       0.2       0.0
 6 C  dyz             0.1       0.0       0.0       0.0       0.0       0.1
 6 C  dx2y2           0.0       0.0       1.5       0.0       0.0       0.1
 6 C  dxy             0.0       0.0       0.2       0.0       0.0       0.0
 7 H  s               0.0       0.0       0.8       0.0       0.0       0.0
 7 H  pz              0.1       0.2       0.0       0.0       0.0       0.0
 7 H  px              0.2       0.1       0.1       0.0       0.0       0.0
 7 H  py              0.0       0.1       1.6       0.0       0.0       0.0
 8 H  s               4.8       1.3       0.3       0.0       0.0       0.0
 8 H  pz              9.7       2.9       0.3       0.0       0.0       0.0
 8 H  px              1.9       0.8       0.3       0.1       0.0       0.0
 8 H  py              1.2       0.4       0.1       0.0       0.0       0.0
 9 H  s               3.1       0.0       0.1       0.1       0.0       0.0
 9 H  pz              0.2       0.0       0.0       0.0       0.0       0.0
 9 H  px              6.6       0.0       0.3       0.3       0.0       0.0
 9 H  py              0.2       0.1       0.0       0.0       0.0       0.0
10 H  s               0.0       8.1       0.0       0.5       0.1       0.0
10 H  pz              0.0      13.2       0.0       1.2       0.1       0.0
10 H  px              0.0       6.1       0.4       0.2       0.0       0.0
10 H  py              0.1       1.5       0.0       0.2       0.0       0.0
11 H  s               4.8       1.3       0.3       0.0       0.0       0.0
11 H  pz              9.5       3.0       0.4       0.0       0.0       0.0
11 H  px              1.9       0.8       0.3       0.1       0.0       0.0
11 H  py              1.3       0.3       0.0       0.0       0.0       0.0
12 H  s               3.2       0.0       0.1       0.1       0.0       0.0
12 H  pz              0.2       0.0       0.0       0.0       0.0       0.0
12 H  px              6.7       0.0       0.4       0.2       0.0       0.0
12 H  py              0.3       0.1       0.0       0.0       0.0       0.0
13 H  s               0.0       0.0       0.8       0.0       0.0       0.0
13 H  pz              0.0       0.2       1.0       0.0       0.0       0.0
13 H  px              0.3       0.1       0.3       0.0       0.0       0.0
13 H  py              0.0       0.0       0.5       0.0       0.0       0.0
14 H  py              0.0       0.0       0.1       0.0       0.0       0.0
15 H  s               0.0       0.0       0.3       0.0       0.1       0.0
15 H  pz              0.1       0.0       0.5       0.0       0.0       0.0
15 H  py              0.0       0.0       0.3       0.0       0.0       0.0
16 H  s               0.0       0.0       0.3       0.0       0.0       0.0
16 H  pz              0.0       0.0       0.4       0.0       0.0       0.0
16 H  py              0.0       0.0       0.3       0.0       0.0       0.0

                    186       187       188       189       190       191   
                  21.93421  21.98677  21.99828  22.19851  22.26465  43.71932
                   0.00000   0.00000   0.00000   0.00000   0.00000   0.00000
                  --------  --------  --------  --------  --------  --------
 0 C  s               0.0      40.5      48.7      10.4       0.0       0.0
 1 C  s               4.6      17.6       0.0      71.9       5.7       0.0
 2 C  s               0.2      38.6      50.9       9.9       0.0       0.0
 3 O  s               0.0       0.0       0.0       0.1       0.1      32.0
 3 O  px              0.0       0.0       0.0       0.0       0.1       0.0
 4 C  s               0.0       1.4       0.0       4.4      93.2       0.0
 5 O  s               0.0       0.0       0.0       0.0       0.2      68.0
 5 O  pz              0.0       0.0       0.0       0.0       0.1       0.0
 6 C  s              94.7       1.7       0.1       2.9       0.2       0.0

                    192   
                  43.80132
                   0.00000
                  --------
 3 O  s              68.0
 5 O  s              31.9


                      *****************************
                      * MAYER POPULATION ANALYSIS *
                      *****************************

  NA   - Mulliken gross atomic population
  ZA   - Total nuclear charge
  QA   - Mulliken gross atomic charge
  VA   - Mayer's total valence
  BVA  - Mayer's bonded valence
  FA   - Mayer's free valence

  ATOM       NA         ZA         QA         VA         BVA        FA
  0 C      6.5046     6.0000    -0.5046     3.7744     3.7744    -0.0000
  1 C      5.9438     6.0000     0.0562     3.6159     3.6159     0.0000
  2 C      6.5038     6.0000    -0.5038     3.7698     3.7698     0.0000
  3 O      8.1669     8.0000    -0.1669     1.8983     1.8983    -0.0000
  4 C      5.5627     6.0000     0.4373     3.7558     3.7558     0.0000
  5 O      8.4411     8.0000    -0.4411     1.9328     1.9328    -0.0000
  6 C      6.5261     6.0000    -0.5261     3.8621     3.8621    -0.0000
  7 H      0.8475     1.0000     0.1525     0.9633     0.9633     0.0000
  8 H      0.8071     1.0000     0.1929     0.9554     0.9554    -0.0000
  9 H      0.8547     1.0000     0.1453     0.9646     0.9646     0.0000
 10 H      0.8481     1.0000     0.1519     0.9457     0.9457    -0.0000
 11 H      0.8075     1.0000     0.1925     0.9560     0.9560     0.0000
 12 H      0.8546     1.0000     0.1454     0.9647     0.9647    -0.0000
 13 H      0.8475     1.0000     0.1525     0.9633     0.9633     0.0000
 14 H      0.8271     1.0000     0.1729     0.9568     0.9568     0.0000
 15 H      0.8289     1.0000     0.1711     0.9592     0.9592     0.0000
 16 H      0.8278     1.0000     0.1722     0.9580     0.9580    -0.0000

  Mayer bond orders larger than 0.100000
B(  0-C ,  1-C ) :   0.9318 B(  0-C ,  7-H ) :   0.9686 B(  0-C ,  8-H ) :   0.9676 
B(  0-C ,  9-H ) :   0.9645 B(  1-C ,  2-C ) :   0.9300 B(  1-C ,  3-O ) :   0.8405 
B(  1-C , 10-H ) :   0.9555 B(  2-C , 11-H ) :   0.9675 B(  2-C , 12-H ) :   0.9642 
B(  2-C , 13-H ) :   0.9689 B(  3-O ,  4-C ) :   1.0646 B(  4-C ,  5-O ) :   1.8225 
B(  4-C ,  6-C ) :   0.9430 B(  6-C , 14-H ) :   0.9402 B(  6-C , 15-H ) :   0.9868 
B(  6-C , 16-H ) :   0.9662 

-------
TIMINGS
-------

Total SCF time: 0 days 0 hours 0 min 19 sec 

Total time                  ....      19.298 sec
Sum of individual times     ....      18.648 sec  ( 96.6%)

SCF preparation             ....       0.154 sec  (  0.8%)
Fock matrix formation       ....      17.629 sec  ( 91.4%)
  Startup                   ....       0.053 sec  (  0.3% of F)
  Split-RI-J                ....       2.956 sec  ( 16.8% of F)
  XC integration            ....      14.001 sec  ( 79.4% of F)
    Basis function eval.    ....       2.315 sec  ( 16.5% of XC)
    Density eval.           ....       4.225 sec  ( 30.2% of XC)
    XC-Functional eval.     ....       1.682 sec  ( 12.0% of XC)
    XC-Potential eval.      ....       4.683 sec  ( 33.4% of XC)
Diagonalization             ....       0.000 sec  (  0.0%)
Density matrix formation    ....       0.235 sec  (  1.2%)
Total Energy calculation    ....       0.034 sec  (  0.2%)
Population analysis         ....       0.101 sec  (  0.5%)
Orbital Transformation      ....       0.050 sec  (  0.3%)
Orbital Orthonormalization  ....       0.000 sec  (  0.0%)
DIIS solution               ....       0.401 sec  (  2.1%)
  MO trafo                  ....       0.000 sec  (  0.0 % of DIIS)
  Orb grad                  ....       0.000 sec  (  0.0 % of DIIS)
  Energy W gradient         ....       0.000 sec  (  0.0 % of DIIS)
  DIIS error                ....       0.009 sec  (  2.3 % of DIIS)
  DIIS work                 ....       0.346 sec  ( 86.4 % of DIIS)
  Form Q                    ....       0.000 sec  (  0.0 % of DIIS)
  Form QpQm                 ....       0.000 sec  (  0.0 % of DIIS)
  Exp/Cayley                ....       0.000 sec  (  0.0 % of DIIS)
  Orb update                ....       0.000 sec  (  0.0 % of DIIS)
  Wake-sleep                ....       0.019 sec  (  4.7 % of DIIS)
SOSCF solution              ....       0.044 sec  (  0.2%)
  MO trafo                  ....       0.033 sec  ( 75.6 % of SOSCF)
  Orb grad                  ....       0.001 sec  (  1.3 % of SOSCF)
  Rot update                ....       0.000 sec  (  0.1 % of SOSCF)
  Step                      ....       0.010 sec  ( 23.0 % of SOSCF)
Finished LeanSCF after  19.6 sec

Maximum memory used throughout the entire LEANSCF-calculation: 20.7 MB


-------------------------------------------------------------------------------
                          DFT DISPERSION CORRECTION                            
                                                                               
                                DFTD4 V3.4.0                                   
-------------------------------------------------------------------------------
The R2SCAN3C composite method is recognized
Using three-body term ABC
Active option DFTDOPT                   ...         5   

-------------------------   ----------------
Dispersion correction           -0.004239003
-------------------------   ----------------

------------------   -----------------
gCP correction             0.010447918
------------------   -----------------

-------------------------   --------------------
FINAL SINGLE POINT ENERGY      -346.939147540977
-------------------------   --------------------


------------------------------------------------------------------------------
                              ORCA PROPERTY CALCULATIONS
------------------------------------------------------------------------------

GBWName                                 ... sp_gas.gbw
Number of atoms                         ...     17
Number of basis functions               ...    193
Max core memory                         ...   1024 MB

Electric properties:
Dipole moment                           ... YES
Quadrupole moment                       ...  NO
Static polarizability (Dipole/Dipole)   ...  NO
Static polarizability (Dipole/Quad.)    ...  NO
Static polarizability (Quad./Quad.)     ...  NO
Static polarizability (Velocity)        ...  NO

Atomic electric properties:
Dipole moment                           ...  NO
Quadrupole moment                       ...  NO
Static polarizability                   ...  NO

Choice of electric origin               ... Center of mass
Position of electric origin             ...     0.000015     0.000000    -0.000005

General magnetic properties:
Magnetizability                         ...  NO

EPR properties:
g-Tensor (aka g-matrix)                 ...  NO
Zero-Field splitting spin-orbit         ...  NO
Zero-field splitting spin-spin          ...  NO
Hyperfine couplings                     ...  NO (   0 nuclei)
Quadrupole couplings                    ...  NO (   0 nuclei)
Contact density                         ...  NO (   0 nuclei)

NMR properties:
Chemical shifts                         ...  NO (   0 nuclei)
Spin-rotation constants                 ...  NO (   0 nuclei)
Spin-spin couplings                     ...  NO (   0 nuclei,    0 pairs)

Choice of magnetic origin               ... GIAO
Position of magnetic origin             ...     0.000000     0.000000     0.000000

Properties with geometric perturbations:
SCF Hessian                             ...  NO
IR spectrum                             ...  NO
VCD spectrum                            ...  NO
X-ray spectroscopy properties:
SCF XES/XAS/RIXS spectra                ...  NO


-------------
DIPOLE MOMENT
-------------

Method             : SCF
Type of density    : Electron Density
Multiplicity       :   1
Irrep              :   0
Energy             :  -346.9453564557513232 Eh
Relativity type    : 
Basis              : AO
                                X                 Y                 Z
Electronic contribution:     -3.359182659       0.327331665       0.320946886
Nuclear contribution   :      3.625039748      -0.102098947      -1.001764637
                        -----------------------------------------
Total Dipole Moment    :      0.265857089       0.225232718      -0.680817752
                        -----------------------------------------
Magnitude (a.u.)       :      0.764802314
Magnitude (Debye)      :      1.943972993



--------------------
Rotational spectrum 
--------------------
 
Rotational constants in cm-1:             0.153101             0.058712             0.058291 
Rotational constants in MHz :          4589.842121          1760.154911          1747.534813 

Dipole components along the rotational axes: 
x,y,z [a.u.] :     0.233160     0.112235    -0.719696 
x,y,z [Debye]:     0.592646     0.285279    -1.829322 

 

Dipole moment calculation done in   0.0 sec 

Maximum memory used throughout the entire PROP-calculation: 11.7 MB

--------------------------------
SUGGESTED CITATIONS FOR THIS RUN
--------------------------------

Below you find a list of papers that are relevant to this ORCA run
We neither can nor want to force you to cite these papers, but we appreciate if you do
You receive ORCA, which is the product of decades of hard work by many enthusiastic individuals, for free
The only thing we kindly ask in return is that you cite our papers,
We deeply appreciate it, if you show your appreciation for ORCA by not just citing the generic ORCA reference.

Please note that relegating all ORCA citations to the supporting information does *not* help us.
SI sections are not indexed - citations you put there will not count into any citation statistics
But we need these citations in order to attract the funding resources that allow us to do what we are doing

Therefore, if you are a happy ORCA user, please consider citing a few of the papers listed below in the main body of your paper

In addition to the list printed below, the program has created the file sp_gas.bibtex that contains the list in bibtex format
You can import this file easily into all common literature databanks and citation aid programs


List of essential papers. We consider these as the minimum necessary citations

  1. Neese,F.
     Software update: the ORCA program system, version 5.0
     WIRES Comput. Molec. Sci., 2022 12(1)e1606
     doi.org/10.1002/wcms.1606
  2. Grimme,S.; Hansen,A.; Ehlert,S.; Mewes,J.
     r2SCAN-3c: A 'Swiss army knife' composite electronic-structure method
     J. Chem. Phys., 2021 154 064103
     doi.org/10.1063/5.0040021

List of papers to cite with high priority. The work reported in these papers was absolutely
necessary for this run to complete.
Our perspective: the developers of density functionals and basis sets usually get cited in chemistry papers
Good! But without the algorithms to do something with them, the functionals or basis sets would not do anything.
Hence, in our opinion, the algorithm design and method developments papers are equally worthy of getting cited

  1. Neese,F.
     An improvement of the resolution of the identity approximation for the formation of the Coulomb matrix
     J. Comp. Chem., 2003 24(14)1740-1747
     doi.org/10.1002/jcc.10318
  2. Neese,F.
     The SHARK Integral Generation and Digestion System
     J. Comp. Chem., 2022  1-16
     doi.org/10.1002/jcc.26942
  3. Lehtola,S.; Steigemann,C.; Oliveira,M.; Marques,M.
     Recent developments in Libxc - A comprehensive library of functionals for density functional theory
     Software X, 2018 7 
     doi.org/10.1016/j.softx.2017.11.002
  4. Caldeweyher,E.; Bannwarth,C.; Grimme,S.
     Extension of the D3 dispersion coefficient model
     J. Chem. Phys., 2017 147 034112-XXXX
     doi.org/10.1063/1.4993215
  5. Caldeweyher,E.; Ehlert,S.; Hansen,A.; Neugebauer,H.; Spicher,S.; Bannwarth,C.; Grimme,S.
     A generally applicable atomic-charge dependent London dispersion correction
     J. Chem. Phys., 2019 150 154122-XXXX
     doi.org/10.1063/1.5090222
  6. Caldeweyher,E.; Mewes,J.; Ehlert,S.; Grimme,S.
     Extension and evaluation of the D4 London-dispersion model for periodic systems
     Phys. Chem. Chem. Phys., 2020 22(16)8499-8512
     doi.org/10.1039/D0CP00502A

List of suggested additional citations. These are papers that are important in the 'surrounding' of 
of this run, or papers that preceded the highly important papers. If you like your results we are grateful for a citation.

  1. Neese,F.
     The ORCA program system
     WIRES Comput. Molec. Sci., 2012 2(1)73-78
     doi.org/10.1002/wcms.81
  2. Neese,F.
     Software update: the ORCA program system, version 4.0
     WIRES Comput. Molec. Sci., 2018 8(1)1-6
     doi.org/10.1002/wcms.1327
  3. Neese,F.; Wennmohs,F.; Becker,U.; Riplinger,C.
     The ORCA quantum chemistry program package
     J. Chem. Phys., 2020 152 Art. No. L224108
     doi.org/10.1063/5.0004608

List of optional additional citations

  1. Neese,F.
     Approximate second-order SCF convergence for spin unrestricted wavefunctions
     Chem. Phys. Lett., 2000 325(1-3)93-98
     doi.org/10.1016/s0009-2614(00)00662-x

Timings for individual modules:

Sum of individual times          ...       20.865 sec (=   0.348 min)
Startup calculation              ...        0.942 sec (=   0.016 min)   4.5 %
SCF iterations                   ...       19.824 sec (=   0.330 min)  95.0 %
Property calculations            ...        0.098 sec (=   0.002 min)   0.5 %
                             ****ORCA TERMINATED NORMALLY****
TOTAL RUN TIME: 0 days 0 hours 0 minutes 21 seconds 482 msec
