 Entering Gaussian System
 *********************************************
 Gaussian 98:
 frequency output generated by the xtb code
 *********************************************
                         Standard orientation:
 --------------------------------------------------------------------
  Center     Atomic     Atomic              Coordinates (Angstroms)
  Number     Number      Type              X           Y           Z
 --------------------------------------------------------------------
    1          6             0       -2.559082   -0.678154   -0.327427
    2          6             0       -1.170418   -0.318275    0.215587
    3          1             0       -1.204987   -0.294751    1.318076
    4          6             0       -0.705804    1.047827   -0.310381
    5          1             0       -0.719306    1.027684   -1.405846
    6          6             0        0.732446    1.344120    0.150894
    7          1             0        0.747029    1.499182    1.243384
    8          6             0        1.663128    0.169850   -0.160269
    9          1             0        1.819570    0.125239   -1.246690
   10          6             0        1.033657   -1.160858    0.294727
   11          1             0        1.007312   -1.165697    1.406188
   12          8             0       -0.273541   -1.334562   -0.197409
   13          8             0        1.825599   -2.180063   -0.193198
   14          8             0        2.874073    0.377882    0.517454
   15          8             0        1.232101    2.485528   -0.498609
   16          8             0       -1.569916    2.090393    0.058936
   17          8             0       -3.154124   -1.739086    0.370888
   18          1             0       -2.461542   -0.910032   -1.393920
   19          1             0       -3.219568    0.181959   -0.205697
   20          1             0        1.397751   -3.037906   -0.045753
   21          1             0        3.503577   -0.310313    0.255206
   22          1             0        0.557989    3.182685   -0.456870
   23          1             0       -1.641559    2.134530    1.024585
   24          1             0       -2.627931   -2.539110    0.232413
 --------------------------------------------------------------------
     1 basis functions        1 primitive gaussians
     1 alpha electrons        1 beta electrons
 
 Harmonic frequencies (cm**-1), IR intensities (km*mol⁻¹),
 Raman scattering activities (A**4/amu), Raman depolarization ratios,
 reduced masses (AMU), force constants (mDyne/A) and normal coordinates:
                      1                      2                      3
                        a                      a                      a 
 Frequencies --    54.4345                71.3566                85.1437
 Red. masses --    13.8236                13.0851                13.9015
 Frc consts  --     0.0000                 0.0000                 0.0000
 IR Inten    --     3.1788                11.2766                 2.9884
 Raman Activ --     0.0000                 0.0000                 0.0000
 Depolar     --     0.0000                 0.0000                 0.0000
 Atom AN      X      Y      Z        X      Y      Z        X      Y      Z
   1   6     0.00   0.07  -0.06    -0.07   0.10   0.22    -0.05   0.04   0.17
   2   6    -0.05   0.04   0.08    -0.01   0.09   0.06    -0.04   0.10   0.07
   3   1    -0.04   0.01   0.02     0.04   0.02   0.02     0.00   0.06   0.02
   4   6    -0.03   0.06   0.13    -0.02   0.07   0.01     0.04   0.01  -0.11
   5   1    -0.04   0.04   0.04    -0.03   0.01   0.00     0.06  -0.06  -0.03
   6   6     0.03   0.02  -0.03     0.02   0.05  -0.10    -0.02  -0.02   0.11
   7   1     0.05   0.01  -0.01     0.02   0.08  -0.04    -0.04  -0.07   0.04
   8   6    -0.05  -0.03  -0.10     0.01  -0.01   0.11    -0.05  -0.01  -0.03
   9   1    -0.07  -0.04  -0.04     0.07   0.00   0.04    -0.05   0.00  -0.02
  10   6    -0.05   0.06   0.14    -0.07  -0.03  -0.05    -0.05  -0.00   0.02
  11   1    -0.02   0.07   0.04    -0.02  -0.04  -0.02     0.02  -0.00   0.01
  12   8    -0.05   0.02   0.17    -0.09   0.09  -0.07    -0.12   0.02   0.17
  13   8    -0.06  -0.04   0.38    -0.12   0.00  -0.20    -0.14  -0.02  -0.08
  14   8     0.10  -0.01  -0.41    -0.16  -0.04   0.45     0.04  -0.09  -0.22
  15   8    -0.01  -0.02  -0.15     0.08  -0.12  -0.40     0.05   0.12   0.46
  16   8     0.04   0.06   0.34     0.04   0.11   0.06     0.05   0.14  -0.52
  17   8     0.11  -0.24  -0.47     0.32  -0.34  -0.08     0.28  -0.28  -0.01
  18   1     0.02   0.11  -0.04    -0.08   0.15   0.03    -0.05   0.09   0.03
  19   1    -0.03  -0.01   0.05    -0.05  -0.02   0.20    -0.05  -0.03   0.14
  20   1    -0.01  -0.00   0.16    -0.02  -0.00  -0.06    -0.02  -0.01   0.02
  21   1    -0.01  -0.04  -0.10    -0.01   0.01   0.12    -0.01  -0.03  -0.08
  22   1     0.01   0.01  -0.00     0.05   0.00  -0.09    -0.03  -0.01   0.05
  23   1     0.04   0.00   0.09     0.05   0.05   0.02    -0.03   0.09  -0.14
  24   1     0.07  -0.02  -0.17     0.13  -0.03  -0.13     0.13  -0.02  -0.06
                      4                      5                      6
                        a                      a                      a 
 Frequencies --   136.0162               185.5055               221.2988
 Red. masses --    13.8440                 9.5053                11.6452
 Frc consts  --     0.0000                 0.0000                 0.0000
 IR Inten    --     4.0157                 3.1152                42.8743
 Raman Activ --     0.0000                 0.0000                 0.0000
 Depolar     --     0.0000                 0.0000                 0.0000
 Atom AN      X      Y      Z        X      Y      Z        X      Y      Z
   1   6    -0.08  -0.05   0.03    -0.12   0.30   0.34    -0.01   0.16   0.10
   2   6     0.01   0.01  -0.28     0.09  -0.14   0.10     0.07   0.00  -0.01
   3   1     0.05  -0.03  -0.08     0.10  -0.08   0.03     0.04   0.01  -0.00
   4   6    -0.03   0.09  -0.11     0.05  -0.15   0.04    -0.04   0.05  -0.04
   5   1    -0.02   0.08  -0.03     0.03  -0.09   0.01    -0.00   0.02  -0.01
   6   6    -0.02  -0.00  -0.04     0.02  -0.02   0.01    -0.06   0.05   0.04
   7   1    -0.02  -0.04  -0.00     0.01  -0.01   0.00    -0.03   0.02   0.01
   8   6    -0.03  -0.02  -0.06     0.06   0.02  -0.03    -0.13  -0.02   0.06
   9   1    -0.00  -0.00  -0.02     0.03   0.02  -0.01    -0.07  -0.01   0.01
  10   6    -0.14   0.03  -0.09     0.04   0.00  -0.07     0.00  -0.06   0.05
  11   1    -0.15   0.06  -0.03    -0.03   0.02  -0.02    -0.00  -0.04   0.01
  12   8     0.01   0.11  -0.57     0.08  -0.06  -0.23    -0.00  -0.08   0.03
  13   8     0.02  -0.06   0.44     0.23   0.04   0.15     0.11   0.06  -0.04
  14   8    -0.05  -0.10  -0.03     0.06  -0.03   0.02    -0.10   0.19  -0.12
  15   8     0.09   0.05   0.15    -0.23   0.07   0.00     0.51  -0.23   0.00
  16   8    -0.02   0.03   0.12     0.02  -0.15  -0.16    -0.42  -0.26  -0.04
  17   8     0.24  -0.07   0.31    -0.26   0.08  -0.15    -0.00   0.08  -0.04
  18   1    -0.10  -0.03   0.01    -0.14   0.26   0.05    -0.05   0.11   0.01
  19   1    -0.03  -0.03   0.05     0.03   0.11   0.29     0.02   0.05   0.10
  20   1     0.00  -0.01   0.13     0.10  -0.00   0.09     0.09  -0.01   0.03
  21   1    -0.04  -0.07   0.04    -0.00  -0.04   0.03     0.02   0.12  -0.10
  22   1     0.05   0.03   0.08    -0.14  -0.05  -0.08     0.34   0.13   0.20
  23   1     0.00  -0.04   0.03     0.04   0.04  -0.04    -0.12  -0.08  -0.01
  24   1     0.05  -0.01   0.02    -0.16  -0.01  -0.24    -0.02   0.02  -0.07
                      7                      8                      9
                        a                      a                      a 
 Frequencies --   232.3282               253.3955               275.8796
 Red. masses --    11.6600                 4.4409                13.0727
 Frc consts  --     0.0000                 0.0000                 0.0000
 IR Inten    --    27.9651               168.2186                 3.8571
 Raman Activ --     0.0000                 0.0000                 0.0000
 Depolar     --     0.0000                 0.0000                 0.0000
 Atom AN      X      Y      Z        X      Y      Z        X      Y      Z
   1   6    -0.04  -0.01   0.06     0.06   0.02   0.03    -0.14  -0.26   0.04
   2   6    -0.00  -0.02  -0.01     0.06  -0.01   0.04    -0.14  -0.06   0.07
   3   1     0.02  -0.01  -0.00     0.03  -0.03   0.01    -0.03  -0.07   0.02
   4   6    -0.03  -0.03  -0.05     0.03   0.00   0.07    -0.06   0.03   0.15
   5   1    -0.03  -0.01  -0.01     0.04  -0.01   0.02     0.01  -0.02   0.04
   6   6    -0.03  -0.16  -0.08     0.03   0.10   0.09    -0.01  -0.02   0.17
   7   1    -0.02  -0.09  -0.01     0.02   0.06   0.02     0.00   0.04   0.04
   8   6     0.11  -0.05  -0.06     0.02   0.05   0.09    -0.03   0.03   0.16
   9   1     0.05  -0.03  -0.01    -0.02   0.02   0.02    -0.06   0.01   0.04
  10   6     0.09  -0.07  -0.02    -0.02   0.05   0.06    -0.03   0.04   0.05
  11   1     0.02  -0.00  -0.00    -0.02  -0.01   0.02    -0.05  -0.04   0.01
  12   8     0.08   0.08  -0.08     0.10   0.08  -0.07     0.04   0.17  -0.21
  13   8    -0.21  -0.38   0.08    -0.10  -0.10   0.17     0.18   0.26  -0.01
  14   8    -0.05   0.60   0.03     0.16  -0.06  -0.11     0.13   0.02  -0.12
  15   8     0.02  -0.09   0.14    -0.03   0.04  -0.09     0.20  -0.28  -0.08
  16   8     0.17   0.09   0.03    -0.20  -0.14  -0.08     0.16   0.33  -0.13
  17   8    -0.09  -0.05  -0.02     0.05   0.01  -0.01    -0.33  -0.25   0.02
  18   1    -0.04   0.03   0.01     0.02   0.02   0.01    -0.01  -0.10   0.02
  19   1     0.00   0.00   0.05     0.02   0.01   0.02    -0.05  -0.08  -0.03
  20   1    -0.21  -0.04  -0.10    -0.47   0.07  -0.68     0.05   0.04  -0.11
  21   1     0.17   0.36  -0.10    -0.07  -0.16   0.10     0.00  -0.01  -0.06
  22   1    -0.01  -0.03   0.03     0.00   0.02  -0.01     0.12  -0.00  -0.02
  23   1     0.10   0.05   0.01    -0.10  -0.04  -0.02     0.05   0.17  -0.04
  24   1    -0.07  -0.03  -0.07    -0.02  -0.01  -0.04    -0.15  -0.10  -0.03
                     10                     11                     12
                        a                      a                      a 
 Frequencies --   295.3096               310.4153               336.1891
 Red. masses --     8.2128                 7.8769                 6.9222
 Frc consts  --     0.0000                 0.0000                 0.0000
 IR Inten    --     8.5957                50.6384                37.9495
 Raman Activ --     0.0000                 0.0000                 0.0000
 Depolar     --     0.0000                 0.0000                 0.0000
 Atom AN      X      Y      Z        X      Y      Z        X      Y      Z
   1   6     0.11   0.05  -0.06    -0.06  -0.15   0.07    -0.11   0.11  -0.03
   2   6     0.04   0.02   0.06    -0.04   0.00   0.08    -0.05  -0.01  -0.13
   3   1     0.01  -0.06   0.02    -0.01   0.01   0.02    -0.02   0.02  -0.04
   4   6     0.03   0.03   0.22     0.03  -0.03   0.01     0.05  -0.06  -0.09
   5   1     0.07  -0.02   0.06     0.02  -0.02   0.00     0.03   0.02  -0.03
   6   6     0.01   0.05   0.26     0.14   0.07  -0.07    -0.02  -0.06   0.02
   7   1     0.04   0.08   0.06     0.06   0.00  -0.02    -0.02  -0.01   0.00
   8   6     0.01  -0.00   0.21     0.24   0.11  -0.12    -0.05  -0.03   0.06
   9   1    -0.05   0.03   0.05     0.11   0.06  -0.03    -0.03  -0.02   0.02
  10   6    -0.02  -0.07   0.04     0.06   0.19  -0.11    -0.06  -0.03   0.07
  11   1    -0.05  -0.06   0.01     0.04   0.11  -0.03    -0.02  -0.02   0.02
  12   8     0.04   0.18  -0.24     0.03   0.15   0.04    -0.07  -0.16   0.07
  13   8    -0.19  -0.15  -0.05    -0.28  -0.08  -0.02     0.21   0.17   0.09
  14   8     0.18  -0.09  -0.02     0.21  -0.14   0.14    -0.03  -0.15   0.07
  15   8    -0.15  -0.10  -0.14    -0.00   0.16  -0.09    -0.27  -0.04  -0.12
  16   8    -0.20  -0.03  -0.13    -0.05  -0.08  -0.07     0.29   0.09   0.01
  17   8     0.15   0.10   0.00    -0.22  -0.16   0.00     0.09   0.05   0.02
  18   1     0.07  -0.01  -0.01     0.01  -0.05   0.02    -0.09   0.06  -0.02
  19   1     0.02   0.01  -0.06    -0.02  -0.05  -0.01    -0.03   0.03   0.05
  20   1     0.06  -0.05   0.24    -0.04   0.00   0.23    -0.03   0.04  -0.25
  21   1     0.18   0.25  -0.38     0.05  -0.02  -0.00     0.16   0.28  -0.39
  22   1    -0.12  -0.09  -0.21     0.19   0.19   0.43     0.09   0.11   0.40
  23   1    -0.21  -0.04  -0.04    -0.24  -0.19  -0.03    -0.13  -0.18  -0.00
  24   1     0.07   0.04   0.04    -0.15  -0.09  -0.09     0.09   0.05   0.04
                     13                     14                     15
                        a                      a                      a 
 Frequencies --   341.6308               356.9491               377.4982
 Red. masses --     7.9069                 5.9301                 4.8017
 Frc consts  --     0.0000                 0.0000                 0.0000
 IR Inten    --   292.0178               317.3100                85.3562
 Raman Activ --     0.0000                 0.0000                 0.0000
 Depolar     --     0.0000                 0.0000                 0.0000
 Atom AN      X      Y      Z        X      Y      Z        X      Y      Z
   1   6    -0.10  -0.10   0.02     0.19  -0.02   0.06    -0.18   0.08   0.08
   2   6    -0.03  -0.03  -0.08     0.08  -0.05   0.24    -0.11  -0.02   0.00
   3   1    -0.02   0.03  -0.02     0.06  -0.06   0.07    -0.01  -0.00   0.00
   4   6     0.04  -0.00  -0.12    -0.05   0.01   0.16     0.04  -0.09  -0.00
   5   1    -0.03   0.01  -0.03    -0.03  -0.06   0.05     0.02  -0.03  -0.00
   6   6     0.07   0.12  -0.13    -0.02   0.04  -0.02     0.07  -0.06  -0.01
   7   1    -0.01   0.02  -0.03     0.04  -0.01  -0.00     0.02  -0.02  -0.00
   8   6     0.05   0.08  -0.05    -0.06   0.02  -0.16     0.13   0.03  -0.02
   9   1     0.04   0.02  -0.01     0.01   0.04  -0.04     0.05   0.01  -0.00
  10   6    -0.05   0.13  -0.00     0.00  -0.00  -0.16    -0.03   0.09  -0.05
  11   1     0.00   0.07   0.00    -0.00   0.05  -0.04    -0.03   0.04  -0.01
  12   8    -0.05  -0.07   0.09     0.01   0.00  -0.11    -0.07   0.04  -0.07
  13   8    -0.06   0.14   0.07     0.07  -0.11   0.13    -0.03   0.10   0.02
  14   8     0.03  -0.25   0.14    -0.20  -0.15   0.08     0.14   0.13  -0.00
  15   8     0.29   0.23   0.11    -0.05   0.06  -0.03     0.11  -0.06   0.05
  16   8    -0.09  -0.22   0.11    -0.14   0.04  -0.12     0.06  -0.14   0.02
  17   8    -0.14  -0.12   0.03    -0.06   0.01  -0.15    -0.19  -0.10  -0.17
  18   1    -0.05  -0.03   0.00     0.15  -0.03   0.03    -0.07   0.06   0.01
  19   1    -0.02  -0.02   0.02     0.05  -0.00  -0.05    -0.07   0.00   0.06
  20   1    -0.09   0.05  -0.10    -0.04  -0.01  -0.03    -0.01   0.02  -0.02
  21   1     0.18   0.26  -0.39     0.02   0.08  -0.12     0.01  -0.02   0.09
  22   1    -0.08  -0.07  -0.35     0.13   0.13   0.27    -0.03  -0.07  -0.13
  23   1     0.24   0.09   0.04     0.35   0.40  -0.02    -0.16  -0.19  -0.00
  24   1    -0.08  -0.05  -0.05     0.20   0.09   0.31     0.46   0.20   0.59
                     16                     17                     18
                        a                      a                      a 
 Frequencies --   384.4517               403.3237               441.1888
 Red. masses --     8.4011                12.6850                11.9847
 Frc consts  --     0.0000                 0.0000                 0.0000
 IR Inten    --   170.4080                 7.2033                51.2425
 Raman Activ --     0.0000                 0.0000                 0.0000
 Depolar     --     0.0000                 0.0000                 0.0000
 Atom AN      X      Y      Z        X      Y      Z        X      Y      Z
   1   6     0.15  -0.07   0.11     0.09  -0.06  -0.03    -0.03  -0.09   0.12
   2   6     0.10   0.05   0.18     0.05  -0.17   0.08     0.13  -0.02  -0.16
   3   1     0.08   0.01   0.05     0.01  -0.10   0.03     0.08   0.03  -0.04
   4   6    -0.09   0.12   0.06     0.29  -0.16   0.21     0.05   0.16  -0.13
   5   1    -0.05   0.01   0.02     0.13  -0.08   0.06     0.01   0.09  -0.04
   6   6    -0.01   0.01  -0.10     0.16   0.19   0.15     0.01   0.29  -0.01
   7   1     0.03  -0.03  -0.02     0.10   0.09   0.03    -0.04   0.14  -0.01
   8   6    -0.09  -0.05  -0.22    -0.18   0.09  -0.03    -0.12  -0.03   0.28
   9   1     0.01   0.01  -0.06    -0.07   0.04  -0.01    -0.09  -0.06   0.07
  10   6     0.07  -0.06  -0.14    -0.24   0.04  -0.08     0.03  -0.29   0.17
  11   1     0.04   0.03  -0.04    -0.09   0.03  -0.02    -0.01  -0.17   0.04
  12   8     0.03   0.00   0.02    -0.19  -0.26  -0.11     0.08  -0.18  -0.04
  13   8     0.23  -0.12   0.12    -0.20   0.11   0.02     0.02  -0.29  -0.09
  14   8    -0.30  -0.13   0.07    -0.28   0.23  -0.07     0.07   0.03  -0.08
  15   8     0.15   0.06   0.08     0.14   0.15  -0.08    -0.00   0.42  -0.10
  16   8     0.00   0.30  -0.01     0.34  -0.15  -0.06     0.03   0.13   0.04
  17   8    -0.11  -0.05  -0.08     0.05  -0.00   0.03    -0.26  -0.15  -0.06
  18   1     0.12  -0.03   0.04     0.06  -0.05   0.00    -0.06   0.01   0.02
  19   1     0.03  -0.02  -0.03     0.02  -0.01  -0.05     0.01  -0.02   0.08
  20   1    -0.02  -0.01  -0.10    -0.03   0.02   0.04     0.06  -0.09   0.04
  21   1     0.00   0.07  -0.08    -0.05   0.05   0.05    -0.03  -0.04  -0.01
  22   1    -0.08  -0.08  -0.22     0.03   0.04  -0.03     0.01   0.11   0.04
  23   1    -0.50  -0.29  -0.02    -0.06  -0.09  -0.02     0.02  -0.01   0.01
  24   1    -0.05  -0.03   0.01    -0.05  -0.03  -0.05     0.05   0.00   0.17
                     19                     20                     21
                        a                      a                      a 
 Frequencies --   478.6560               526.4709               584.9351
 Red. masses --    11.2990                10.6424                12.0650
 Frc consts  --     0.0000                 0.0000                 0.0000
 IR Inten    --    28.3748                27.6170                22.6864
 Raman Activ --     0.0000                 0.0000                 0.0000
 Depolar     --     0.0000                 0.0000                 0.0000
 Atom AN      X      Y      Z        X      Y      Z        X      Y      Z
   1   6    -0.32   0.05  -0.19     0.04  -0.00   0.05     0.06   0.05  -0.05
   2   6    -0.21  -0.04  -0.15     0.15  -0.13  -0.21    -0.02  -0.35   0.12
   3   1    -0.16  -0.05  -0.04     0.05  -0.00  -0.06    -0.01  -0.18   0.03
   4   6     0.04   0.11   0.27    -0.03  -0.00  -0.11    -0.33  -0.15   0.06
   5   1     0.09   0.06   0.07     0.03   0.06  -0.03    -0.22  -0.10   0.02
   6   6     0.13   0.10   0.20    -0.24   0.08   0.24    -0.17   0.03  -0.24
   7   1     0.14   0.04   0.05    -0.13   0.06   0.06    -0.12   0.02  -0.06
   8   6     0.11   0.08  -0.14    -0.14   0.30  -0.01     0.10   0.08   0.10
   9   1     0.06   0.13  -0.04    -0.07   0.23  -0.02     0.07  -0.00   0.03
  10   6     0.13  -0.05  -0.25     0.20   0.25  -0.09    -0.08   0.02   0.00
  11   1     0.08   0.04  -0.07     0.12   0.14  -0.02    -0.06   0.00   0.00
  12   8    -0.11  -0.25   0.16     0.31  -0.14   0.11    -0.04  -0.37  -0.07
  13   8     0.24  -0.28   0.08    -0.20  -0.08  -0.01    -0.13   0.07  -0.01
  14   8     0.05   0.06   0.05    -0.12  -0.14   0.00     0.32   0.02   0.04
  15   8     0.04   0.04  -0.08    -0.02  -0.28  -0.02     0.15   0.11   0.05
  16   8    -0.18   0.13  -0.06     0.15   0.10   0.03    -0.01   0.30   0.00
  17   8     0.07  -0.01   0.11    -0.05   0.00  -0.02     0.16   0.14  -0.00
  18   1    -0.19   0.02  -0.06    -0.10   0.06  -0.01     0.01   0.04  -0.02
  19   1    -0.09   0.00   0.02     0.07   0.03   0.12     0.05   0.04   0.01
  20   1    -0.01  -0.04  -0.02    -0.15   0.05   0.13    -0.03   0.02   0.02
  21   1     0.02   0.01   0.06    -0.10  -0.07  -0.07     0.03  -0.03  -0.01
  22   1     0.00   0.01  -0.05     0.06  -0.00  -0.08     0.06   0.05  -0.03
  23   1    -0.04   0.15  -0.02     0.02  -0.03   0.01    -0.12   0.04  -0.01
  24   1     0.03   0.02  -0.04     0.03   0.01   0.08     0.04   0.04  -0.02
                     22                     23                     24
                        a                      a                      a 
 Frequencies --   599.9827               617.3033               887.0569
 Red. masses --    11.3569                11.6580                 6.8459
 Frc consts  --     0.0000                 0.0000                 0.0000
 IR Inten    --    14.5969                33.0746                36.4501
 Raman Activ --     0.0000                 0.0000                 0.0000
 Depolar     --     0.0000                 0.0000                 0.0000
 Atom AN      X      Y      Z        X      Y      Z        X      Y      Z
   1   6    -0.15   0.02  -0.13    -0.19   0.07  -0.13     0.36  -0.27  -0.09
   2   6    -0.03  -0.22  -0.10    -0.24  -0.00   0.23    -0.00  -0.09  -0.14
   3   1    -0.10  -0.16  -0.03    -0.14  -0.05   0.06    -0.21  -0.00  -0.04
   4   6    -0.01  -0.04   0.25    -0.10  -0.27  -0.03    -0.07  -0.06   0.07
   5   1    -0.00  -0.03   0.07    -0.08  -0.19  -0.01    -0.01  -0.02   0.02
   6   6     0.15  -0.05  -0.13    -0.19   0.15  -0.06    -0.02  -0.00   0.01
   7   1     0.15  -0.06  -0.03    -0.15   0.10  -0.03     0.00   0.01  -0.00
   8   6    -0.06  -0.19  -0.13    -0.14   0.14   0.11     0.00  -0.02   0.00
   9   1    -0.03  -0.20  -0.03    -0.07   0.09   0.02     0.01   0.02   0.00
  10   6     0.13   0.05   0.36     0.16  -0.05  -0.03    -0.14  -0.05  -0.11
  11   1     0.07  -0.00   0.10     0.07  -0.06  -0.01    -0.03  -0.02  -0.03
  12   8     0.43   0.13  -0.02     0.06   0.36  -0.02    -0.20   0.30   0.16
  13   8    -0.16   0.13  -0.11     0.19  -0.27  -0.01     0.06  -0.03   0.03
  14   8    -0.29  -0.09  -0.01    -0.08  -0.08  -0.03     0.03   0.01   0.00
  15   8     0.06   0.15   0.00     0.14   0.15  -0.01     0.03   0.05  -0.01
  16   8    -0.05   0.06  -0.06     0.26  -0.20   0.01     0.04  -0.03  -0.02
  17   8     0.03   0.02   0.04     0.11   0.06   0.03     0.02   0.11  -0.03
  18   1    -0.19   0.06  -0.06    -0.01  -0.00  -0.03    -0.29   0.22  -0.12
  19   1     0.01   0.03   0.10    -0.08   0.00  -0.07     0.25  -0.01   0.44
  20   1    -0.02   0.03   0.01     0.01  -0.05   0.01     0.07  -0.05  -0.04
  21   1    -0.01   0.03   0.01    -0.07  -0.05  -0.07     0.01   0.01   0.01
  22   1    -0.02  -0.00   0.03     0.08   0.08  -0.04     0.01   0.02  -0.01
  23   1    -0.09   0.08  -0.02     0.05  -0.12   0.00    -0.02   0.01  -0.01
  24   1     0.06   0.03   0.04     0.04   0.04  -0.05    -0.16  -0.12   0.20
                     25                     26                     27
                        a                      a                      a 
 Frequencies --   988.9670               991.3713              1021.2322
 Red. masses --     9.0981                10.2383                 9.3977
 Frc consts  --     0.0000                 0.0000                 0.0000
 IR Inten    --   119.3179                70.9713                31.2195
 Raman Activ --     0.0000                 0.0000                 0.0000
 Depolar     --     0.0000                 0.0000                 0.0000
 Atom AN      X      Y      Z        X      Y      Z        X      Y      Z
   1   6     0.04  -0.02   0.10    -0.01  -0.08   0.02     0.03   0.06   0.11
   2   6    -0.15  -0.14   0.03    -0.16  -0.14   0.17     0.02   0.09  -0.24
   3   1    -0.00  -0.00   0.01    -0.03  -0.02   0.04     0.05   0.09  -0.06
   4   6    -0.18  -0.09  -0.25    -0.08  -0.06  -0.35    -0.20  -0.05   0.21
   5   1     0.10  -0.03  -0.06    -0.00  -0.05  -0.09    -0.02   0.07   0.05
   6   6    -0.06   0.16   0.44     0.33  -0.11   0.20    -0.28  -0.05   0.15
   7   1     0.04   0.04   0.11     0.07   0.06   0.03    -0.05   0.06   0.02
   8   6     0.22  -0.06  -0.39    -0.03  -0.23   0.31    -0.05  -0.45   0.07
   9   1     0.01   0.02  -0.11    -0.09  -0.02   0.06    -0.04  -0.16   0.02
  10   6    -0.02  -0.15   0.25     0.08   0.16  -0.28     0.09   0.09  -0.27
  11   1    -0.00   0.03   0.06     0.02   0.02  -0.07     0.03   0.05  -0.06
  12   8    -0.01   0.04  -0.05     0.06  -0.02   0.02     0.03   0.02   0.09
  13   8    -0.06   0.04  -0.00     0.04   0.04   0.02     0.01   0.11   0.03
  14   8    -0.02  -0.05   0.01    -0.14   0.00  -0.10     0.07  -0.03  -0.03
  15   8    -0.01   0.06  -0.07     0.07   0.12  -0.10     0.04   0.21  -0.08
  16   8    -0.03   0.10   0.02    -0.17   0.18   0.05     0.18  -0.16  -0.05
  17   8     0.04   0.07  -0.04     0.07   0.10  -0.04    -0.03  -0.03  -0.01
  18   1     0.07  -0.01   0.03     0.01   0.04  -0.01     0.05  -0.07   0.05
  19   1     0.03   0.01  -0.02     0.01  -0.01   0.05     0.01   0.03  -0.08
  20   1     0.17  -0.10  -0.11    -0.18   0.12   0.12    -0.15   0.11   0.09
  21   1     0.18   0.09   0.18     0.04   0.04   0.04     0.22   0.10   0.19
  22   1     0.12   0.14  -0.13    -0.16  -0.15   0.13     0.12   0.16  -0.10
  23   1     0.15  -0.18   0.03     0.13  -0.14   0.03    -0.08   0.11  -0.03
  24   1     0.02   0.03  -0.03    -0.01   0.00   0.01     0.04   0.03  -0.05
                     28                     29                     30
                        a                      a                      a 
 Frequencies --  1029.0631              1044.3395              1057.9655
 Red. masses --    10.9923                 8.0581                10.8099
 Frc consts  --     0.0000                 0.0000                 0.0000
 IR Inten    --    53.0499                72.6296               341.5837
 Raman Activ --     0.0000                 0.0000                 0.0000
 Depolar     --     0.0000                 0.0000                 0.0000
 Atom AN      X      Y      Z        X      Y      Z        X      Y      Z
   1   6     0.20  -0.03   0.32    -0.02  -0.13  -0.11     0.20   0.31  -0.15
   2   6    -0.29   0.03  -0.30    -0.08   0.13   0.24     0.13  -0.26  -0.03
   3   1    -0.05   0.07  -0.08    -0.05  -0.06   0.06    -0.14  -0.11  -0.01
   4   6    -0.19  -0.12   0.09     0.19   0.19  -0.01     0.19  -0.03  -0.07
   5   1    -0.02   0.07   0.02     0.09  -0.03  -0.00     0.06  -0.04  -0.02
   6   6     0.13  -0.13   0.00    -0.16   0.19  -0.07    -0.03   0.07  -0.04
   7   1     0.14  -0.04  -0.00    -0.07  -0.00  -0.01    -0.10   0.02  -0.01
   8   6     0.03   0.20   0.03    -0.03  -0.12  -0.07     0.09  -0.04   0.04
   9   1    -0.02   0.01   0.00    -0.01  -0.22  -0.01    -0.00  -0.07   0.01
  10   6     0.32   0.09   0.29     0.32   0.09   0.13     0.23   0.04   0.05
  11   1     0.06  -0.03   0.05     0.05  -0.02   0.02     0.02  -0.02   0.00
  12   8    -0.32  -0.06  -0.15    -0.17  -0.20  -0.22    -0.36   0.17  -0.00
  13   8     0.08  -0.07  -0.07     0.05   0.04  -0.05     0.05   0.01  -0.01
  14   8    -0.09  -0.00   0.00     0.04  -0.04   0.02    -0.08  -0.04  -0.05
  15   8     0.07   0.06  -0.04    -0.11  -0.12   0.08    -0.04  -0.04   0.03
  16   8     0.05  -0.06  -0.02    -0.00  -0.02  -0.01    -0.11   0.13   0.04
  17   8     0.05   0.09  -0.10     0.07   0.10  -0.04    -0.19  -0.32   0.21
  18   1     0.15  -0.04   0.09    -0.03   0.16  -0.07    -0.04  -0.08  -0.00
  19   1     0.02  -0.02  -0.03    -0.12  -0.15   0.16     0.24   0.22  -0.10
  20   1    -0.14   0.08   0.07    -0.25   0.16   0.14    -0.11   0.07   0.05
  21   1    -0.12  -0.06  -0.10     0.10   0.04   0.09     0.03   0.02   0.04
  22   1    -0.06  -0.06   0.05     0.11   0.11  -0.09     0.03   0.03  -0.02
  23   1    -0.06   0.09  -0.01     0.07  -0.10   0.01     0.02  -0.04   0.02
  24   1    -0.03  -0.01   0.00    -0.17  -0.13   0.18     0.15   0.08  -0.12
                     31                     32                     33
                        a                      a                      a 
 Frequencies --  1078.4567              1086.9692              1096.4429
 Red. masses --    10.0590                11.4002                10.6632
 Frc consts  --     0.0000                 0.0000                 0.0000
 IR Inten    --   218.5250                84.5368               137.3051
 Raman Activ --     0.0000                 0.0000                 0.0000
 Depolar     --     0.0000                 0.0000                 0.0000
 Atom AN      X      Y      Z        X      Y      Z        X      Y      Z
   1   6     0.26   0.17   0.10     0.08   0.15  -0.21     0.24   0.28  -0.15
   2   6    -0.40  -0.05   0.03     0.02   0.07   0.17    -0.15   0.35  -0.02
   3   1    -0.30  -0.13  -0.00    -0.05  -0.03   0.04    -0.14   0.05  -0.02
   4   6    -0.03   0.28  -0.04    -0.10   0.21  -0.02    -0.10  -0.11   0.03
   5   1     0.11   0.10  -0.02     0.03   0.05  -0.01    -0.19  -0.12   0.01
   6   6    -0.02   0.05  -0.06    -0.13  -0.42   0.15     0.10   0.06   0.04
   7   1     0.15  -0.08  -0.00     0.05  -0.10   0.02    -0.15   0.10   0.00
   8   6    -0.26  -0.02  -0.06    -0.14   0.02  -0.08     0.36   0.03   0.12
   9   1    -0.00  -0.15   0.01    -0.03   0.26  -0.02     0.03   0.07   0.01
  10   6    -0.26   0.16  -0.04     0.25  -0.25   0.02    -0.10   0.02   0.02
  11   1     0.00   0.03  -0.01     0.05   0.01   0.01    -0.04  -0.01   0.01
  12   8     0.26  -0.09  -0.01    -0.03  -0.08  -0.09     0.20  -0.23  -0.08
  13   8     0.10  -0.13  -0.07    -0.17   0.19   0.10    -0.02  -0.01  -0.01
  14   8     0.20   0.05   0.12     0.11   0.05   0.09    -0.26  -0.07  -0.17
  15   8    -0.03  -0.06   0.04     0.15   0.27  -0.19    -0.01  -0.03   0.02
  16   8     0.07  -0.10  -0.06     0.07  -0.10  -0.05     0.02  -0.04   0.01
  17   8    -0.07  -0.12   0.07    -0.07  -0.14   0.12    -0.10  -0.22   0.14
  18   1     0.09  -0.01   0.04    -0.01   0.10  -0.06     0.06   0.13  -0.04
  19   1     0.12   0.09  -0.03    -0.01  -0.00   0.05    -0.06  -0.03   0.04
  20   1    -0.00  -0.01   0.02     0.02   0.01  -0.03     0.04  -0.03  -0.02
  21   1    -0.03  -0.03  -0.04    -0.10  -0.07  -0.08     0.07   0.06   0.08
  22   1     0.02   0.01  -0.02    -0.07  -0.05   0.05    -0.00  -0.01   0.01
  23   1     0.09  -0.14  -0.00     0.06  -0.08  -0.01    -0.06   0.07  -0.01
  24   1     0.04   0.02  -0.04    -0.06  -0.07   0.07    -0.13  -0.14   0.14
                     34                     35                     36
                        a                      a                      a 
 Frequencies --  1099.1216              1121.3390              1131.1005
 Red. masses --     9.5982                 9.8352                 8.1096
 Frc consts  --     0.0000                 0.0000                 0.0000
 IR Inten    --    51.4926                66.4095                43.2705
 Raman Activ --     0.0000                 0.0000                 0.0000
 Depolar     --     0.0000                 0.0000                 0.0000
 Atom AN      X      Y      Z        X      Y      Z        X      Y      Z
   1   6    -0.01   0.10  -0.20     0.07   0.12  -0.03     0.08  -0.05   0.18
   2   6     0.25   0.11  -0.02     0.01   0.21  -0.14    -0.19   0.08  -0.09
   3   1     0.15   0.05  -0.00     0.03   0.13  -0.04    -0.24  -0.03  -0.03
   4   6    -0.43  -0.05  -0.01     0.18  -0.51   0.01     0.21  -0.08   0.01
   5   1    -0.25  -0.12  -0.00     0.24  -0.30   0.01    -0.10  -0.08   0.00
   6   6     0.28   0.29   0.07    -0.10  -0.09   0.01     0.11   0.20  -0.15
   7   1     0.25   0.04   0.03     0.13  -0.10   0.01    -0.21   0.18  -0.05
   8   6    -0.28   0.01  -0.16    -0.25  -0.01  -0.09    -0.26  -0.12  -0.11
   9   1    -0.11  -0.09  -0.04    -0.01  -0.08  -0.00    -0.15   0.25  -0.05
  10   6     0.03   0.02   0.06    -0.06   0.02  -0.01     0.22  -0.28  -0.09
  11   1     0.02  -0.01   0.01     0.02   0.01  -0.00     0.08   0.05  -0.01
  12   8    -0.10   0.01  -0.01     0.08  -0.02  -0.01     0.07  -0.02  -0.04
  13   8     0.05  -0.03  -0.03     0.04  -0.02  -0.02    -0.19   0.19   0.12
  14   8     0.18   0.02   0.12     0.17   0.06   0.12     0.14  -0.01   0.07
  15   8    -0.02  -0.16   0.07     0.03   0.09  -0.03    -0.00  -0.11   0.07
  16   8     0.11  -0.09  -0.06    -0.24   0.31   0.13    -0.06   0.04   0.05
  17   8    -0.06  -0.11   0.09    -0.02  -0.08   0.03     0.01   0.05  -0.06
  18   1    -0.07   0.03  -0.05     0.05   0.05  -0.01    -0.01  -0.08   0.06
  19   1    -0.00   0.01   0.01    -0.07  -0.04  -0.01     0.04   0.02  -0.02
  20   1    -0.09   0.05   0.05    -0.04   0.03   0.03     0.08  -0.04  -0.06
  21   1     0.08   0.03   0.06    -0.08  -0.05  -0.08     0.17   0.07   0.15
  22   1    -0.11  -0.13   0.10     0.07   0.08  -0.06    -0.13  -0.15   0.13
  23   1     0.07  -0.06  -0.01     0.05  -0.05   0.04    -0.08   0.09   0.00
  24   1    -0.00  -0.02   0.01    -0.10  -0.09   0.10     0.03   0.03  -0.04
                     37                     38                     39
                        a                      a                      a 
 Frequencies --  1144.6428              1169.4948              1174.5084
 Red. masses --     7.1470                 6.1427                 4.4659
 Frc consts  --     0.0000                 0.0000                 0.0000
 IR Inten    --   109.5065                67.8896                99.2260
 Raman Activ --     0.0000                 0.0000                 0.0000
 Depolar     --     0.0000                 0.0000                 0.0000
 Atom AN      X      Y      Z        X      Y      Z        X      Y      Z
   1   6    -0.02   0.08  -0.08    -0.01  -0.25   0.03     0.02  -0.07  -0.11
   2   6     0.01  -0.15   0.06     0.11   0.35   0.09    -0.14  -0.02   0.21
   3   1     0.11   0.01   0.02    -0.17   0.01   0.01    -0.01   0.32   0.04
   4   6     0.17  -0.04  -0.09     0.04   0.05   0.06     0.07  -0.19  -0.20
   5   1    -0.07   0.19  -0.02    -0.11  -0.28   0.02    -0.11   0.31  -0.06
   6   6    -0.03  -0.17   0.08    -0.06  -0.19   0.09     0.12   0.04   0.10
   7   1    -0.25   0.05   0.00    -0.11  -0.07   0.02     0.03  -0.15   0.05
   8   6    -0.15  -0.02  -0.12     0.04   0.08  -0.07    -0.03   0.09  -0.11
   9   1    -0.23   0.10  -0.06    -0.10   0.07  -0.03    -0.03  -0.09  -0.02
  10   6    -0.19   0.29   0.23    -0.14   0.11   0.16    -0.01  -0.16  -0.06
  11   1     0.04   0.19   0.05    -0.05  -0.02   0.03    -0.06  -0.25  -0.02
  12   8    -0.08   0.05  -0.04     0.03  -0.16  -0.10     0.12  -0.03  -0.06
  13   8     0.18  -0.22  -0.15     0.12  -0.08  -0.10    -0.01   0.09   0.04
  14   8     0.11  -0.03   0.06     0.00  -0.03   0.00     0.03   0.03   0.06
  15   8     0.10   0.10  -0.10     0.06   0.10  -0.09    -0.07  -0.01  -0.00
  16   8    -0.01  -0.02   0.06    -0.03   0.01  -0.00     0.04  -0.04   0.09
  17   8     0.02  -0.04   0.03    -0.06   0.07  -0.04    -0.04  -0.01   0.06
  18   1     0.10   0.10  -0.03    -0.32  -0.20   0.01    -0.04   0.05  -0.04
  19   1    -0.08  -0.05   0.01     0.23   0.12   0.03     0.16   0.09   0.06
  20   1     0.02  -0.04  -0.01    -0.13   0.08   0.09    -0.17   0.12   0.11
  21   1     0.20   0.09   0.18     0.09   0.04   0.08    -0.07  -0.03  -0.06
  22   1    -0.12  -0.13   0.11    -0.03  -0.02   0.03     0.12   0.14  -0.12
  23   1    -0.19   0.24  -0.01     0.05  -0.08   0.01    -0.29   0.36  -0.02
  24   1    -0.09  -0.08   0.09     0.23   0.21  -0.22     0.10   0.08  -0.09
                     40                     41                     42
                        a                      a                      a 
 Frequencies --  1201.1081              1211.4106              1233.0311
 Red. masses --     4.7775                 3.8475                 3.8507
 Frc consts  --     0.0000                 0.0000                 0.0000
 IR Inten    --    40.9492                 7.5967               126.8795
 Raman Activ --     0.0000                 0.0000                 0.0000
 Depolar     --     0.0000                 0.0000                 0.0000
 Atom AN      X      Y      Z        X      Y      Z        X      Y      Z
   1   6    -0.03   0.11   0.10     0.01  -0.08  -0.13     0.00  -0.01  -0.03
   2   6     0.05  -0.12  -0.13    -0.14   0.00   0.09    -0.03  -0.01   0.01
   3   1    -0.04  -0.19  -0.03     0.21   0.31   0.02     0.07   0.03   0.00
   4   6     0.03   0.07   0.04    -0.12  -0.08   0.13     0.01   0.01   0.00
   5   1    -0.01  -0.03   0.01     0.47   0.16   0.02    -0.09   0.02  -0.00
   6   6    -0.01  -0.07  -0.04    -0.20   0.02  -0.22     0.18  -0.14  -0.20
   7   1    -0.03  -0.09  -0.00     0.18   0.28  -0.10     0.30  -0.22  -0.02
   8   6     0.06   0.23  -0.11     0.05   0.11   0.03    -0.13   0.03   0.24
   9   1    -0.12   0.14  -0.05     0.00   0.11  -0.00    -0.18   0.42   0.02
  10   6    -0.21  -0.23  -0.02    -0.02  -0.04   0.03     0.04   0.05   0.05
  11   1    -0.06  -0.48  -0.00    -0.03  -0.07   0.01     0.05   0.11   0.02
  12   8     0.08   0.13   0.16     0.05  -0.04  -0.04    -0.03  -0.01  -0.03
  13   8     0.11   0.08   0.01     0.01   0.01  -0.00    -0.01  -0.03  -0.01
  14   8    -0.00  -0.07  -0.03    -0.03  -0.09  -0.08    -0.02  -0.08  -0.09
  15   8     0.02   0.00  -0.02     0.09  -0.04   0.06    -0.17  -0.02   0.10
  16   8    -0.02   0.02  -0.03    -0.00   0.02  -0.01    -0.02   0.02  -0.03
  17   8     0.05  -0.00  -0.04    -0.04  -0.02   0.07    -0.01  -0.00   0.01
  18   1     0.09  -0.02   0.04     0.02   0.11  -0.06     0.01   0.02  -0.01
  19   1    -0.14  -0.07  -0.06     0.15   0.08   0.06     0.03   0.01   0.01
  20   1    -0.33   0.23   0.23    -0.04   0.02   0.03     0.07  -0.05  -0.05
  21   1     0.17   0.08   0.16     0.19   0.09   0.16     0.23   0.11   0.21
  22   1    -0.02  -0.03   0.01    -0.16  -0.18   0.15     0.29   0.32  -0.26
  23   1     0.07  -0.09   0.00     0.08  -0.08   0.01     0.04  -0.07  -0.00
  24   1    -0.10  -0.09   0.11     0.09   0.08  -0.08     0.01   0.01  -0.01
                     43                     44                     45
                        a                      a                      a 
 Frequencies --  1243.0432              1267.1946              1285.5925
 Red. masses --     4.6367                 3.9815                 3.3677
 Frc consts  --     0.0000                 0.0000                 0.0000
 IR Inten    --    98.7463                47.0694                45.3586
 Raman Activ --     0.0000                 0.0000                 0.0000
 Depolar     --     0.0000                 0.0000                 0.0000
 Atom AN      X      Y      Z        X      Y      Z        X      Y      Z
   1   6    -0.01  -0.01  -0.01    -0.03   0.13   0.11     0.03  -0.06  -0.03
   2   6    -0.03  -0.02  -0.01     0.32  -0.04   0.14    -0.07   0.07  -0.04
   3   1     0.08  -0.01  -0.00    -0.54   0.12   0.02     0.13  -0.23  -0.00
   4   6    -0.01   0.00   0.00    -0.08  -0.09  -0.15     0.04   0.02  -0.13
   5   1    -0.01   0.00   0.00     0.12   0.14  -0.04     0.03  -0.17  -0.03
   6   6     0.06   0.07  -0.01    -0.15   0.04  -0.01    -0.12   0.14   0.07
   7   1    -0.05   0.20  -0.03     0.32   0.04  -0.02     0.11  -0.36   0.07
   8   6    -0.00  -0.36  -0.07    -0.03  -0.00   0.06    -0.17   0.10   0.11
   9   1     0.38   0.46   0.02     0.20   0.09   0.04     0.50  -0.02   0.12
  10   6    -0.21  -0.15   0.19     0.01   0.02   0.05    -0.04  -0.01   0.02
  11   1     0.11   0.21   0.05    -0.14   0.08   0.00     0.33  -0.05   0.01
  12   8     0.01   0.05  -0.02    -0.00  -0.02  -0.07    -0.04   0.02  -0.02
  13   8     0.17   0.02  -0.12     0.02  -0.02  -0.04    -0.02   0.01   0.05
  14   8     0.01   0.10  -0.00    -0.02  -0.04  -0.07    -0.03  -0.08  -0.15
  15   8    -0.05  -0.03   0.06     0.03  -0.01   0.02     0.08   0.01  -0.09
  16   8     0.01  -0.01  -0.00     0.03  -0.01   0.05     0.04  -0.05   0.08
  17   8    -0.00  -0.00   0.01     0.06   0.02  -0.11    -0.04   0.01   0.04
  18   1     0.02   0.03  -0.01    -0.20  -0.24   0.07     0.06   0.08  -0.02
  19   1     0.03   0.02   0.00    -0.17  -0.08  -0.09     0.00  -0.03   0.04
  20   1    -0.28   0.20   0.17    -0.01   0.00   0.00     0.03  -0.02  -0.01
  21   1    -0.18  -0.09  -0.17     0.08   0.04   0.06     0.18   0.09   0.15
  22   1     0.04   0.05  -0.03    -0.04  -0.05   0.04    -0.11  -0.12   0.09
  23   1     0.00  -0.00  -0.00    -0.10   0.14  -0.01    -0.15   0.18  -0.00
  24   1     0.01   0.01  -0.00    -0.11  -0.10   0.10     0.07   0.07  -0.07
                     46                     47                     48
                        a                      a                      a 
 Frequencies --  1292.6137              1304.5872              1309.4438
 Red. masses --     2.9535                 2.9749                 3.8864
 Frc consts  --     0.0000                 0.0000                 0.0000
 IR Inten    --    62.5030                21.1656                15.5295
 Raman Activ --     0.0000                 0.0000                 0.0000
 Depolar     --     0.0000                 0.0000                 0.0000
 Atom AN      X      Y      Z        X      Y      Z        X      Y      Z
   1   6    -0.09   0.14   0.04     0.10   0.00  -0.00    -0.03   0.03   0.01
   2   6    -0.18  -0.01   0.07     0.07   0.18   0.06     0.13   0.01   0.06
   3   1     0.29   0.06   0.02     0.01  -0.41   0.01    -0.15   0.17   0.01
   4   6     0.04   0.08  -0.01    -0.09  -0.12  -0.13    -0.19  -0.16   0.21
   5   1    -0.03  -0.09  -0.00     0.17   0.18  -0.04     0.19   0.35   0.05
   6   6    -0.03  -0.01   0.01     0.04  -0.13  -0.04     0.26   0.06  -0.04
   7   1     0.03   0.02  -0.00     0.11   0.34  -0.07    -0.48  -0.32   0.06
   8   6     0.01   0.02   0.01     0.09   0.03  -0.01    -0.10   0.04   0.03
   9   1     0.01  -0.03   0.01    -0.22  -0.08  -0.04     0.12  -0.03   0.03
  10   6    -0.03  -0.01  -0.01    -0.14  -0.00  -0.03    -0.07  -0.02   0.01
  11   1     0.19  -0.03   0.01     0.55  -0.09   0.01     0.31   0.02   0.01
  12   8     0.01  -0.02  -0.03    -0.06  -0.01  -0.04    -0.01  -0.02  -0.10
  13   8    -0.02   0.01   0.03    -0.02   0.03   0.07    -0.01   0.01   0.03
  14   8    -0.00  -0.01  -0.01     0.00   0.03   0.05    -0.00  -0.01  -0.03
  15   8     0.00  -0.00   0.00    -0.04  -0.01   0.08    -0.00   0.01  -0.06
  16   8     0.01  -0.03   0.01     0.01  -0.01   0.04    -0.03   0.06  -0.10
  17   8     0.19  -0.07  -0.16    -0.05   0.02  -0.00     0.02  -0.00  -0.02
  18   1    -0.33  -0.33   0.06    -0.16  -0.08   0.00    -0.06  -0.05   0.01
  19   1     0.33   0.34  -0.16    -0.11  -0.11   0.02    -0.00   0.01  -0.03
  20   1     0.02  -0.01  -0.01     0.02  -0.00  -0.00     0.01  -0.01  -0.00
  21   1     0.01   0.00   0.01    -0.05  -0.03  -0.03     0.04   0.02   0.03
  22   1    -0.00  -0.01   0.01     0.07   0.08  -0.06     0.01   0.01  -0.03
  23   1    -0.03   0.03  -0.00    -0.07   0.10  -0.00     0.18  -0.21   0.00
  24   1    -0.28  -0.29   0.28     0.06   0.06  -0.06    -0.03  -0.03   0.03
                     49                     50                     51
                        a                      a                      a 
 Frequencies --  1319.1086              1332.8079              1336.1668
 Red. masses --     3.6990                 3.8652                 3.7735
 Frc consts  --     0.0000                 0.0000                 0.0000
 IR Inten    --    65.3244                17.5098                35.9737
 Raman Activ --     0.0000                 0.0000                 0.0000
 Depolar     --     0.0000                 0.0000                 0.0000
 Atom AN      X      Y      Z        X      Y      Z        X      Y      Z
   1   6     0.01  -0.01  -0.00    -0.09  -0.06   0.00     0.37   0.15  -0.05
   2   6    -0.01  -0.09  -0.01    -0.02   0.30   0.02    -0.22  -0.05   0.05
   3   1    -0.07   0.25  -0.01     0.08  -0.49   0.02     0.34  -0.01   0.03
   4   6     0.30  -0.08   0.12     0.07  -0.29   0.00     0.06  -0.05   0.04
   5   1    -0.56   0.21   0.04    -0.14   0.47  -0.01    -0.05   0.13   0.01
   6   6    -0.23  -0.04   0.08    -0.07   0.03   0.02    -0.00   0.05  -0.00
   7   1     0.23   0.16  -0.01     0.08  -0.02   0.01    -0.05  -0.08   0.02
   8   6     0.01  -0.00  -0.01    -0.04   0.07   0.01    -0.05  -0.04  -0.02
   9   1     0.12  -0.05   0.02     0.08  -0.05   0.02     0.09   0.06   0.01
  10   6    -0.08   0.07  -0.00     0.08  -0.10   0.01     0.08   0.04   0.01
  11   1     0.33  -0.16   0.00    -0.33   0.19   0.00    -0.22  -0.05  -0.00
  12   8    -0.01  -0.00  -0.08     0.02   0.00   0.09     0.02   0.02   0.06
  13   8    -0.02   0.01   0.05     0.02  -0.01  -0.06     0.00  -0.02  -0.02
  14   8     0.00  -0.01  -0.02    -0.00  -0.02  -0.03     0.00  -0.00  -0.01
  15   8     0.04   0.01   0.00     0.04   0.01  -0.01     0.01   0.00  -0.02
  16   8    -0.07   0.09  -0.13    -0.04   0.06  -0.07    -0.02   0.02  -0.03
  17   8    -0.01   0.01   0.01     0.03  -0.02  -0.01    -0.07   0.04  -0.02
  18   1     0.05   0.02  -0.00     0.04   0.03  -0.00    -0.47  -0.29   0.01
  19   1    -0.03  -0.03   0.02     0.20   0.16  -0.01    -0.34  -0.30   0.04
  20   1     0.03  -0.02  -0.01    -0.04   0.02   0.02     0.01  -0.01  -0.01
  21   1     0.01   0.00   0.01     0.04   0.02   0.03     0.01   0.00   0.00
  22   1    -0.05  -0.05   0.05    -0.03  -0.04   0.02    -0.02  -0.02   0.01
  23   1     0.18  -0.24  -0.00     0.10  -0.11  -0.00     0.06  -0.06   0.00
  24   1     0.02   0.02  -0.02    -0.03  -0.04   0.05     0.07   0.08  -0.10
                     52                     53                     54
                        a                      a                      a 
 Frequencies --  1346.9684              1355.2701              1445.6695
 Red. masses --     5.2948                 5.2876                 1.7856
 Frc consts  --     0.0000                 0.0000                 0.0000
 IR Inten    --    19.8005                10.3888                 1.0389
 Raman Activ --     0.0000                 0.0000                 0.0000
 Depolar     --     0.0000                 0.0000                 0.0000
 Atom AN      X      Y      Z        X      Y      Z        X      Y      Z
   1   6     0.06   0.03   0.00     0.01  -0.00  -0.00     0.12  -0.14   0.19
   2   6    -0.05  -0.10  -0.02    -0.01   0.01   0.01     0.01  -0.01   0.01
   3   1     0.02   0.12  -0.01     0.00  -0.01  -0.00    -0.00   0.01   0.00
   4   6     0.04   0.07   0.01     0.03  -0.06   0.01     0.01   0.00  -0.00
   5   1    -0.07  -0.08   0.01     0.02   0.06  -0.00    -0.02   0.01  -0.00
   6   6    -0.00  -0.09   0.02    -0.25   0.35  -0.06    -0.00   0.00   0.00
   7   1     0.04   0.03  -0.00     0.17  -0.48   0.07     0.01  -0.00   0.00
   8   6     0.04   0.31   0.10     0.32  -0.22   0.08    -0.00  -0.00   0.00
   9   1    -0.08  -0.32   0.03    -0.45   0.17  -0.07     0.00   0.00   0.00
  10   6    -0.11  -0.46  -0.04    -0.09  -0.05  -0.01     0.00   0.00  -0.00
  11   1     0.10   0.63   0.01     0.14   0.13   0.01    -0.01  -0.00   0.00
  12   8     0.04   0.07  -0.00    -0.01  -0.00  -0.02    -0.00   0.01   0.00
  13   8     0.06   0.05  -0.07     0.02   0.02  -0.01    -0.00  -0.00  -0.00
  14   8    -0.02  -0.04  -0.03    -0.01   0.05   0.07    -0.00  -0.00  -0.00
  15   8    -0.00  -0.00   0.00     0.08  -0.02  -0.07     0.00  -0.00  -0.00
  16   8    -0.01  -0.00  -0.00     0.02  -0.00  -0.00    -0.00   0.00  -0.00
  17   8    -0.01   0.01   0.00    -0.01   0.00   0.00    -0.00  -0.02   0.03
  18   1    -0.04  -0.03   0.00    -0.01  -0.01   0.00    -0.36   0.56  -0.15
  19   1    -0.09  -0.07   0.01    -0.01  -0.01   0.00    -0.06   0.03  -0.67
  20   1    -0.16   0.11   0.09    -0.04   0.03   0.02     0.00  -0.00  -0.00
  21   1     0.07   0.03   0.07    -0.13  -0.06  -0.09     0.00   0.00   0.00
  22   1     0.01   0.01  -0.01    -0.13  -0.15   0.11    -0.00  -0.00  -0.00
  23   1     0.00  -0.01   0.00    -0.00   0.00  -0.00     0.01  -0.00  -0.00
  24   1     0.02   0.02  -0.02     0.01   0.01  -0.01    -0.00  -0.01   0.01
                     55                     56                     57
                        a                      a                      a 
 Frequencies --  2740.4811              2833.4397              2836.3637
 Red. masses --     1.6529                 1.7109                 1.7021
 Frc consts  --     0.0000                 0.0000                 0.0000
 IR Inten    --   154.8358                 2.6402               177.4944
 Raman Activ --     0.0000                 0.0000                 0.0000
 Depolar     --     0.0000                 0.0000                 0.0000
 Atom AN      X      Y      Z        X      Y      Z        X      Y      Z
   1   6     0.00   0.00   0.00    -0.00   0.00   0.00    -0.00   0.00   0.00
   2   6     0.00  -0.00   0.00    -0.00   0.00  -0.19    -0.00   0.00  -0.17
   3   1    -0.01   0.00  -0.00    -0.02   0.02   0.72    -0.02   0.01   0.64
   4   6    -0.00   0.00   0.00     0.00   0.00   0.00     0.00  -0.00  -0.00
   5   1     0.00  -0.00  -0.00     0.00   0.00  -0.00    -0.00  -0.00  -0.05
   6   6     0.00   0.00   0.01     0.01   0.03   0.16    -0.01  -0.04  -0.18
   7   1    -0.00  -0.00  -0.02    -0.01  -0.10  -0.64     0.01   0.11   0.71
   8   6    -0.00   0.00  -0.01     0.00   0.00  -0.00    -0.00  -0.00   0.01
   9   1     0.00   0.00  -0.03    -0.01   0.00   0.03     0.01  -0.00  -0.05
  10   6     0.01   0.02  -0.24    -0.00  -0.00   0.00    -0.00   0.00  -0.00
  11   1    -0.02  -0.01   0.97     0.01   0.00  -0.01     0.00  -0.00   0.02
  12   8    -0.02  -0.00  -0.02     0.01  -0.01  -0.01     0.01  -0.01  -0.01
  13   8     0.01  -0.01  -0.01    -0.00   0.00   0.00     0.00   0.00   0.00
  14   8     0.00  -0.00   0.00    -0.00  -0.00  -0.00     0.00   0.00   0.00
  15   8    -0.00  -0.00   0.00    -0.00  -0.01   0.01     0.01   0.01  -0.01
  16   8    -0.00   0.00   0.00    -0.00  -0.00   0.00    -0.00   0.00   0.00
  17   8    -0.00  -0.00   0.00    -0.00  -0.00   0.00    -0.00  -0.00   0.00
  18   1     0.00  -0.00  -0.00     0.00  -0.01  -0.04     0.00  -0.01  -0.04
  19   1     0.00  -0.00   0.00     0.00  -0.00   0.00     0.00  -0.00   0.00
  20   1    -0.00  -0.00   0.01    -0.00  -0.00  -0.00    -0.00  -0.00   0.00
  21   1     0.00   0.00  -0.00    -0.00   0.00   0.00     0.00  -0.00  -0.00
  22   1    -0.00  -0.00  -0.00     0.00  -0.00  -0.00    -0.00   0.00   0.00
  23   1    -0.00  -0.00  -0.00     0.00   0.00  -0.00    -0.00   0.00  -0.00
  24   1     0.00   0.00  -0.00    -0.00  -0.00  -0.00    -0.00  -0.00  -0.00
                     58                     59                     60
                        a                      a                      a 
 Frequencies --  2900.6336              2921.9835              2955.6468
 Red. masses --     1.7365                 1.7352                 1.7516
 Frc consts  --     0.0000                 0.0000                 0.0000
 IR Inten    --    84.9722                66.4120                57.6910
 Raman Activ --     0.0000                 0.0000                 0.0000
 Depolar     --     0.0000                 0.0000                 0.0000
 Atom AN      X      Y      Z        X      Y      Z        X      Y      Z
   1   6     0.00  -0.00  -0.00     0.03  -0.07  -0.24    -0.00   0.01   0.01
   2   6    -0.00  -0.00   0.00    -0.00  -0.00  -0.02    -0.00  -0.00   0.02
   3   1     0.00  -0.00  -0.01    -0.00   0.00   0.05     0.00  -0.00  -0.03
   4   6     0.00   0.00  -0.01     0.00   0.00   0.01     0.01   0.00   0.26
   5   1    -0.00   0.00   0.03    -0.00  -0.00  -0.04    -0.01  -0.02  -0.96
   6   6    -0.00   0.00   0.02     0.00  -0.00   0.00     0.00   0.00   0.02
   7   1    -0.00  -0.01  -0.05     0.00   0.00   0.00    -0.00  -0.00  -0.03
   8   6    -0.05   0.01   0.25     0.00  -0.00  -0.00    -0.00   0.00   0.01
   9   1     0.15  -0.04  -0.95    -0.00   0.00   0.01     0.01  -0.00  -0.03
  10   6    -0.00  -0.00   0.02     0.00   0.00  -0.00    -0.00  -0.00   0.00
  11   1     0.00  -0.00  -0.02     0.00  -0.00   0.00    -0.00   0.00  -0.00
  12   8    -0.00   0.00  -0.00     0.00  -0.00   0.00     0.00   0.00  -0.00
  13   8     0.00   0.00  -0.00     0.00   0.00   0.00    -0.00   0.00  -0.00
  14   8     0.01   0.00   0.01    -0.00   0.00  -0.00     0.00  -0.00   0.00
  15   8     0.00  -0.00  -0.00    -0.00   0.00   0.00    -0.00   0.00  -0.00
  16   8     0.00  -0.00  -0.00    -0.00   0.00   0.00    -0.00   0.01   0.00
  17   8     0.00   0.00  -0.00     0.01   0.01  -0.01    -0.00  -0.00   0.00
  18   1    -0.00   0.00   0.01    -0.09   0.22   0.93     0.00  -0.01  -0.04
  19   1    -0.00   0.00  -0.00    -0.02   0.02  -0.03     0.01  -0.02  -0.00
  20   1    -0.00  -0.00   0.00    -0.00  -0.00  -0.00    -0.00  -0.00   0.00
  21   1     0.00   0.00  -0.00     0.00  -0.00  -0.00    -0.00   0.00   0.00
  22   1    -0.00   0.00   0.00     0.00  -0.00  -0.00     0.00  -0.00   0.00
  23   1     0.00  -0.00   0.00     0.00   0.00  -0.00     0.00  -0.00   0.01
  24   1     0.00  -0.00   0.00     0.00   0.00   0.01     0.00  -0.00  -0.00
                     61                     62                     63
                        a                      a                      a 
 Frequencies --  2996.4960              3435.7876              3450.3369
 Red. masses --     1.7130                 1.8746                 1.8714
 Frc consts  --     0.0000                 0.0000                 0.0000
 IR Inten    --    16.6839               105.6203               138.8217
 Raman Activ --     0.0000                 0.0000                 0.0000
 Depolar     --     0.0000                 0.0000                 0.0000
 Atom AN      X      Y      Z        X      Y      Z        X      Y      Z
   1   6     0.16  -0.20  -0.02     0.00  -0.00  -0.00     0.00  -0.00   0.00
   2   6     0.01  -0.00  -0.00     0.00  -0.00   0.00     0.00   0.00   0.00
   3   1    -0.00  -0.00   0.00    -0.00   0.00  -0.00    -0.00  -0.00  -0.00
   4   6     0.00  -0.00   0.01     0.00   0.00   0.00    -0.00   0.00  -0.00
   5   1     0.00  -0.00  -0.02    -0.00  -0.00  -0.00    -0.00   0.00   0.00
   6   6     0.00  -0.00   0.00     0.00  -0.01   0.00     0.00   0.00   0.00
   7   1    -0.00  -0.00  -0.00     0.00  -0.00  -0.00    -0.00   0.00  -0.00
   8   6     0.00   0.00  -0.00     0.00  -0.00  -0.00     0.00   0.00  -0.00
   9   1    -0.00  -0.00   0.00    -0.00   0.00   0.00    -0.00  -0.00   0.00
  10   6    -0.00  -0.00  -0.00     0.00  -0.00   0.00    -0.00   0.01   0.00
  11   1    -0.00  -0.00   0.00    -0.00  -0.00  -0.00     0.00  -0.00  -0.00
  12   8    -0.00   0.00   0.00    -0.00   0.00  -0.00    -0.00  -0.00  -0.00
  13   8     0.00   0.00   0.00     0.00   0.00  -0.00     0.11   0.21  -0.04
  14   8    -0.00   0.00   0.00    -0.00   0.00   0.00    -0.01   0.01   0.00
  15   8    -0.00   0.00  -0.00     0.17  -0.17  -0.01    -0.00   0.00   0.00
  16   8    -0.00   0.00   0.00    -0.00  -0.00  -0.01    -0.00  -0.00   0.00
  17   8    -0.00  -0.01   0.00     0.00  -0.00  -0.00     0.00  -0.01  -0.00
  18   1     0.03  -0.03  -0.04    -0.00   0.00   0.00    -0.00   0.00  -0.00
  19   1    -0.59   0.76   0.12    -0.00   0.00  -0.00    -0.00   0.00   0.00
  20   1    -0.00  -0.00  -0.00    -0.01  -0.02   0.00    -0.42  -0.86   0.14
  21   1    -0.00  -0.00  -0.00     0.00  -0.00  -0.00     0.02  -0.03  -0.01
  22   1     0.00  -0.00   0.00    -0.66   0.71   0.04     0.01  -0.01  -0.00
  23   1    -0.00   0.00   0.00    -0.00   0.00   0.03     0.00  -0.00  -0.00
  24   1     0.01  -0.01  -0.00    -0.00   0.00   0.00    -0.02   0.03   0.00
                     64                     65                     66
                        a                      a                      a 
 Frequencies --  3458.1842              3469.4879              3493.9617
 Red. masses --     1.8712                 1.8761                 1.8753
 Frc consts  --     0.0000                 0.0000                 0.0000
 IR Inten    --    72.2033               109.5521                93.4558
 Raman Activ --     0.0000                 0.0000                 0.0000
 Depolar     --     0.0000                 0.0000                 0.0000
 Atom AN      X      Y      Z        X      Y      Z        X      Y      Z
   1   6     0.00  -0.00   0.00     0.00  -0.00   0.00     0.00  -0.01   0.00
   2   6    -0.00   0.00  -0.00     0.00  -0.00  -0.00     0.00   0.00  -0.00
   3   1    -0.00   0.00  -0.00     0.00   0.00   0.00     0.00  -0.00   0.00
   4   6    -0.00   0.00   0.01     0.00  -0.00   0.00     0.00  -0.00   0.00
   5   1    -0.00   0.00  -0.01     0.00   0.00   0.00    -0.00  -0.00  -0.00
   6   6    -0.00  -0.00  -0.00     0.00  -0.00  -0.00    -0.00  -0.00  -0.00
   7   1    -0.00   0.00  -0.00    -0.00   0.00   0.01    -0.00  -0.00   0.00
   8   6    -0.00   0.00   0.00     0.00  -0.00   0.00    -0.00  -0.00   0.00
   9   1     0.00  -0.00  -0.00    -0.00   0.00   0.00     0.00   0.00  -0.00
  10   6    -0.00   0.00   0.00     0.00   0.00  -0.00     0.00  -0.00   0.00
  11   1    -0.00   0.00  -0.00     0.00  -0.00   0.00     0.00   0.00  -0.00
  12   8     0.00  -0.00  -0.00    -0.00  -0.00  -0.00    -0.00  -0.00  -0.00
  13   8    -0.00  -0.00   0.00     0.00   0.01  -0.00    -0.00  -0.01   0.00
  14   8    -0.00   0.00   0.00     0.16  -0.17  -0.07    -0.00   0.00   0.00
  15   8     0.01  -0.01  -0.00     0.00  -0.00  -0.00    -0.00   0.00   0.00
  16   8    -0.02   0.01   0.24    -0.00   0.00   0.00    -0.00   0.00  -0.00
  17   8     0.00  -0.00  -0.00     0.00  -0.00  -0.00     0.13  -0.20  -0.04
  18   1     0.00  -0.00  -0.00     0.00   0.00   0.00    -0.00   0.00  -0.00
  19   1     0.00   0.00   0.00    -0.00   0.00   0.00    -0.01   0.01   0.00
  20   1     0.00   0.00  -0.00    -0.02  -0.03   0.01     0.01   0.03  -0.00
  21   1     0.00  -0.00  -0.00    -0.64   0.68   0.26     0.01  -0.01  -0.00
  22   1    -0.02   0.02   0.00    -0.00   0.00  -0.00     0.00  -0.00  -0.00
  23   1     0.08  -0.05  -0.97    -0.00  -0.00  -0.00     0.00   0.00   0.00
  24   1    -0.00   0.00   0.00    -0.00   0.01   0.00    -0.52   0.81   0.14
