
                                 *****************
                                 * O   R   C   A *
                                 *****************

                                            #,                                       
                                            ###                                      
                                            ####                                     
                                            #####                                    
                                            ######                                   
                                           ########,                                 
                                     ,,################,,,,,                         
                               ,,#################################,,                 
                          ,,##########################################,,             
                       ,#########################################, ''#####,          
                    ,#############################################,,   '####,        
                  ,##################################################,,,,####,       
                ,###########''''           ''''###############################       
              ,#####''   ,,,,##########,,,,          '''####'''          '####       
            ,##' ,,,,###########################,,,                        '##       
           ' ,,###''''                  '''############,,,                           
         ,,##''                                '''############,,,,        ,,,,,,###''
      ,#''                                            '''#######################'''  
     '                                                          ''''####''''         
             ,#######,   #######,   ,#######,      ##                                
            ,#'     '#,  ##    ##  ,#'     '#,    #''#        ,####,   ,####,        
            ##       ##  ##   ,#'  ##            #'  '#       #'       #'  '#        
            ##       ##  #######   ##           ,######,      #####,   #    #        
            '#,     ,#'  ##    ##  '#,     ,#' ,#      #,     #,   #   #,  ,#        
             '#######'   ##     ##  '#######'  #'      '#     '####' # '####'        



                #########################################################
                #                        -***-                          #
                #          Department of theory and spectroscopy        #
                #                                                       #
                #                      Frank Neese                      #
                #                                                       #
                #     Directorship, Architecture, Infrastructure        #
                #                    SHARK, DRIVERS                     #
                #        Core code/Algorithms in most modules           #
                #                                                       #
                #        Max Planck Institute fuer Kohlenforschung      #
                #                Kaiser Wilhelm Platz 1                 #
                #                 D-45470 Muelheim/Ruhr                 #
                #                      Germany                          #
                #                                                       #
                #                  All rights reserved                  #
                #                        -***-                          #
                #########################################################


                         Program Version 6.0.0  -   RELEASE  -


 With contributions from (in alphabetic order):
   Daniel Aravena         : Magnetic Suceptibility
   Michael Atanasov       : Ab Initio Ligand Field Theory (pilot matlab implementation)
   Alexander A. Auer      : GIAO ZORA, VPT2 properties, NMR spectrum
   Ute Becker             : All parallelization in ORCA, NUMFREQ, NUMCALC
   Giovanni Bistoni       : ED, misc. LED, open-shell LED, HFLD
   Martin Brehm           : Molecular dynamics
   Dmytro Bykov           : pre 5.0 version of the SCF Hessian
   Marcos Casanova-Páez   : Triplet and SCS-CIS(D). UHF-(DLPNO)-IP/EA/STEOM-CCSD. UHF-CVS-IP/STEOM-CCSD
   Vijay G. Chilkuri      : MRCI spin determinant printing, contributions to CSF-ICE
   Pauline Colinet        : FMM embedding
   Dipayan Datta          : RHF DLPNO-CCSD density
   Achintya Kumar Dutta   : EOM-CC, STEOM-CC
   Nicolas Foglia         : Exact transition moments, OPA infrastructure, MCD improvements
   Dmitry Ganyushin       : Spin-Orbit,Spin-Spin,Magnetic field MRCI
   Miquel Garcia          : C-PCM and meta-GGA Hessian, CCSD/C-PCM, Gaussian charge scheme
   Tiago L. C. Gouveia    : GS-ROHF, GS-ROCIS
   Yang Guo               : DLPNO-NEVPT2, F12-NEVPT2, CIM, IAO-localization
   Andreas Hansen         : Spin unrestricted coupled pair/coupled cluster methods
   Ingolf Harden          : AUTO-CI MPn and infrastructure 
   Benjamin Helmich-Paris : MC-RPA, TRAH-(SCF,CASSCF), AVAS, COSX integrals, SCF dyn. polar.
   Lee Huntington         : MR-EOM, pCC
   Robert Izsak           : Overlap fitted RIJCOSX, COSX-SCS-MP3, EOM
   Riya Kayal             : Wick's Theorem for AUTO-CI, AUTO-CI UHF-CCSDT
   Emily Kempfer          : AUTO-CI, RHF CISDT and CCSDT
   Christian Kollmar      : KDIIS, OOCD, Brueckner-CCSD(T), CCSD density, CASPT2, CASPT2-K, improved NEVPT2
   Axel Koslowski         : Symmetry handling
   Simone Kossmann        : Meta GGA functionals, TD-DFT gradient, OOMP2, (MP2 Hessian; deprecated post 5.0)
   Lucas Lang             : DCDCAS
   Marvin Lechner         : AUTO-CI (C++ implementation), FIC-MRCC
   Spencer Leger          : CASSCF response
   Dagmar Lenk            : GEPOL surface, SMD, ORCA-2-JSON
   Dimitrios Liakos       : Extrapolation schemes; Compound Job, initial MDCI parallelization
   Dimitrios Manganas     : Further ROCIS development; embedding schemes. LFT, Crystal Embedding
   Dimitrios Pantazis     : SARC Basis sets
   Anastasios Papadopoulos: AUTO-CI, single reference methods and gradients
   Taras Petrenko         : pre 6.0 DFT Hessian and TD-DFT gradient, (ASA, deprecated), ECA, 1-Electron XAS/XES, NRVS
   Peter Pinski           : DLPNO-MP2, DLPNO-MP2 Gradient
   Christoph Reimann      : Effective Core Potentials
   Marius Retegan         : Local ZFS, SOC
   Christoph Riplinger    : Optimizer, TS searches, QM/MM, DLPNO-CCSD(T), (RO)-DLPNO pert. Triples
   Michael Roemelt        : Original ROCIS implementation
   Masaaki Saitow         : Open-shell DLPNO-CCSD energy and density
   Barbara Sandhoefer     : DKH picture change effects
   Kantharuban Sivalingam : CASSCF convergence/infrastructure, NEVPT2 and variants, FIC-MRCI
   Bernardo de Souza      : ESD, SOC TD-DFT
   Georgi Stoychev        : AutoAux, RI-MP2 NMR, DLPNO-MP2 response, X2C
   Van Anh Tran           : RI-MP2 g-tensors
   Willem Van den Heuvel  : Paramagnetic NMR
   Zikuan Wang            : NOTCH, Electric field optimization 
   Frank Wennmohs         : Technical directorship and infrastructure
   Hang Xu                : AUTO-CI-Response properties 


 We gratefully acknowledge several colleagues who have allowed us to
 interface, adapt or use parts of their codes:
   Stefan Grimme, W. Hujo, H. Kruse, P. Pracht,  : VdW corrections, initial TS optimization,
                  C. Bannwarth, S. Ehlert,         DFT functionals, gCP, sTDA/sTD-DF
                  L. Wittmann, M. Mueller
   Ed Valeev, F. Pavosevic, A. Kumar             : LibInt (2-el integral package), F12 methods
   Garnet Chan, S. Sharma, J. Yang, R. Olivares  : DMRG
   Ulf Ekstrom                                   : XCFun DFT Library
   Mihaly Kallay                                 : mrcc  (arbitrary order and MRCC methods)
   Frank Weinhold                                : gennbo (NPA and NBO analysis)
   Simon Mueller                                 : openCOSMO-RS
   Christopher J. Cramer and Donald G. Truhlar   : smd solvation model
   Lars Goerigk                                  : TD-DFT with DH, B97 family of functionals
   V. Asgeirsson, H. Jonsson                     : NEB implementation
   FAccTs GmbH                                   : IRC, NEB, NEB-TS, DLPNO-Multilevel, CI-OPT
                                                   MM, QMMM, 2- and 3-layer-ONIOM, Crystal-QMMM,
                                                   LR-CPCM, SF, NACMEs, symmetry and pop. for TD-DFT,
                                                   nearIR, NL-DFT gradient (VV10), updates on ESD,
                                                   ML-optimized integration grids, MBIS, APM,
                                                   GOAT, DOCKER, SOLVATOR, interface openCOSMO-RS
   S Lehtola, MJT Oliveira, MAL Marques          : LibXC Library
   Liviu Ungur et al                             : ANISO software


 Your calculation uses the libint2 library for the computation of 2-el integrals
 For citations please refer to: http://libint.valeyev.net

 Your ORCA version has been built with support for libXC version: 6.2.2
 For citations please refer to: https://libxc.gitlab.io

 This ORCA versions uses:
   CBLAS   interface :  Fast vector & matrix operations
   LAPACKE interface :  Fast linear algebra routines
   SCALAPACK package :  Parallel linear algebra routines
   Shared memory     :  Shared parallel matrices
   BLAS/LAPACK       :  OpenBLAS 0.3.27  USE64BITINT DYNAMIC_ARCH NO_AFFINITY SkylakeX SINGLE_THREADED
        Core in use  :  SkylakeX
   Copyright (c) 2011-2014, The OpenBLAS Project


Your calculation utilizes the geometrical counterpoise correction gCP
Please cite in your paper:
H.Kruse, S. Grimme J.Chem.Phys., 136, (2012), 154101 
   

Your calculation utilizes the atom-pairwise dispersion correction
based on EEQ partial charges (D4)


Your calculation utilizes the SMD solvation module
Please cite in your paper:
A.V. Marenich, C.J. Cramer, D.G. Truhlar J. Phys. Chem. B, 113, (2009), 6378 

================================================================================

----- Orbital basis set information -----
Your calculation utilizes the basis: def2-mTZVPP
   Stefan Grimme, Andreas Hansen, Sebastian Ehlert, and Jan-Michael Mewes 
   J. Chem. Phys. 154, 064103 (2021). DOI: 10.1063/5.0040021

----- AuxJ basis set information -----
Your calculation utilizes the auxiliary basis: def2/J
   F. Weigend, Phys. Chem. Chem. Phys. 8, 1057 (2006).

================================================================================
                                        WARNINGS
                       Please study these warnings very carefully!
================================================================================

Using LibXC functional ID 497 : Re-regularized SCAN exchange by Furness et al
[ 1]  J. W. Furness, A. D. Kaplan, J. Ning, J. P. Perdew, and J. Sun.,  J. Phys. Chem. Lett. 11, 8208-8215 (2020)
[ 2]  J. W. Furness, A. D. Kaplan, J. Ning, J. P. Perdew, and J. Sun.,  J. Phys. Chem. Lett. 11, 9248-9248 (2020)
Using LibXC functional ID 498 : Re-regularized SCAN correlation by Furness et al
[ 1]  J. W. Furness, A. D. Kaplan, J. Ning, J. P. Perdew, and J. Sun.,  J. Phys. Chem. Lett. 11, 8208-8215 (2020)
[ 2]  J. W. Furness, A. D. Kaplan, J. Ning, J. P. Perdew, and J. Sun.,  J. Phys. Chem. Lett. 11, 9248-9248 (2020)
Using LibXC functional ID 497 : Re-regularized SCAN exchange by Furness et al
[ 1]  J. W. Furness, A. D. Kaplan, J. Ning, J. P. Perdew, and J. Sun.,  J. Phys. Chem. Lett. 11, 8208-8215 (2020)
[ 2]  J. W. Furness, A. D. Kaplan, J. Ning, J. P. Perdew, and J. Sun.,  J. Phys. Chem. Lett. 11, 9248-9248 (2020)
Using LibXC functional ID 498 : Re-regularized SCAN correlation by Furness et al
[ 1]  J. W. Furness, A. D. Kaplan, J. Ning, J. P. Perdew, and J. Sun.,  J. Phys. Chem. Lett. 11, 8208-8215 (2020)
[ 2]  J. W. Furness, A. D. Kaplan, J. Ning, J. P. Perdew, and J. Sun.,  J. Phys. Chem. Lett. 11, 9248-9248 (2020)

================================================================================
                                       INPUT FILE
================================================================================
NAME = sp_solv.inp
|  1> ! r2scan-3c def2/J RI DEFGRID2 scfconv6 printgap
|  2> %output
|  3>     printlevel normal
|  4> end
|  5> %cpcm
|  6>     smd true
|  7>     smdsolvent "water"
|  8> end
|  9> * xyz 0 1
| 10> C -1.0185495211 -1.6078851924 -3.40113e-05
| 11> S -0.4683664801 0.0838785634 0.0005472324
| 12> O -0.7983208543 0.7665331597 1.2242612783
| 13> O -0.7970890716 0.7661665631 -1.2237565538
| 14> Cl 1.5839107448 -0.0600026335 -0.0007512549
| 15> H -0.1432899318 -2.241162738 0.0541783811
| 16> H -1.6475598046 -1.728085461 0.8716845001
| 17> H -1.559623431 -1.757951305 -0.9244535613
| 18> *
| 19> 
| 20>                          ****END OF INPUT****
================================================================================

                       ****************************
                       * Single Point Calculation *
                       ****************************

---------------------------------
CARTESIAN COORDINATES (ANGSTROEM)
---------------------------------
  C     -1.018550   -1.607885   -0.000034
  S     -0.468366    0.083879    0.000547
  O     -0.798321    0.766533    1.224261
  O     -0.797089    0.766167   -1.223757
  Cl     1.583911   -0.060003   -0.000751
  H     -0.143290   -2.241163    0.054178
  H     -1.647560   -1.728085    0.871685
  H     -1.559623   -1.757951   -0.924454

----------------------------
CARTESIAN COORDINATES (A.U.)
----------------------------
  NO LB      ZA    FRAG     MASS         X           Y           Z
   0 C     6.0000    0    12.011   -1.924780   -3.038463   -0.000064
   1 S    16.0000    0    32.060   -0.885084    0.158508    0.001034
   2 O     8.0000    0    15.999   -1.508608    1.448538    2.313519
   3 O     8.0000    0    15.999   -1.506280    1.447845   -2.312565
   4 Cl   17.0000    0    35.453    2.993158   -0.113389   -0.001420
   5 H     1.0000    0     1.008   -0.270779   -4.235184    0.102382
   6 H     1.0000    0     1.008   -3.113437   -3.265608    1.647245
   7 H     1.0000    0     1.008   -2.947261   -3.322047   -1.746964

--------------------------------
INTERNAL COORDINATES (ANGSTROEM)
--------------------------------
 C      0   0   0     0.000000000000     0.00000000     0.00000000
 S      1   0   0     1.778979011087     0.00000000     0.00000000
 O      2   1   0     1.439570509922   112.35543590     0.00000000
 O      2   1   3     1.439616343892   112.32166104   226.37223623
 Cl     2   1   3     2.057315068903   104.00483244   113.26149060
 H      1   2   3     1.081692554247   107.84752304   249.80461600
 H      1   2   3     1.081663165887   106.57443046     9.54093138
 H      1   2   3     1.081587869083   106.67471649   129.91973588

---------------------------
INTERNAL COORDINATES (A.U.)
---------------------------
 C      0   0   0     0.000000000000     0.00000000     0.00000000
 S      1   0   0     3.361783128948     0.00000000     0.00000000
 O      2   1   0     2.720394014221   112.35543590     0.00000000
 O      2   1   3     2.720480627873   112.32166104   226.37223623
 Cl     2   1   3     3.887762051415   104.00483244   113.26149060
 H      1   2   3     2.044102688628   107.84752304   249.80461600
 H      1   2   3     2.044047152678   106.57443046     9.54093138
 H      1   2   3     2.043904862338   106.67471649   129.91973588

---------------------
BASIS SET INFORMATION
---------------------
There are 5 groups of distinct atoms

 Group   1 Type C   : 11s6p1d contracted to 5s3p1d pattern {62111/411/1}
 Group   2 Type S   : 14s9p2d contracted to 5s4p2d pattern {73211/6111/11}
 Group   3 Type O   : 11s6p2d contracted to 5s3p2d pattern {62111/411/11}
 Group   4 Type Cl  : 14s9p2d contracted to 5s4p2d pattern {73211/6111/11}
 Group   5 Type H   : 4s1p contracted to 2s1p pattern {31/1}

Atom   0C    basis set group =>   1
Atom   1S    basis set group =>   2
Atom   2O    basis set group =>   3
Atom   3O    basis set group =>   3
Atom   4Cl   basis set group =>   4
Atom   5H    basis set group =>   5
Atom   6H    basis set group =>   5
Atom   7H    basis set group =>   5
---------------------------------
AUXILIARY/J BASIS SET INFORMATION
---------------------------------
There are 5 groups of distinct atoms

 Group   1 Type C   : 12s5p4d2f1g contracted to 6s4p3d1f1g pattern {711111/2111/211/2/1}
 Group   2 Type S   : 14s5p5d2f1g contracted to 8s4p3d1f1g pattern {71111111/2111/311/2/1}
 Group   3 Type O   : 12s5p4d2f1g contracted to 6s4p3d1f1g pattern {711111/2111/211/2/1}
 Group   4 Type Cl  : 14s5p5d2f1g contracted to 8s4p3d1f1g pattern {71111111/2111/311/2/1}
 Group   5 Type H   : 5s2p1d contracted to 3s1p1d pattern {311/2/1}

Atom   0C    basis set group =>   1
Atom   1S    basis set group =>   2
Atom   2O    basis set group =>   3
Atom   3O    basis set group =>   3
Atom   4Cl   basis set group =>   4
Atom   5H    basis set group =>   5
Atom   6H    basis set group =>   5
Atom   7H    basis set group =>   5

Checking for AutoStart:
The File: sp_solv.gbw exists
Trying to determine its content:
     ... Fine, the file contains calculation information
     ... Fine, the calculation information was read
     ... Fine, the file contains a basis set
     ... Fine, the basis set was read
     ... Fine, the file contains a geometry
     ... Fine, the geometry was read
     ... Fine, the file contains a set of orbitals
     ... Fine, the orbitals can be read
     => possible old guess file was deleted
     => GBW file was renamed to GES file
     => GES file is set as startup file
     => Guess is set to MORead
     ... now leaving AutoStart

------------------------------------------------------------------------------
                             ORCA STARTUP CALCULATIONS
                           -- RI-GTO INTEGRALS CHOSEN --
------------------------------------------------------------------------------
------------------------------------------------------------------------------
                   ___                                                        
                  /   \      - P O W E R E D   B Y -                         
                 /     \                                                     
                 |  |  |   _    _      __       _____    __    __             
                 |  |  |  | |  | |    /  \     |  _  \  |  |  /  |          
                  \  \/   | |  | |   /    \    | | | |  |  | /  /          
                 / \  \   | |__| |  /  /\  \   | |_| |  |  |/  /          
                |  |  |   |  __  | /  /__\  \  |    /   |      \           
                |  |  |   | |  | | |   __   |  |    \   |  |\   \          
                \     /   | |  | | |  |  |  |  | |\  \  |  | \   \       
                 \___/    |_|  |_| |__|  |__|  |_| \__\ |__|  \__/        
                                                                              
                      - O R C A' S   B I G   F R I E N D -                    
                                      &                                       
                       - I N T E G R A L  F E E D E R -                       
                                                                              
 v1 FN, 2020, v2 2021, v3 2022-2024                                           
------------------------------------------------------------------------------


----------------------
SHARK INTEGRAL PACKAGE
----------------------

Number of atoms                             ...      8
Number of basis functions                   ...    136
Number of shells                            ...     60
Maximum angular momentum                    ...      2
Integral batch strategy                     ... SHARK/LIBINT Hybrid
RI-J (if used) integral strategy            ... SPLIT-RIJ (Revised 2003 algorithm where possible)
Printlevel                                  ...      1
Contraction scheme used                     ... SEGMENTED contraction
Prescreening option                         ... SCHWARTZ
   Thresh                                   ... 1.000e-10
   Tcut                                     ... 1.000e-11
   Tpresel                                  ... 1.000e-11 
Coulomb Range Separation                    ... NOT USED
Exchange Range Separation                   ... NOT USED
Multipole approximations                    ... NOT USED
Finite Nucleus Model                        ... NOT USED
CABS basis                                  ... NOT available
Auxiliary Coulomb fitting basis             ... AVAILABLE
   # of basis functions in Aux-J            ...    282
   # of shells in Aux-J                     ...     94
   Maximum angular momentum in Aux-J        ...      4
Auxiliary J/K fitting basis                 ... NOT available
Auxiliary Correlation fitting basis         ... NOT available
Auxiliary 'external' fitting basis          ... NOT available

Checking pre-screening integrals            ... done (  0.0 sec) Dimension = 60
Check shell pair data                       ... done (  0.0 sec)
Shell pair information
Shell pair cut-off parameter TPreSel        ...   1.0e-11
Total number of shell pairs                 ...      1830
Shell pairs after pre-screening             ...      1723
Total number of primitive shell pairs       ...      7536
Primitive shell pairs kept                  ...      5096
          la=0 lb=0:    438 shell pairs
          la=1 lb=0:    581 shell pairs
          la=1 lb=1:    206 shell pairs
          la=2 lb=0:    273 shell pairs
          la=2 lb=1:    180 shell pairs
          la=2 lb=2:     45 shell pairs

Calculating one electron integrals          ... done (  0.0 sec)
Calculating RI/J V-Matrix + Cholesky decomp.... done (  0.0 sec)
Calculating Nuclear repulsion               ... done (  0.0 sec) ENN=    331.481162050964 Eh

Diagonalization of the overlap matrix:
Smallest eigenvalue                        ... 5.599e-04
Time for diagonalization                   ...    0.002 sec
Threshold for overlap eigenvalues          ... 1.000e-07
Number of eigenvalues below threshold      ... 0
Time for construction of square roots      ...    0.015 sec
Total time needed                          ...    0.024 sec

-------------------
DFT GRID GENERATION
-------------------

General Integration Accuracy     IntAcc      ... 4.388
Radial Grid Type                 RadialGrid  ... OptM3 with GC (2021)
Angular Grid (max. ang.)         AngularGrid ... 4 (Lebedev-302)
Angular grid pruning method      GridPruning ... 4 (adaptive)
Weight generation scheme         WeightScheme... mBecke (2022)
Basis function cutoff            BFCut       ... 1.0000e-10
Integration weight cutoff        WCut        ... 1.0000e-14
Partially contracted basis set               ... off
Rotationally invariant grid construction     ... off
Angular grids for H and He will be reduced by one unit
Diffuse basis detected: some atoms will have their outermost
                        angular grid increased by 1.

Total number of grid points                  ...    43309
Total number of batches                      ...      682
Average number of points per batch           ...       63
Average number of grid points per atom       ...     5414
Initializing property integral containers    ... done (  0.0 sec)

SHARK setup successfully completed in   0.6 seconds

Maximum memory used throughout the entire STARTUP-calculation: 20.3 MB
-------------------------------------------------------------------------------
                                 ORCA GUESS
                   Start orbitals & Density for SCF / CASSCF
-------------------------------------------------------------------------------

------------
SCF SETTINGS
------------
Hamiltonian:
 Density Functional     Method          .... DFT(GTOs)
  Functional kind                       .... Exchange
  Functional name                       .... Re-regularized SCAN exchange by Furness et al
  Functional family                     .... MGGA
  Functional refs                              
    [ 0] J. W. Furness, A. D. Kaplan, J. Ning, J. P. Perdew, and J. Sun.,  J. Phys. Chem. Lett. 11, 8208-8215 (2020), doi: 10.1021/acs.jpclett.0c02405
    [ 1] J. W. Furness, A. D. Kaplan, J. Ning, J. P. Perdew, and J. Sun.,  J. Phys. Chem. Lett. 11, 9248-9248 (2020), doi: 10.1021/acs.jpclett.0c03077
  Functional external parameters        .... 6
    Parameter  0 _c1        =  6.670000e-01 : c1 parameter        
    Parameter  1 _c2        =  8.000000e-01 : c2 parameter        
    Parameter  2 _d         =  1.240000e+00 : d parameter         
    Parameter  3 _k1        =  6.500000e-02 : k1 parameter        
    Parameter  4 _eta       =  1.000000e-03 : eta parameter       
    Parameter  5 _dp2       =  3.610000e-01 : dp2 parameter       
  Functional kind                       .... Correlation
  Functional name                       .... Re-regularized SCAN correlation by Furness et al
  Functional family                     .... MGGA
  Functional refs                              
    [ 0] J. W. Furness, A. D. Kaplan, J. Ning, J. P. Perdew, and J. Sun.,  J. Phys. Chem. Lett. 11, 8208-8215 (2020), doi: 10.1021/acs.jpclett.0c02405
    [ 1] J. W. Furness, A. D. Kaplan, J. Ning, J. P. Perdew, and J. Sun.,  J. Phys. Chem. Lett. 11, 9248-9248 (2020), doi: 10.1021/acs.jpclett.0c03077
  Functional external parameters        .... 1
    Parameter  0 _eta       =  1.000000e-03 : Regularization parameter
 Gradients option       PostSCFGGA      .... off
 RI-approximation to the Coulomb term is turned on
   Number of AuxJ basis functions       .... 282


General Settings:
 Integral files         IntName         .... sp_solv
 Hartree-Fock type      HFTyp           .... RHF
 Total Charge           Charge          ....    0
 Multiplicity           Mult            ....    1
 Number of Electrons    NEL             ....   58
 Basis Dimension        Dim             ....  136
 Nuclear Repulsion      ENuc            ....    331.4811620510 Eh

Convergence Acceleration:
 AO-DIIS                CNVDIIS         .... on
   Start iteration      DIISMaxIt       ....    12
   Startup error        DIISStart       ....  0.200000
   # of expansion vecs  DIISMaxEq       ....     5
   Bias factor          DIISBfac        ....   1.050
   Max. coefficient     DIISMaxC        ....  10.000
 MO-DIIS                CNVKDIIS        .... off
 Trust-Rad. Augm. Hess. CNVTRAH         .... auto
   Auto Start mean grad. ratio tolernc. ....  1.125000
   Auto Start start iteration           ....     1
   Auto Start num. interpolation iter.  ....    10
   Max. Number of Micro iterations      ....    24
   Max. Number of Macro iterations      .... Maxiter - #DIIS iter
   Number of Davidson start vectors     ....     2
   Converg. threshold    (grad. norm)   ....   3.330e-04
   Grad. Scal. Fac. for Micro threshold ....   0.100
   Minimum threshold for Micro iter.    ....   1.000e-02
   NR start threshold (gradient norm)   ....   1.000e-04
   Initial trust radius                 ....   0.400
   Minimum AH scaling param. (alpha)    ....   1.000
   Maximum AH scaling param. (alpha)    .... 1000.000
   Quad. conv. algorithm                .... NR
   White noise on init. David. guess    .... on
   Maximum white noise                  ....   0.010
   Pseudo random numbers                .... off
   Inactive MOs                         .... canonical
   Orbital update algorithm             .... Taylor
   Preconditioner                       .... Diag
   Full preconditioner red. dimension   ....   250
   COSX micro iterations for RIJONX calc.... off
 SOSCF                  CNVSOSCF        .... on
   Start iteration      SOSCFMaxIt      ....   150
   Startup grad/error   SOSCFStart      ....  0.003300
   Hessian update       SOSCFHessUp     .... L-BFGS
 Level Shifting         CNVShift        .... on
   Level shift para.    LevelShift      ....    0.2500
   Turn off err/grad.   ShiftErr        ....    0.0010
 Zerner damping         CNVZerner       .... off
 Static damping         CNVDamp         .... on
   Fraction old density DampFac         ....    0.7000
   Max. Damping (<1)    DampMax         ....    0.9800
   Min. Damping (>=0)   DampMin         ....    0.0000
   Turn off err/grad.   DampErr         ....    0.1000

SCF Procedure:
 Maximum # iterations   MaxIter         ....   125
 SCF integral mode      SCFMode         .... Direct
   Integral package                     .... SHARK and LIBINT hybrid scheme
 Reset frequency        DirectResetFreq ....    20
 Integral Threshold     Thresh          ....  1.000e-10 Eh
 Primitive CutOff       TCut            ....  1.000e-11 Eh

Convergence Tolerance:
 Convergence Check Mode ConvCheckMode   .... Total+1el-Energy
 Convergence forced     ConvForced      .... 0
 Energy Change          TolE            ....  1.000e-06 Eh
 1-El. energy change                    ....  1.000e-03 Eh
 Orbital Gradient       TolG            ....  3.330e-04
 Orbital Rotation angle TolX            ....  3.330e-04
 DIIS Error             TolErr          ....  1.000e-06

---------------------
INITIAL GUESS: MOREAD
---------------------
Guess MOs are being read from file: sp_solv.ges
Input Geometry matches current geometry (good)
Atom 0: N(Shells)= 9 and 6 - projection required
Input basis set needs projection
NBasis(read)= 84
NBasis(calc)= 136
Basis set overlap was calculated
Using GuessMode=FMatrix for the initial guess
C*T matrix was formed
Effective Fockian was calculated
Effective Fockian was diagonalized
Initial density was built
                      ------------------
                      INITIAL GUESS DONE (   0.0 sec)
                      ------------------
             **** ENERGY FILE WAS UPDATED (sp_solv.en.tmp) ****
Finished Guess after   0.3 sec
Maximum memory used throughout the entire GUESS-calculation: 9.5 MB

-------------------------------------------------------------------------------------------
                                      ORCA LEAN-SCF
                              memory conserving SCF solver
-------------------------------------------------------------------------------------------

--------------------
CPCM SOLVATION MODEL
--------------------
CPCM parameters:
  Epsilon                                         ...      78.3550
  Refrac                                          ...       1.3328
  Rsolv                                           ...       1.3000
  Surface type                                    ... GAUSSIAN VDW
  Discretization scheme                           ... Constant charge density
    Threshold for H atoms                         ...       5.0000 (charges/Ang^2)
    Threshold for non-H atoms                     ...       5.0000 (charges/Ang^2)
  Epsilon function type                           ...         CPCM
Solvent:                                          ... WATER
SMD-CDS solvent descriptors:
  Soln                                            ...       1.3328
  Soln25                                          ...       1.3323
  Sola                                            ...       0.0000
  Solb                                            ...       0.0000
  Solg                                            ...       0.0000
  Solc                                            ...       0.0000
  Solh                                            ...       0.0000
Radii:
  Scheme                                          ... Element-dependent radii
  Radius for C  used is    3.4960 Bohr (=   1.8500 Ang.)
  Radius for S  used is    4.7054 Bohr (=   2.4900 Ang.)
  Radius for O  used is    2.8724 Bohr (=   1.5200 Ang.)
  Radius for Cl used is    4.4975 Bohr (=   2.3800 Ang.)
  Radius for H  used is    2.2677 Bohr (=   1.2000 Ang.)
Calculating surface                               ...        done! (  0.0s)
Cavity surface points                             ...          880
Cavity Volume                                     ...     757.9521
Cavity Surface-area                               ...     437.0556
Calculating surface distance matrix               ...        done! (  0.0s)
Performing Cholesky decomposition & store         ...        done! (  0.0s)
Overall time for CPCM initialization              ...                 0.0s

----------------------------------------D-I-I-S--------------------------------------------
Iteration    Energy (Eh)           Delta-E    RMSDP     MaxDP     DIISErr   Damp  Time(sec)
-------------------------------------------------------------------------------------------
               ***  Starting incremental Fock matrix formation  ***
    1    -1048.4949250913034575     0.00e+00  4.03e-03  9.24e-02  6.41e-01  0.700   1.2
    2    -1048.5430022862990427    -4.81e-02  3.42e-03  6.12e-02  4.51e-01  0.700   1.2
    3    -1048.5771855960194898    -3.42e-02  2.56e-03  4.04e-02  3.17e-01  0.700   1.2
    4    -1048.6012440934705410    -2.41e-02  1.86e-03  2.73e-02  2.22e-01  0.700   1.2
                               ***Turning on AO-DIIS***
    5    -1048.6181474641275599    -1.69e-02  1.37e-03  2.07e-02  1.55e-01  0.700   1.2
    6    -1048.6300019029440591    -1.19e-02  9.73e-04  1.52e-02  1.08e-01  0.700   1.1
    7    -1048.6383289561015317    -8.33e-03  6.87e-04  1.09e-02  7.59e-02  0.700   1.1
    8    -1048.6441670691265244    -5.84e-03  1.62e-03  2.57e-02  5.33e-02  0.000   1.1
                              *** Initializing SOSCF ***
---------------------------------------S-O-S-C-F--------------------------------------
Iteration    Energy (Eh)           Delta-E    RMSDP     MaxDP     MaxGrad    Time(sec)
--------------------------------------------------------------------------------------
    9    -1048.6578222902301150    -1.37e-02  1.86e-05  3.38e-04  3.45e-04     1.1
               *** Restarting incremental Fock matrix formation ***
   10    -1048.6578225217645013    -2.32e-07  1.50e-05  5.65e-04  1.02e-04     1.2
   11    -1048.6578222968803402     2.25e-07  8.42e-06  3.37e-04  1.64e-04     1.1
                 **** Energy Check signals convergence ****

               *****************************************************
               *                     SUCCESS                       *
               *           SCF CONVERGED AFTER  11 CYCLES          *
               *****************************************************


SMD CDS free energy correction energy :                 2.06826     Kcal/mol
Total Energy after SMD CDS correction =             -1048.654526320 Eh
             **** ENERGY FILE WAS UPDATED (sp_solv.en.tmp) ****

----------------
TOTAL SCF ENERGY
----------------

Total Energy       :      -1048.65452631979065 Eh          -28535.34037 eV

Components:
Nuclear Repulsion  :        331.48116205096420 Eh            9020.06099 eV
Electronic Energy  :      -1380.11856374486661 Eh          -37554.93538 eV
One Electron Energy:      -2103.66986329679412 Eh          -57243.76720 eV
Two Electron Energy:        723.55129955192751 Eh           19688.83182 eV
CPCM Dielectric    :         -0.02042060297794 Eh              -0.55567 eV
SMD CDS (Gcds)     :          0.00329597708958 Eh               0.08969 eV

Virial components:
Potential Energy   :      -2094.59350223388583 Eh          -56996.78686 eV
Kinetic Energy     :       1045.93897591409518 Eh           28461.44649 eV
Virial Ratio       :          2.00259627996301

DFT components:
N(Alpha)           :       29.000011211744 electrons
N(Beta)            :       29.000011211744 electrons
N(Total)           :       58.000022423487 electrons
E(X)               :      -75.527597025323 Eh       
E(C)               :       -2.127310978961 Eh       
E(XC)              :      -77.654908004285 Eh       

CPCM Solvation Model Properties:
Surface-charge          :         -0.01831823724047
Corrected charge        :         -0.00000000000000
Outlying charge corr.   :          0.00002845405183 Eh               0.00077 eV
Free-energy (cav+disp)  :          0.00329597708958 Eh               0.08969 eV

---------------
SCF CONVERGENCE
---------------

  Last Energy change         ...   -2.2488e-07  Tolerance :   1.0000e-06
  Last MAX-Density change    ...    3.3674e-04  Tolerance :   1.0000e-05
  Last RMS-Density change    ...    8.4231e-06  Tolerance :   1.0000e-06
  Last DIIS Error            ...    3.4504e-04  Tolerance :   1.0000e-06
  Last Orbital Gradient      ...    1.6450e-04  Tolerance :   3.3300e-04
  Last Orbital Rotation      ...    1.3921e-04  Tolerance :   3.3300e-04


----------------
ORBITAL ENERGIES
----------------

  NO   OCC          E(Eh)            E(eV) 
   0   2.0000    -101.240443     -2754.8925 
   1   2.0000     -88.807792     -2416.5829 
   2   2.0000     -18.981891      -516.5235 
   3   2.0000     -18.981710      -516.5186 
   4   2.0000     -10.080567      -274.3062 
   5   2.0000      -9.396667      -255.6963 
   6   2.0000      -8.077265      -219.7936 
   7   2.0000      -7.142715      -194.3632 
   8   2.0000      -7.132931      -194.0969 
   9   2.0000      -7.132681      -194.0901 
  10   2.0000      -6.024779      -163.9426 
  11   2.0000      -6.021584      -163.8556 
  12   2.0000      -6.019773      -163.8064 
  13   2.0000      -1.118369       -30.4324 
  14   2.0000      -1.010104       -27.4863 
  15   2.0000      -0.833986       -22.6939 
  16   2.0000      -0.756593       -20.5880 
  17   2.0000      -0.596582       -16.2338 
  18   2.0000      -0.506123       -13.7723 
  19   2.0000      -0.481122       -13.0920 
  20   2.0000      -0.470959       -12.8155 
  21   2.0000      -0.417279       -11.3547 
  22   2.0000      -0.416109       -11.3229 
  23   2.0000      -0.354183        -9.6378 
  24   2.0000      -0.350323        -9.5328 
  25   2.0000      -0.324344        -8.8258 
  26   2.0000      -0.312372        -8.5001 
  27   2.0000      -0.310838        -8.4583 
  28   2.0000      -0.292832        -7.9684 
  29   0.0000      -0.091527        -2.4906 
  30   0.0000       0.018208         0.4955 
  31   0.0000       0.029757         0.8097 
  32   0.0000       0.050529         1.3750 
  33   0.0000       0.103659         2.8207 
  34   0.0000       0.173857         4.7309 
  35   0.0000       0.186884         5.0854 
  36   0.0000       0.187833         5.1112 
  37   0.0000       0.198195         5.3931 
  38   0.0000       0.200635         5.4596 
  39   0.0000       0.224871         6.1191 
*Only the first 10 virtual orbitals were printed.

                    ********************************
                    * MULLIKEN POPULATION ANALYSIS *
                    ********************************

-----------------------
MULLIKEN ATOMIC CHARGES
-----------------------
   0 C :   -0.439914
   1 S :    0.973004
   2 O :   -0.526259
   3 O :   -0.526360
   4 Cl:   -0.175439
   5 H :    0.231436
   6 H :    0.232021
   7 H :    0.231510
Sum of atomic charges:   -0.0000000

--------------------------------
MULLIKEN REDUCED ORBITAL CHARGES
--------------------------------
  0 C s       :     3.334581  s :     3.334581
      pz      :     1.135953  p :     3.084340
      px      :     1.098903
      py      :     0.849484
      dz2     :     0.005476  d :     0.020993
      dxz     :     0.004612
      dyz     :     0.001217
      dx2y2   :     0.005238
      dxy     :     0.004450

  1 S s       :     5.326708  s :     5.326708
      pz      :     2.897730  p :     8.870168
      px      :     2.955973
      py      :     3.016465
      dz2     :     0.209142  d :     0.830120
      dxz     :     0.191009
      dyz     :     0.177259
      dx2y2   :     0.129803
      dxy     :     0.122907

  2 O s       :     3.860376  s :     3.860376
      pz      :     1.373289  p :     4.634704
      px      :     1.631645
      py      :     1.629770
      dz2     :     0.004560  d :     0.031179
      dxz     :     0.008829
      dyz     :     0.011538
      dx2y2   :     0.001763
      dxy     :     0.004487

  3 O s       :     3.859969  s :     3.859969
      pz      :     1.372908  p :     4.635380
      px      :     1.631878
      py      :     1.630594
      dz2     :     0.004353  d :     0.031011
      dxz     :     0.008833
      dyz     :     0.011505
      dx2y2   :     0.001731
      dxy     :     0.004589

  4 Cls       :     5.966312  s :     5.966312
      pz      :     3.921392  p :    11.166745
      px      :     3.327014
      py      :     3.918339
      dz2     :     0.006574  d :     0.042382
      dxz     :     0.009596
      dyz     :     0.000929
      dx2y2   :     0.017404
      dxy     :     0.007879

  5 H s       :     0.749287  s :     0.749287
      pz      :     0.003548  p :     0.019277
      px      :     0.008949
      py      :     0.006780

  6 H s       :     0.748924  s :     0.748924
      pz      :     0.009197  p :     0.019055
      px      :     0.006597
      py      :     0.003262

  7 H s       :     0.749453  s :     0.749453
      pz      :     0.009920  p :     0.019037
      px      :     0.005787
      py      :     0.003330


------------------------
MULLIKEN OVERLAP CHARGES
------------------------
B(  0-C ,  1-S ) :   0.5971 B(  0-C ,  2-O ) :  -0.0887 B(  0-C ,  3-O ) :  -0.0890 
B(  0-C ,  4-Cl) :  -0.1286 B(  0-C ,  5-H ) :   0.7529 B(  0-C ,  6-H ) :   0.7469 
B(  0-C ,  7-H ) :   0.7487 B(  1-S ,  2-O ) :   0.9557 B(  1-S ,  3-O ) :   0.9563 
B(  1-S ,  4-Cl) :   0.5372 B(  2-O ,  3-O ) :  -0.1709 B(  2-O ,  4-Cl) :  -0.1518 
B(  3-O ,  4-Cl) :  -0.1522 


                     *******************************
                     * LOEWDIN POPULATION ANALYSIS *
                     *******************************

----------------------
LOEWDIN ATOMIC CHARGES
----------------------
   0 C :   -0.334259
   1 S :    0.604542
   2 O :   -0.513703
   3 O :   -0.514337
   4 Cl:    0.133365
   5 H :    0.206412
   6 H :    0.209246
   7 H :    0.208734

-------------------------------
LOEWDIN REDUCED ORBITAL CHARGES
-------------------------------
  0 C s       :     2.996523  s :     2.996523
      pz      :     1.167592  p :     3.286840
      px      :     1.145511
      py      :     0.973737
      dz2     :     0.013423  d :     0.050896
      dxz     :     0.011949
      dyz     :     0.001953
      dx2y2   :     0.011461
      dxy     :     0.012111

  1 S s       :     4.772820  s :     4.772820
      pz      :     2.903281  p :     8.772687
      px      :     2.909781
      py      :     2.959624
      dz2     :     0.493858  d :     1.849951
      dxz     :     0.353451
      dyz     :     0.399479
      dx2y2   :     0.375987
      dxy     :     0.227176

  2 O s       :     3.595343  s :     3.595343
      pz      :     1.511675  p :     4.675757
      px      :     1.568166
      py      :     1.595917
      dz2     :     0.068293  d :     0.242603
      dxz     :     0.051314
      dyz     :     0.069582
      dx2y2   :     0.031458
      dxy     :     0.021957

  3 O s       :     3.595321  s :     3.595321
      pz      :     1.511466  p :     4.676154
      px      :     1.567967
      py      :     1.596720
      dz2     :     0.068408  d :     0.242862
      dxz     :     0.051344
      dyz     :     0.069568
      dx2y2   :     0.031742
      dxy     :     0.021799

  4 Cls       :     5.722365  s :     5.722365
      pz      :     3.873892  p :    11.062524
      px      :     3.320727
      py      :     3.867905
      dz2     :     0.014387  d :     0.081746
      dxz     :     0.012028
      dyz     :     0.001354
      dx2y2   :     0.042874
      dxy     :     0.011103

  5 H s       :     0.746457  s :     0.746457
      pz      :     0.008298  p :     0.047131
      px      :     0.023287
      py      :     0.015546

  6 H s       :     0.744111  s :     0.744111
      pz      :     0.023708  p :     0.046643
      px      :     0.016380
      py      :     0.006555

  7 H s       :     0.744643  s :     0.744643
      pz      :     0.025654  p :     0.046623
      px      :     0.014246
      py      :     0.006723


---------------------------------
LOEWDIN BOND ORDERS (THRESH 0.050000)
---------------------------------
B(  0-C ,  1-S ) :   1.0705 B(  0-C ,  2-O ) :   0.1523 B(  0-C ,  3-O ) :   0.1524 
B(  0-C ,  4-Cl) :   0.0985 B(  0-C ,  5-H ) :   0.8804 B(  0-C ,  6-H ) :   0.8766 
B(  0-C ,  7-H ) :   0.8776 B(  1-S ,  2-O ) :   2.4547 B(  1-S ,  3-O ) :   2.4542 
B(  1-S ,  4-Cl) :   1.3223 B(  1-S ,  5-H ) :   0.0653 B(  1-S ,  6-H ) :   0.0609 
B(  1-S ,  7-H ) :   0.0600 B(  2-O ,  3-O ) :   0.3272 B(  2-O ,  4-Cl) :   0.2184 
B(  3-O ,  4-Cl) :   0.2194 

------------------------------------------
LOEWDIN REDUCED ORBITAL POPULATIONS PER MO
-------------------------------------------
THRESHOLD FOR PRINTING IS 0.1%%
                      0         1         2         3         4         5   
                 -101.24044 -88.80779 -18.98189 -18.98171 -10.08057  -9.39667
                   2.00000   2.00000   2.00000   2.00000   2.00000   2.00000
                  --------  --------  --------  --------  --------  --------
 0 C  s               0.0       0.0       0.0       0.0      99.7       0.0
 1 S  s               0.0     100.0       0.0       0.0       0.0       0.0
 2 O  s               0.0       0.0      99.9       0.0       0.0       0.0
 3 O  s               0.0       0.0       0.0      99.9       0.0       0.0
 4 Cl s             100.0       0.0       0.0       0.0       0.0      99.8

                      6         7         8         9        10        11   
                  -8.07726  -7.14272  -7.13293  -7.13268  -6.02478  -6.02158
                   2.00000   2.00000   2.00000   2.00000   2.00000   2.00000
                  --------  --------  --------  --------  --------  --------
 0 C  py              0.1       0.0       0.0       0.0       0.0       0.0
 1 S  s              97.0       0.0       0.0       0.0       0.0       0.0
 1 S  pz              0.0       0.0       0.0       0.0       0.0      99.9
 1 S  px              0.0       0.0       0.0       0.0      97.8       0.0
 1 S  py              0.0       0.0       0.0       0.0       2.1       0.0
 2 O  pz              0.3       0.0       0.0       0.0       0.0       0.0
 2 O  dz2             0.3       0.0       0.0       0.0       0.0       0.0
 2 O  dxz             0.1       0.0       0.0       0.0       0.0       0.0
 2 O  dyz             0.4       0.0       0.0       0.0       0.0       0.0
 3 O  pz              0.3       0.0       0.0       0.0       0.0       0.0
 3 O  dz2             0.3       0.0       0.0       0.0       0.0       0.0
 3 O  dxz             0.1       0.0       0.0       0.0       0.0       0.0
 3 O  dyz             0.4       0.0       0.0       0.0       0.0       0.0
 4 Cl pz              0.0       0.0       0.0     100.0       0.0       0.0
 4 Cl px              0.1      99.9       0.1       0.0       0.0       0.0
 4 Cl py              0.0       0.1      99.9       0.0       0.0       0.0

                     12        13        14        15        16        17   
                  -6.01977  -1.11837  -1.01010  -0.83399  -0.75659  -0.59658
                   2.00000   2.00000   2.00000   2.00000   2.00000   2.00000
                  --------  --------  --------  --------  --------  --------
 0 C  s               0.0       1.6       0.0       2.9      33.2       9.5
 0 C  pz              0.0       0.0       0.3       0.0       0.0       0.0
 0 C  px              0.0       0.2       0.0       0.9       0.1       1.3
 0 C  py              0.0       2.7       0.0       0.6       1.1       5.4
 0 C  dx2y2           0.0       0.0       0.0       0.0       0.0       0.1
 0 C  dxy             0.0       0.0       0.0       0.0       0.0       0.1
 1 S  s               0.0      23.3       0.0       3.1       3.1      10.9
 1 S  pz              0.0       0.0      25.3       0.0       0.0       0.0
 1 S  px              2.1       0.5       0.0      11.9       3.3       2.5
 1 S  py             97.8       3.0       0.0       4.0      14.7       0.7
 1 S  dz2             0.0       2.3       0.0       3.9       1.0       0.3
 1 S  dxz             0.0       0.0       1.4       0.0       0.0       0.0
 1 S  dyz             0.0       0.0       6.4       0.0       0.0       0.0
 1 S  dx2y2           0.0       0.1       0.0       2.7       2.9       0.2
 1 S  dxy             0.0       0.2       0.0       0.0       1.1       0.0
 2 O  s               0.0      23.9      30.2       2.6       1.8       8.0
 2 O  pz              0.0       4.7       1.4       0.1       0.1       5.1
 2 O  px              0.0       0.3       0.2       0.5       0.1       1.5
 2 O  py              0.0       1.0       0.9       0.3       1.1       2.2
 2 O  dz2             0.0       1.0       0.3       0.1       0.0       0.2
 2 O  dxz             0.0       0.1       0.0       0.4       0.1       0.4
 2 O  dyz             0.0       0.5       0.1       0.2       0.7       0.7
 2 O  dx2y2           0.0       0.0       0.0       0.0       0.5       0.0
 2 O  dxy             0.0       0.0       0.0       0.2       0.0       0.2
 3 O  s               0.0      23.8      30.2       2.6       1.8       8.0
 3 O  pz              0.0       4.7       1.4       0.1       0.1       5.1
 3 O  px              0.0       0.3       0.2       0.5       0.1       1.5
 3 O  py              0.0       1.0       0.9       0.3       1.1       2.2
 3 O  dz2             0.0       1.0       0.3       0.1       0.0       0.2
 3 O  dxz             0.0       0.1       0.0       0.4       0.1       0.4
 3 O  dyz             0.0       0.5       0.1       0.2       0.7       0.7
 3 O  dx2y2           0.0       0.0       0.0       0.0       0.5       0.0
 3 O  dxy             0.0       0.0       0.0       0.2       0.0       0.2
 4 Cl s               0.0       1.0       0.0      58.3      10.9      10.0
 4 Cl px              0.0       1.4       0.0       1.2       0.5       8.6
 4 Cl py              0.0       0.0       0.0       0.0       0.1       0.0
 4 Cl dz2             0.0       0.1       0.0       0.1       0.0       0.3
 4 Cl dx2y2           0.0       0.2       0.0       0.2       0.1       0.9
 5 H  s               0.0       0.1       0.0       0.5       5.8       3.4
 5 H  px              0.0       0.0       0.0       0.0       0.3       0.2
 5 H  py              0.0       0.0       0.0       0.0       0.2       0.0
 6 H  s               0.0       0.1       0.0       0.3       5.9       4.1
 6 H  pz              0.0       0.0       0.0       0.0       0.4       0.2
 6 H  px              0.0       0.0       0.0       0.0       0.2       0.1
 7 H  s               0.0       0.1       0.0       0.3       5.9       4.1
 7 H  pz              0.0       0.0       0.0       0.0       0.4       0.2
 7 H  px              0.0       0.0       0.0       0.0       0.1       0.1

                     18        19        20        21        22        23   
                  -0.50612  -0.48112  -0.47096  -0.41728  -0.41611  -0.35418
                   2.00000   2.00000   2.00000   2.00000   2.00000   2.00000
                  --------  --------  --------  --------  --------  --------
 0 C  s               1.2       1.3       0.0       0.0       0.0       0.0
 0 C  pz              0.0       0.0      10.5      43.1       0.0       0.5
 0 C  px              2.1       4.4       0.0       0.0      43.4       0.0
 0 C  py              9.0      10.3       0.0       0.0       3.9       0.0
 0 C  dz2             0.0       0.1       0.0       0.0       0.3       0.0
 0 C  dxz             0.0       0.0       0.0       0.5       0.0       0.0
 0 C  dx2y2           0.2       0.1       0.0       0.0       0.0       0.0
 0 C  dxy             0.0       0.1       0.0       0.0       0.2       0.0
 1 S  s               0.3       0.3       0.0       0.0       0.0       0.0
 1 S  pz              0.0       0.0      13.8       2.9       0.0       1.8
 1 S  px             25.1       0.1       0.0       0.0       1.2       0.0
 1 S  py              1.2      21.3       0.0       0.0       0.1       0.0
 1 S  dz2             0.2       2.6       0.0       0.0       0.4       0.0
 1 S  dxz             0.0       0.0       0.4       1.8       0.0      12.5
 1 S  dyz             0.0       0.0       4.8       2.6       0.0       0.1
 1 S  dx2y2           0.7       0.1       0.0       0.0       1.4       0.0
 1 S  dxy             0.0       0.4       0.0       0.0       3.9       0.0
 2 O  s               1.0       4.0       6.4       1.0       0.1       0.2
 2 O  pz              2.7      18.3       9.9       5.9       1.7       5.1
 2 O  px              6.8       0.7       2.4       2.8       1.1      15.7
 2 O  py              2.3       1.0      12.4       0.5       0.1       1.6
 2 O  dz2             0.1       0.7       0.2       0.0       0.1       0.0
 2 O  dxz             1.0       0.1       0.0       0.0       0.1       0.0
 2 O  dyz             0.3       0.2       0.1       0.0       0.0       0.0
 2 O  dx2y2           0.2       0.2       0.1       0.1       0.0       0.1
 2 O  dxy             0.3       0.0       0.0       0.0       0.0       0.1
 3 O  s               1.0       3.9       6.5       0.9       0.1       0.2
 3 O  pz              2.7      18.0      10.2       5.7       1.9       5.0
 3 O  px              6.8       0.7       2.4       2.8       1.1      15.4
 3 O  py              2.3       1.1      12.4       0.5       0.1       1.6
 3 O  dz2             0.1       0.7       0.2       0.0       0.1       0.0
 3 O  dxz             1.0       0.1       0.0       0.0       0.1       0.0
 3 O  dyz             0.3       0.3       0.1       0.0       0.0       0.0
 3 O  dx2y2           0.2       0.2       0.1       0.1       0.0       0.1
 3 O  dxy             0.2       0.0       0.0       0.0       0.0       0.1
 4 Cl s               5.6       0.1       0.0       0.0       0.1       0.0
 4 Cl pz              0.0       0.0       1.4       0.4       0.0      39.6
 4 Cl px             18.2       0.8       0.0       0.0       2.6       0.0
 4 Cl py              0.3       1.8       0.0       0.0       4.1       0.0
 4 Cl dz2             0.2       0.0       0.0       0.0       0.0       0.0
 4 Cl dxz             0.0       0.0       0.2       0.0       0.0       0.2
 4 Cl dx2y2           0.5       0.0       0.0       0.0       0.1       0.0
 4 Cl dxy             0.1       0.3       0.0       0.0       0.1       0.0
 5 H  s               4.7       0.6       0.0       0.0      19.4       0.0
 5 H  pz              0.0       0.0       0.1       0.3       0.0       0.0
 5 H  px              0.2       0.1       0.0       0.0       0.2       0.0
 5 H  py              0.0       0.0       0.0       0.0       0.3       0.0
 6 H  s               0.1       2.5       2.3      13.0       6.1       0.1
 6 H  pz              0.0       0.1       0.0       0.1       0.3       0.0
 6 H  px              0.0       0.0       0.1       0.3       0.0       0.0
 7 H  s               0.2       2.2       2.7      14.1       4.7       0.1
 7 H  pz              0.0       0.1       0.0       0.1       0.3       0.0
 7 H  px              0.0       0.0       0.1       0.3       0.1       0.0

                     24        25        26        27        28        29   
                  -0.35032  -0.32434  -0.31237  -0.31084  -0.29283  -0.09153
                   2.00000   2.00000   2.00000   2.00000   2.00000   0.00000
                  --------  --------  --------  --------  --------  --------
 0 C  s               0.0       0.5       0.0       0.1       0.0       0.5
 0 C  pz              0.0       0.0       3.8       0.0       0.1       0.0
 0 C  px              0.4       3.7       0.0       0.6       0.0       0.9
 0 C  py              2.3       8.3       0.0       4.8       0.0       4.4
 0 C  dxy             0.0       0.0       0.0       0.1       0.0       0.6
 1 S  s               0.3       0.3       0.0       0.1       0.0       6.1
 1 S  pz              0.0       0.0       1.3       0.0       0.2       0.0
 1 S  px              0.5       0.1       0.0       0.3       0.0      22.0
 1 S  py              0.7       2.1       0.0       0.1       0.0       0.9
 1 S  dz2            12.0       1.9       0.0       0.1       0.0       0.3
 1 S  dxz             0.0       0.0       0.6       0.0       0.9       0.0
 1 S  dyz             0.0       0.0       5.5       0.0       0.5       0.0
 1 S  dx2y2           0.1       4.4       0.0       6.0       0.0       0.7
 1 S  dxy             2.1       3.5       0.0       0.1       0.0       2.5
 2 O  s               0.5       0.1       0.1       0.0       0.0       0.2
 2 O  pz              0.7       0.1      10.5       0.1       8.9       0.2
 2 O  px             12.2       1.8       8.2      10.0      14.1       6.9
 2 O  py             17.4       8.6      20.9       4.9       4.5       0.1
 2 O  dz2             0.0       0.0       0.1       0.0       0.3       0.0
 2 O  dxz             0.0       0.0       0.0       0.0       0.1       1.7
 2 O  dx2y2           0.0       0.0       0.0       0.2       0.1       0.0
 2 O  dxy             0.0       0.0       0.0       0.0       0.0       1.0
 3 O  s               0.5       0.1       0.1       0.0       0.0       0.2
 3 O  pz              0.7       0.1      10.2       0.4       8.9       0.2
 3 O  px             12.6       1.9       5.9      11.8      14.4       6.9
 3 O  py             17.1       8.7      18.5       7.5       4.5       0.1
 3 O  dz2             0.0       0.0       0.1       0.0       0.3       0.0
 3 O  dxz             0.0       0.0       0.0       0.0       0.1       1.7
 3 O  dx2y2           0.0       0.0       0.0       0.3       0.1       0.0
 3 O  dxy             0.0       0.0       0.0       0.0       0.0       1.0
 4 Cl s               0.2       0.1       0.0       0.1       0.0       2.1
 4 Cl pz              0.0       0.0      10.2       0.0      41.9       0.0
 4 Cl px             16.5       8.0       0.0       8.2       0.0      26.0
 4 Cl py              2.0      43.0       0.1      41.9       0.0       0.0
 4 Cl dz2             0.0       0.0       0.0       0.0       0.0       2.5
 4 Cl dxz             0.0       0.0       0.0       0.0       0.1       0.0
 4 Cl dx2y2           0.0       0.0       0.0       0.0       0.0       7.5
 5 H  s               0.7       0.0       0.0       1.8       0.0       1.0
 6 H  s               0.0       1.0       1.5       0.0       0.0       0.5
 6 H  py              0.0       0.1       0.0       0.0       0.0       0.2
 7 H  s               0.0       0.9       1.7       0.0       0.0       0.4
 7 H  py              0.0       0.1       0.0       0.0       0.0       0.2

                     30        31        32        33        34        35   
                   0.01821   0.02976   0.05053   0.10366   0.17386   0.18688
                   0.00000   0.00000   0.00000   0.00000   0.00000   0.00000
                  --------  --------  --------  --------  --------  --------
 0 C  s               4.3       0.0       1.3      46.0       2.2       0.1
 0 C  pz              0.0       0.8       0.0       0.0       0.1      40.0
 0 C  px              1.6       0.0       2.5       0.9      10.2       1.9
 0 C  py              5.7       0.0      20.5       1.7       5.2       2.1
 0 C  dz2             0.8       0.0       0.3       0.6       1.2       0.0
 0 C  dxz             0.0       2.0       0.0       0.0       0.0       1.5
 0 C  dyz             0.0       1.1       0.0       0.0       0.0       0.3
 0 C  dx2y2           0.6       0.0       0.6       0.5       0.8       0.0
 0 C  dxy             0.6       0.0       0.8       0.0       2.2       0.0
 1 S  s              10.2       0.0       0.8       1.5       3.7       0.1
 1 S  pz              0.0      22.5       0.0       0.0       0.0       7.2
 1 S  px              7.3       0.0       4.1       0.3       7.9       0.6
 1 S  py              4.8       0.0      19.7       0.3       9.8       0.2
 1 S  dz2             4.0       0.0       2.1       0.7       0.5       0.0
 1 S  dxz             0.0       4.8       0.0       0.0       0.1       1.6
 1 S  dyz             0.0      20.1       0.0       0.0       0.0       1.2
 1 S  dx2y2          10.2       0.0       0.6       0.1       2.8       0.0
 1 S  dxy             4.3       0.0      10.1       3.0       0.0       0.3
 2 O  s               3.7       1.6       0.5       1.4       2.8       1.9
 2 O  pz              8.0       0.2       1.1       0.8       0.8       3.1
 2 O  px              0.9       1.9       2.1       0.2       0.5       0.5
 2 O  py              0.8       6.5       2.9       0.1       1.1       0.0
 2 O  dz2             1.1       0.9       0.1       1.3       0.0       0.5
 2 O  dxz             0.2       0.1       1.6       0.4       0.2       0.0
 2 O  dyz             1.1       0.5       2.1       2.1       0.9       1.0
 2 O  dx2y2           0.2       0.5       0.8       0.1       0.9       0.5
 2 O  dxy             0.6       1.2       0.7       0.1       0.0       0.0
 3 O  s               3.6       1.7       0.6       1.3       2.7       0.7
 3 O  pz              8.0       0.2       1.1       0.8       0.8       2.1
 3 O  px              1.1       1.7       2.2       0.2       0.7       0.6
 3 O  py              0.7       6.6       2.7       0.1       1.3       0.2
 3 O  dz2             1.1       0.8       0.1       1.3       0.1       0.1
 3 O  dxz             0.2       0.1       1.6       0.4       0.2       0.1
 3 O  dyz             1.1       0.6       2.1       2.2       1.1       0.5
 3 O  dx2y2           0.2       0.5       0.7       0.1       0.8       0.1
 3 O  dxy             0.7       1.2       0.7       0.1       0.0       0.0
 4 Cl s               0.2       0.0       0.5       2.3       0.3       0.1
 4 Cl pz              0.0       2.9       0.0       0.0       0.0       0.8
 4 Cl px              0.6       0.0       0.5       0.1       0.4       0.1
 4 Cl py              1.1       0.0       1.9       0.8       3.1       0.2
 4 Cl dz2             0.2       0.0       0.6       0.1       1.4       0.0
 4 Cl dxz             0.0       6.9       0.0       0.0       0.0       4.0
 4 Cl dyz             0.0       0.4       0.0       0.0       0.0       0.0
 4 Cl dx2y2           0.2       0.0       0.1       1.3       1.8       0.1
 4 Cl dxy             1.9       0.0       6.3       1.6       1.3       0.0
 5 H  s               4.9       0.0       0.7       3.0      21.0       0.4
 5 H  pz              0.0       0.1       0.0       0.0       0.0       0.5
 5 H  px              0.0       0.0       0.3       1.8       3.6       0.1
 5 H  py              1.1       0.0       0.3       0.1       0.9       0.1
 6 H  s               1.0       5.2       0.0       7.5       0.4       8.9
 6 H  pz              0.0       0.1       0.1       2.3       0.1       1.9
 6 H  px              0.0       0.2       0.0       0.6       1.0       2.0
 6 H  py              0.1       0.1       0.8       0.0       0.6       0.1
 7 H  s               0.7       5.7       0.0       7.2       0.7       7.8
 7 H  pz              0.0       0.1       0.1       2.5       0.1       1.9
 7 H  px              0.1       0.2       0.0       0.4       0.8       1.6
 7 H  py              0.1       0.1       0.8       0.0       0.7       0.1

                     36        37        38        39        40        41   
                   0.18783   0.19819   0.20064   0.22487   0.24428   0.26514
                   0.00000   0.00000   0.00000   0.00000   0.00000   0.00000
                  --------  --------  --------  --------  --------  --------
 0 C  s               0.7       0.0       2.2       3.4       0.2       0.0
 0 C  pz              4.3      46.7       0.1       0.1       0.0       2.8
 0 C  px             30.5       0.5      14.0      17.9      22.1       0.1
 0 C  py             18.9       0.0      30.4       8.6       1.5       0.0
 0 C  dz2             0.1       0.1       0.5       1.9       0.3       0.0
 0 C  dxz             0.0       3.5       0.1       0.0       0.0       0.0
 0 C  dyz             0.0       0.4       0.0       0.0       0.0       0.8
 0 C  dx2y2           0.2       0.0       0.3       0.2       0.3       0.0
 0 C  dxy             0.1       0.0       0.4       0.1       0.2       0.0
 1 S  s               0.3       0.0       1.4       1.4       0.0       0.0
 1 S  pz              0.5       4.5       0.1       0.0       0.0      22.1
 1 S  px             11.5       0.1       1.8       1.2      26.7       0.0
 1 S  py              0.3       0.0       3.2      19.5       3.0       0.0
 1 S  dz2             0.2       0.0       1.2       2.6       2.0       0.0
 1 S  dxz             0.1       1.1       0.0       0.0       0.0      12.8
 1 S  dyz             0.1       1.2       0.0       0.0       0.0       0.2
 1 S  dx2y2           0.2       0.0       1.4       2.2       0.0       0.0
 1 S  dxy             3.0       0.0       2.7       1.2       0.5       0.0
 2 O  s               0.1       0.8       0.1       0.1       0.4       2.0
 2 O  pz              0.0       0.4       0.5       1.5       0.3       9.3
 2 O  px              2.9       0.2       0.2       0.5       4.3       0.8
 2 O  py              0.1       0.1       1.5       4.9       0.8       0.8
 2 O  dz2             0.2       0.8       1.2       3.7       1.2       0.4
 2 O  dxz             0.5       0.1       1.4       0.3       0.1       1.5
 2 O  dyz             0.0       1.2       0.2       0.3       0.5       0.2
 2 O  dx2y2           0.3       0.3       0.1       0.0       0.3       0.0
 2 O  dxy             0.0       0.3       0.2       0.1       1.0       2.4
 3 O  s               0.8       1.0       0.4       0.1       0.2       2.5
 3 O  pz              0.9       0.4       0.6       1.6       0.3       9.6
 3 O  px              2.9       0.2       0.1       0.3       3.9       0.8
 3 O  py              0.1       0.2       1.4       4.7       0.8       0.8
 3 O  dz2             0.4       0.8       1.8       3.8       1.0       0.1
 3 O  dxz             0.4       0.3       1.3       0.3       0.1       1.4
 3 O  dyz             0.4       0.8       0.1       0.3       0.5       0.3
 3 O  dx2y2           0.7       0.1       0.2       0.0       0.4       0.1
 3 O  dxy             0.0       0.3       0.1       0.3       1.5       2.0
 4 Cl s               1.4       0.1       4.5       0.3       4.6       0.0
 4 Cl pz              0.1       3.3       0.0       0.0       0.0      13.2
 4 Cl px              2.4       0.1       3.9       0.6      15.7       0.1
 4 Cl py              1.4       0.0       0.2       1.2       0.5       0.0
 4 Cl dz2             0.1       0.0       0.0       0.0       0.2       0.0
 4 Cl dxz             0.2       3.0       0.0       0.0       0.0       7.6
 4 Cl dyz             0.0       4.3       0.1       0.0       0.0       1.6
 4 Cl dx2y2           2.1       0.0       0.1       2.0       0.6       0.0
 4 Cl dxy             0.3       0.0       2.7       3.0       0.2       0.0
 5 H  s               4.2       0.0       3.5       1.2       0.6       0.0
 5 H  pz              0.0       3.6       0.0       0.0       0.0       0.1
 5 H  px              1.7       0.0       0.2       0.0       0.1       0.0
 5 H  py              1.5       0.0       0.0       0.3       1.1       0.0
 6 H  s               0.0       7.5       5.1       2.8       0.3       0.9
 6 H  pz              0.0       0.0       2.7       0.8       0.0       0.1
 6 H  px              0.0       1.2       0.1       0.2       0.7       0.1
 6 H  py              0.0       0.2       0.2       0.1       0.1       0.7
 7 H  s               1.6       8.8       2.8       3.4       0.2       0.7
 7 H  pz              0.7       0.1       2.2       0.8       0.0       0.1
 7 H  px              0.2       1.2       0.0       0.2       0.6       0.1
 7 H  py              0.0       0.1       0.3       0.0       0.0       0.7

                     42        43        44        45        46        47   
                   0.29393   0.30124   0.30801   0.32694   0.36841   0.37590
                   0.00000   0.00000   0.00000   0.00000   0.00000   0.00000
                  --------  --------  --------  --------  --------  --------
 0 C  s               0.0       0.0      10.6       0.6       0.0       0.8
 0 C  pz              0.1       7.2       0.0       0.0       2.1       0.0
 0 C  px              3.7       0.0       0.0       1.2       0.0       1.2
 0 C  py              0.5       0.0      13.2       5.3       0.0       0.1
 0 C  dz2             0.6       0.0       0.1       0.2       0.0       0.0
 0 C  dxz             0.0       0.2       0.0       0.0       0.0       0.0
 0 C  dyz             0.0       0.8       0.0       0.0       0.0       0.0
 0 C  dx2y2           0.4       0.0       0.0       0.0       0.0       0.2
 0 C  dxy             0.1       0.0       0.0       0.0       0.0       0.4
 1 S  s               0.8       0.0       3.7       0.4       0.0       0.2
 1 S  pz              0.1       7.6       0.0       0.0       9.6       0.0
 1 S  px              0.4       0.0       1.3       1.7       0.0       0.7
 1 S  py              2.9       0.0       5.0       3.1       0.0       1.4
 1 S  dz2             2.4       0.0       1.2       3.5       0.0       0.5
 1 S  dxz             0.0       7.9       0.0       0.0       0.4       0.1
 1 S  dyz             0.0      10.2       0.0       0.0       2.7       0.0
 1 S  dx2y2           9.6       0.0       0.7       0.4       0.0       1.4
 1 S  dxy             6.1       0.0       2.0       1.4       0.0       3.9
 2 O  s               0.6       0.1       0.9       0.4       0.1       0.0
 2 O  pz              2.7       1.5       0.3       0.2       2.6       0.5
 2 O  px              0.1       2.5       0.5       2.3       5.5       1.0
 2 O  py              1.5       1.9       0.3       2.9       0.3       2.9
 2 O  dz2             5.4       0.0       0.5       0.0       0.8       1.7
 2 O  dxz             0.1       0.1       2.9       0.0       0.1       0.2
 2 O  dyz             0.4       1.1       1.3       0.0       1.0       0.0
 2 O  dx2y2           0.1       5.9       2.4       0.5       0.6       0.9
 2 O  dxy             0.0       0.5       4.1       1.0       0.0       3.4
 3 O  s               0.6       0.1       0.9       0.3       0.1       0.1
 3 O  pz              2.8       1.2       0.3       0.2       2.7       0.5
 3 O  px              0.0       2.3       0.4       2.3       5.1       2.6
 3 O  py              1.0       2.8       0.4       2.8       0.4       2.9
 3 O  dz2             5.2       0.0       0.5       0.0       0.7       1.6
 3 O  dxz             0.2       0.0       3.1       0.0       0.1       0.0
 3 O  dyz             0.2       0.9       1.3       0.0       1.0       0.0
 3 O  dx2y2           0.2       5.8       3.2       0.8       0.6       1.3
 3 O  dxy             0.0       0.2       4.0       1.0       0.0       2.1
 4 Cl s               0.7       0.0       1.0       0.1       0.0       0.1
 4 Cl pz              0.1       0.6       0.0       0.0      23.4       1.0
 4 Cl px             17.2       0.0       4.0      23.4       0.0       2.2
 4 Cl py              3.0       0.0       0.3       8.4       0.2      54.8
 4 Cl dz2             0.5       0.1       7.7      24.6       0.0       2.4
 4 Cl dxz             0.0      21.8       0.0       0.0       3.8       0.0
 4 Cl dyz             0.0       7.9       0.0       0.0      34.8       0.1
 4 Cl dx2y2           5.1       0.1       8.7       1.9       0.0       0.9
 4 Cl dxy            19.2       0.1       0.7       6.7       0.0       4.0
 5 H  s               1.5       0.0       2.8       0.1       0.0       0.0
 5 H  pz              0.0       0.5       0.0       0.0       0.1       0.0
 5 H  px              0.6       0.0       0.4       0.0       0.0       0.1
 5 H  py              0.0       0.0       0.1       0.1       0.0       0.2
 6 H  s               0.9       2.5       3.5       0.6       0.2       0.5
 6 H  pz              0.9       0.4       0.7       0.3       0.0       0.0
 6 H  px              0.1       0.9       0.3       0.0       0.0       0.2
 6 H  py              0.0       0.0       0.0       0.0       0.3       0.1
 7 H  s               0.6       2.7       3.6       0.9       0.2       0.2
 7 H  pz              0.6       0.7       0.9       0.4       0.0       0.0
 7 H  px              0.2       0.7       0.3       0.0       0.0       0.2
 7 H  py              0.0       0.0       0.0       0.0       0.3       0.0

                     48        49        50        51        52        53   
                   0.38644   0.39209   0.42320   0.42435   0.44718   0.46497
                   0.00000   0.00000   0.00000   0.00000   0.00000   0.00000
                  --------  --------  --------  --------  --------  --------
 0 C  s              10.0       0.2       1.2       0.0       1.5       1.4
 0 C  pz              0.2       6.0       0.0       0.5       0.1       0.0
 0 C  px              0.4       0.3       0.0       0.0       1.4       0.0
 0 C  py              4.2       0.1       0.6       0.0       3.4       0.4
 0 C  dz2             0.0       0.0       0.0       0.0       0.4       0.0
 0 C  dxz             0.0       1.0       0.0       0.0       0.0       0.0
 0 C  dyz             0.0       0.1       0.0       1.1       0.0       0.0
 0 C  dx2y2           0.2       0.0       0.2       0.0       0.4       0.2
 0 C  dxy             0.7       0.0       0.0       0.0       0.3       0.0
 1 S  s               0.8       0.0       0.9       0.0       0.2       1.2
 1 S  pz              0.0       0.4       0.0       7.2       0.0       0.0
 1 S  px              1.1       0.1       0.9       0.0       0.8       0.7
 1 S  py              2.7       0.1       1.4       0.0       1.2       0.0
 1 S  dz2             2.0       0.0       2.9       0.0       0.8       0.4
 1 S  dxz             0.0       3.1       0.0       3.2       0.0       0.0
 1 S  dyz             0.0       0.4       0.0       4.2       0.0       0.0
 1 S  dx2y2           0.2       0.1       0.7       0.0       0.9       2.9
 1 S  dxy             0.0       0.1       1.9       0.0       2.1       2.2
 2 O  s               0.7       1.1       1.2       1.8       0.1       0.1
 2 O  pz              3.5       1.0      24.7       4.4       0.4       8.4
 2 O  px              0.8       2.4       3.0       3.7       0.2       6.8
 2 O  py              3.4       1.1       0.8      10.8       1.1       0.0
 2 O  dz2             0.5       0.0       1.1       1.0       0.1       1.0
 2 O  dxz             0.1       2.1       6.7       3.0       2.0       6.5
 2 O  dyz             1.0       0.3       3.2       4.2      11.5       0.1
 2 O  dx2y2           1.3       0.7       0.0       0.1      18.0       0.4
 2 O  dxy             0.8       1.3       0.0       3.4       0.8       2.8
 3 O  s               0.9       0.5       1.0       2.1       0.2       0.1
 3 O  pz              3.8       0.1      22.4       7.5       0.3       7.7
 3 O  px              0.5       2.2       2.6       4.1       0.0       5.6
 3 O  py              2.7       0.1       1.1      12.6       0.6       0.0
 3 O  dz2             0.5       0.5       0.8       1.2       0.1       0.7
 3 O  dxz             0.0       1.7       6.1       3.7       3.2       5.9
 3 O  dyz             0.6       0.1       2.5       7.2      10.3       0.1
 3 O  dx2y2           1.9       0.0       0.0       0.3      15.7       0.2
 3 O  dxy             0.4       2.8       0.0       3.6       0.6       3.1
 4 Cl s               0.4       0.0       0.2       0.0       2.0       2.2
 4 Cl pz              0.9      35.4       0.0       0.9       0.0       0.0
 4 Cl px              0.7       0.1       4.2       0.0       2.2       7.4
 4 Cl py              2.2       0.5       0.0       0.0       0.7       0.7
 4 Cl dz2            17.9       0.1       1.3       0.0       0.2      16.7
 4 Cl dxz             0.0       0.4       0.0       3.9       0.0       0.0
 4 Cl dyz             0.8      28.4       0.1       2.6       0.0       0.0
 4 Cl dx2y2          12.3       0.1       3.2       0.0       9.1       8.6
 4 Cl dxy             0.0       0.0       0.3       0.0       1.0       4.2
 5 H  s               8.3       0.3       0.4       0.0       0.3       0.2
 5 H  pz              0.0       0.5       0.0       0.2       0.0       0.0
 5 H  px              1.5       0.1       0.2       0.0       0.2       0.0
 5 H  py              0.9       0.0       0.0       0.0       0.1       0.2
 6 H  s               3.7       1.4       0.6       0.2       1.9       0.2
 6 H  pz              0.6       0.0       0.1       0.0       0.3       0.1
 6 H  px              0.7       0.1       0.1       0.0       0.0       0.0
 6 H  py              0.0       0.0       0.0       0.5       0.1       0.0
 7 H  s               2.0       2.3       0.9       0.2       2.7       0.3
 7 H  pz              0.7       0.0       0.1       0.1       0.4       0.1
 7 H  px              0.3       0.5       0.1       0.0       0.0       0.0
 7 H  py              0.1       0.0       0.0       0.5       0.1       0.0

                     54        55        56        57        58        59   
                   0.47765   0.50489   0.51261   0.53960   0.56777   0.61159
                   0.00000   0.00000   0.00000   0.00000   0.00000   0.00000
                  --------  --------  --------  --------  --------  --------
 0 C  s               0.0       1.1      10.0       0.1       0.0      11.8
 0 C  pz              0.9       0.3       0.1       0.0       0.6       0.0
 0 C  px              0.0       0.1       0.6       2.2       0.0       1.1
 0 C  py              0.0       0.0       0.1       0.4       0.0       2.4
 0 C  dz2             0.0       0.1       0.4       0.0       0.0       0.0
 0 C  dx2y2           0.0       0.0       0.2       0.0       0.0       0.2
 0 C  dxy             0.0       0.0       0.1       1.1       0.0       0.1
 1 S  s               0.0       0.4       2.2       0.0       0.0      12.0
 1 S  pz              0.3       1.6       0.3       0.0       5.1       0.0
 1 S  px              0.0       0.0       0.1       0.7       0.0       1.9
 1 S  py              0.0       0.7       5.7       3.9       0.0       2.2
 1 S  dz2             0.0       0.2       1.2       5.7       0.0       0.1
 1 S  dxz             5.2       0.9       0.1       0.0       1.0       0.0
 1 S  dyz             0.7       0.4       0.1       0.0       0.4       0.0
 1 S  dx2y2           0.0       0.3       2.7       1.6       0.0       1.8
 1 S  dxy             0.0       0.0       0.3       2.9       0.0       8.3
 2 O  s               0.0       0.4       0.4       0.4       0.3       4.7
 2 O  pz              0.3       3.0       3.1       0.4       0.4       0.3
 2 O  px             10.5       3.1       0.0       0.2       0.2       0.1
 2 O  py              8.3       1.5      12.4       0.6       2.9       0.0
 2 O  dz2             0.3      16.8       8.5       0.0       6.0       5.6
 2 O  dxz             8.1       0.0       0.9       2.8       0.4       0.3
 2 O  dyz             5.6       0.1      12.1       0.1       3.2       0.1
 2 O  dx2y2           5.2       3.1       2.3       2.9       9.7       0.1
 2 O  dxy             1.0       3.3       0.4      19.7      18.3       0.2
 3 O  s               0.0       0.0       0.8       0.4       0.2       5.0
 3 O  pz              0.4       6.4       0.2       0.3       0.5       0.2
 3 O  px             11.6       2.4       1.0       0.2       0.1       0.1
 3 O  py              8.4       9.7       3.3       0.6       3.4       0.1
 3 O  dz2             0.3      24.0       0.3       0.0       7.2       5.9
 3 O  dxz             8.1       0.5       0.4       2.8       0.4       0.1
[...]
 2 O  dx2y2           0.3      15.8      12.9       1.1       1.8       0.1
 2 O  dxy             1.0       4.0       1.1       3.6       1.1       0.1
 3 O  s               0.4       0.0       0.2       6.2       5.0      38.3
 3 O  pz              0.8       0.3       0.5       1.2       2.4       1.7
 3 O  px              2.6       4.7       5.9       1.4       1.2       0.0
 3 O  py              6.0       1.7       1.0       7.4       0.2       0.2
 3 O  dz2            26.8       0.0       0.7       6.4       8.3       0.7
 3 O  dxz             0.3      13.8       7.7       3.4       0.4       0.9
 3 O  dyz             4.2       3.6       2.2      12.5       0.0       3.3
 3 O  dx2y2           0.3      15.6      12.8       1.1       2.0       0.1
 3 O  dxy             1.2       4.0       1.4       3.6       1.0       0.1
 4 Cl s               0.0       0.0       1.2       0.2       1.0       0.0
 4 Cl pz              0.3       0.7       0.0       0.0       0.0       0.2
 4 Cl px              0.0       0.0       7.6       1.0       4.3       0.0
 4 Cl py              0.0       0.0       0.3       0.1       0.3       0.0
 4 Cl dxz             0.3       0.9       0.0       0.0       0.0       0.0
 4 Cl dyz             0.1       0.2       0.0       0.0       0.0       0.0
 4 Cl dx2y2           0.0       0.0       0.2       0.0       0.1       0.0
 4 Cl dxy             0.0       0.0       0.2       0.1       0.1       0.0
 5 H  s               0.0       0.0       0.8       0.0       1.2       0.0
 5 H  pz              1.1       0.2       0.0       0.0       0.0       0.0
 5 H  px              0.0       0.0       4.6       0.6       5.6       0.0
 5 H  py              0.0       0.0       2.4       0.0       3.5       0.0
 6 H  s               0.2       0.2       0.2       0.1       1.4       0.1
 6 H  pz              0.1       0.3       0.9       0.6       7.0       0.1
 6 H  px              0.6       0.3       1.1       0.4       3.4       0.2
 6 H  py              0.7       0.1       0.1       0.0       0.1       0.0
 7 H  s               0.2       0.2       0.2       0.1       1.4       0.1
 7 H  pz              0.1       0.4       1.1       0.7       7.9       0.2
 7 H  px              0.4       0.3       0.9       0.4       2.5       0.2
 7 H  py              0.7       0.2       0.1       0.0       0.1       0.0

                    126       127       128       129       130       131   
                   3.32878   3.51178   3.52199   3.64313   3.87203  19.51533
                   0.00000   0.00000   0.00000   0.00000   0.00000   0.00000
                  --------  --------  --------  --------  --------  --------
 0 C  s               4.1       0.0       0.1       0.2       0.0       0.0
 0 C  pz              0.0      14.0       0.2       0.0       1.0       0.0
 0 C  px              0.5       0.2      10.9       1.8       0.0       0.0
 0 C  py              1.8       0.0       2.2       0.1       0.0       0.0
 0 C  dz2             1.9       0.0      12.7       3.1       0.0       0.0
 0 C  dxz             0.0      25.2       0.0       0.0       1.0       0.0
 0 C  dyz             0.0       0.9       0.1       0.0       0.0       0.0
 0 C  dx2y2           2.3       0.1       0.4       0.2       0.0       0.0
 0 C  dxy             0.9       0.0      11.9       0.3       0.0       0.0
 1 S  s               3.0       0.0       0.4       3.6       0.0      99.1
 1 S  pz              0.0       0.4       0.0       0.0       7.7       0.0
 1 S  px              0.4       0.0       0.4       0.4       0.0       0.0
 1 S  py              5.9       0.0       0.4       2.1       0.0       0.1
 1 S  dz2             0.2       0.0       0.7       2.4       0.0       0.0
 1 S  dxz             0.0       0.3       0.0       0.0       1.1       0.0
 1 S  dyz             0.0       0.3       0.0       0.0       4.5       0.0
 1 S  dxy             0.4       0.0       0.1       0.4       0.0       0.0
 2 O  s              20.1       0.1       0.9      14.7       9.5       0.1
 2 O  pz              2.4       0.3       1.1       8.2       8.3       0.1
 2 O  px              0.3       0.1       0.0       0.4       0.8       0.0
 2 O  py              0.2       0.0       0.0       2.0       3.1       0.0
 2 O  dz2             4.5       0.7       1.2       5.1       6.3       0.0
 2 O  dxz             0.0       0.5       0.3       1.2       2.3       0.0
 2 O  dyz             0.1       0.4       0.3       6.5      10.6       0.0
 2 O  dx2y2           0.1       0.1       0.0       0.6       0.2       0.0
 2 O  dxy             0.1       0.0       0.3       1.3       0.3       0.0
 3 O  s              21.6       0.1       0.7      14.8       9.4       0.1
 3 O  pz              2.6       0.2       1.2       8.1       8.4       0.1
 3 O  px              0.3       0.1       0.0       0.4       0.8       0.0
 3 O  py              0.1       0.0       0.0       2.0       3.1       0.0
 3 O  dz2             4.8       0.6       1.4       5.0       6.4       0.0
 3 O  dxz             0.0       0.4       0.4       1.2       2.3       0.0
 3 O  dyz             0.2       0.4       0.3       6.5      10.6       0.0
 3 O  dx2y2           0.1       0.1       0.0       0.7       0.2       0.0
 3 O  dxy             0.0       0.0       0.3       1.3       0.3       0.0
 4 Cl s               0.0       0.0       0.1       0.0       0.0       0.0
 4 Cl pz              0.0       0.1       0.0       0.0       0.2       0.0
 4 Cl px              0.0       0.0       0.4       0.2       0.0       0.0
 5 H  s               0.4       0.0      10.7       0.8       0.0       0.0
 5 H  pz              0.0       0.3       0.1       0.0       0.0       0.0
 5 H  px              2.9       0.1      17.7       0.7       0.0       0.0
 5 H  py              0.5       0.0       8.4       0.5       0.0       0.0
 6 H  s               1.1       8.6       1.6       0.4       0.4       0.0
 6 H  pz              5.0      12.3       2.8       0.7       0.2       0.0
 6 H  px              2.5       7.7       0.6       0.2       0.2       0.0
 6 H  py              0.0       0.2       0.2       0.0       0.0       0.0
 7 H  s               1.1       7.5       2.6       0.6       0.4       0.0
 7 H  pz              5.5      12.1       4.8       1.0       0.3       0.0
 7 H  px              1.7       5.4       0.8       0.2       0.1       0.0
 7 H  py              0.0       0.2       0.3       0.0       0.0       0.0

                    132       133       134       135   
                  21.89897  25.00890  43.58981  43.65753
                   0.00000   0.00000   0.00000   0.00000
                  --------  --------  --------  --------
 0 C  s              99.6       0.1       0.0       0.0
 1 S  s               0.1       0.1       0.0       0.2
 1 S  px              0.0       0.1       0.0       0.0
 2 O  s               0.0       0.0      50.8      49.1
 3 O  s               0.0       0.0      49.1      50.7
 4 Cl s               0.0      99.4       0.0       0.0
 4 Cl px              0.0       0.1       0.0       0.0


                      *****************************
                      * MAYER POPULATION ANALYSIS *
                      *****************************

  NA   - Mulliken gross atomic population
  ZA   - Total nuclear charge
  QA   - Mulliken gross atomic charge
  VA   - Mayer's total valence
  BVA  - Mayer's bonded valence
  FA   - Mayer's free valence

  ATOM       NA         ZA         QA         VA         BVA        FA
  0 C      6.4399     6.0000    -0.4399     3.7287     3.7287    -0.0000
  1 S     15.0270    16.0000     0.9730     5.3623     5.3623    -0.0000
  2 O      8.5263     8.0000    -0.5263     1.8448     1.8448     0.0000
  3 O      8.5264     8.0000    -0.5264     1.8440     1.8440     0.0000
  4 Cl    17.1754    17.0000    -0.1754     1.1528     1.1528    -0.0000
  5 H      0.7686     1.0000     0.2314     0.9373     0.9373    -0.0000
  6 H      0.7680     1.0000     0.2320     0.9359     0.9359    -0.0000
  7 H      0.7685     1.0000     0.2315     0.9362     0.9362    -0.0000

  Mayer bond orders larger than 0.100000
B(  0-C ,  1-S ) :   0.8961 B(  0-C ,  5-H ) :   0.9060 B(  0-C ,  6-H ) :   0.9037 
B(  0-C ,  7-H ) :   0.9050 B(  1-S ,  2-O ) :   1.7100 B(  1-S ,  3-O ) :   1.7094 
B(  1-S ,  4-Cl) :   0.9698 

-------
TIMINGS
-------

Total SCF time: 0 days 0 hours 0 min 13 sec 

Total time                  ....      13.191 sec
Sum of individual times     ....      12.771 sec  ( 96.8%)

SCF preparation             ....       0.272 sec  (  2.1%)
Fock matrix formation       ....      11.600 sec  ( 87.9%)
  Startup                   ....       0.060 sec  (  0.5% of F)
  Split-RI-J                ....       1.373 sec  ( 11.8% of F)
  XC integration            ....       7.831 sec  ( 67.5% of F)
    XC Preparation          ....       0.000 sec  (  0.0% of XC)
    Basis function eval.    ....       1.231 sec  ( 15.7% of XC)
    Density eval.           ....       2.121 sec  ( 27.1% of XC)
    XC-Functional eval.     ....       1.200 sec  ( 15.3% of XC)
    XC-Potential eval.      ....       2.396 sec  ( 30.6% of XC)
  CPCM terms                ....       1.775 sec  ( 15.3% of F)
Diagonalization             ....       0.000 sec  (  0.0%)
Density matrix formation    ....       0.259 sec  (  2.0%)
Total Energy calculation    ....       0.046 sec  (  0.3%)
Population analysis         ....       0.056 sec  (  0.4%)
Orbital Transformation      ....       0.048 sec  (  0.4%)
Orbital Orthonormalization  ....       0.000 sec  (  0.0%)
DIIS solution               ....       0.405 sec  (  3.1%)
  MO trafo                  ....       0.000 sec  (  0.0 % of DIIS)
  Orb grad                  ....       0.000 sec  (  0.0 % of DIIS)
  Energy W gradient         ....       0.000 sec  (  0.0 % of DIIS)
  DIIS error                ....       0.005 sec  (  1.2 % of DIIS)
  DIIS work                 ....       0.356 sec  ( 88.1 % of DIIS)
  Form Q                    ....       0.000 sec  (  0.0 % of DIIS)
  Form QpQm                 ....       0.000 sec  (  0.0 % of DIIS)
  Exp/Cayley                ....       0.000 sec  (  0.0 % of DIIS)
  Orb update                ....       0.000 sec  (  0.0 % of DIIS)
  Wake-sleep                ....       0.021 sec  (  5.1 % of DIIS)
SOSCF solution              ....       0.086 sec  (  0.7%)
  MO trafo                  ....       0.038 sec  ( 44.0 % of SOSCF)
  Orb grad                  ....       0.001 sec  (  1.2 % of SOSCF)
  Rot update                ....       0.029 sec  ( 33.3 % of SOSCF)
  Step                      ....       0.018 sec  ( 21.4 % of SOSCF)
Finished LeanSCF after  13.3 sec

Maximum memory used throughout the entire LEANSCF-calculation: 13.6 MB


-------------------------------------------------------------------------------
                          DFT DISPERSION CORRECTION                            
                                                                               
                                DFTD4 V3.4.0                                   
-------------------------------------------------------------------------------
The R2SCAN3C composite method is recognized
Using three-body term ABC
Active option DFTDOPT                   ...         5   

-------------------------   ----------------
Dispersion correction           -0.002217086
-------------------------   ----------------

------------------   -----------------
gCP correction             0.014406996
------------------   -----------------

-------------------------   --------------------
FINAL SINGLE POINT ENERGY     -1048.642336408934
-------------------------   --------------------


------------------------------------------------------------------------------
                              ORCA PROPERTY CALCULATIONS
------------------------------------------------------------------------------

GBWName                                 ... sp_solv.gbw
Number of atoms                         ...      8
Number of basis functions               ...    136
Max core memory                         ...   1024 MB

Electric properties:
Dipole moment                           ... YES
Quadrupole moment                       ...  NO
Static polarizability (Dipole/Dipole)   ...  NO
Static polarizability (Dipole/Quad.)    ...  NO
Static polarizability (Quad./Quad.)     ...  NO
Static polarizability (Velocity)        ...  NO

Atomic electric properties:
Dipole moment                           ...  NO
Quadrupole moment                       ...  NO
Static polarizability                   ...  NO

Choice of electric origin               ... Center of mass
Position of electric origin             ...     0.000042    -0.000030    -0.000000

General magnetic properties:
Magnetizability                         ...  NO

EPR properties:
g-Tensor (aka g-matrix)                 ...  NO
Zero-Field splitting spin-orbit         ...  NO
Zero-field splitting spin-spin          ...  NO
Hyperfine couplings                     ...  NO (   0 nuclei)
Quadrupole couplings                    ...  NO (   0 nuclei)
Contact density                         ...  NO (   0 nuclei)

NMR properties:
Chemical shifts                         ...  NO (   0 nuclei)
Spin-rotation constants                 ...  NO (   0 nuclei)
Spin-spin couplings                     ...  NO (   0 nuclei,    0 pairs)

Choice of magnetic origin               ... GIAO
Position of magnetic origin             ...     0.000000     0.000000     0.000000

Properties with geometric perturbations:
SCF Hessian                             ...  NO
IR spectrum                             ...  NO
VCD spectrum                            ...  NO
X-ray spectroscopy properties:
SCF XES/XAS/RIXS spectra                ...  NO


-------------
DIPOLE MOMENT
-------------

Method             : SCF
Type of density    : Electron Density
Multiplicity       :   1
Irrep              :   0
Energy             : -1048.6545263197906479 Eh
Relativity type    : 
Basis              : AO
                                X                 Y                 Z
Electronic contribution:      4.952928008       3.025121245       0.000133271
Nuclear contribution   :     -5.279340234      -5.272325178       0.002322189
                        -----------------------------------------
Total Dipole Moment    :     -0.326412227      -2.247203934       0.002455460
                        -----------------------------------------
Magnitude (a.u.)       :      2.270787636
Magnitude (Debye)      :      5.771883473



--------------------
Rotational spectrum 
--------------------
 
Rotational constants in cm-1:             0.151971             0.091815             0.086276 
Rotational constants in MHz :          4555.973474          2752.529779          2586.476038 

Dipole components along the rotational axes: 
x,y,z [a.u.] :     0.370817    -2.240300     0.005150 
x,y,z [Debye]:     0.942541    -5.694391     0.013091 

 

Dipole moment calculation done in   0.0 sec 

Maximum memory used throughout the entire PROP-calculation: 7.8 MB

--------------------------------
SUGGESTED CITATIONS FOR THIS RUN
--------------------------------

Below you find a list of papers that are relevant to this ORCA run
We neither can nor want to force you to cite these papers, but we appreciate if you do
You receive ORCA, which is the product of decades of hard work by many enthusiastic individuals, for free
The only thing we kindly ask in return is that you cite our papers,
We deeply appreciate it, if you show your appreciation for ORCA by not just citing the generic ORCA reference.

Please note that relegating all ORCA citations to the supporting information does *not* help us.
SI sections are not indexed - citations you put there will not count into any citation statistics
But we need these citations in order to attract the funding resources that allow us to do what we are doing

Therefore, if you are a happy ORCA user, please consider citing a few of the papers listed below in the main body of your paper

In addition to the list printed below, the program has created the file sp_solv.bibtex that contains the list in bibtex format
You can import this file easily into all common literature databanks and citation aid programs


List of essential papers. We consider these as the minimum necessary citations

  1. Neese,F.
     Software update: the ORCA program system, version 5.0
     WIRES Comput. Molec. Sci., 2022 12(1)e1606
     doi.org/10.1002/wcms.1606
  2. Grimme,S.; Hansen,A.; Ehlert,S.; Mewes,J.
     r2SCAN-3c: A 'Swiss army knife' composite electronic-structure method
     J. Chem. Phys., 2021 154 064103
     doi.org/10.1063/5.0040021

List of papers to cite with high priority. The work reported in these papers was absolutely
necessary for this run to complete.
Our perspective: the developers of density functionals and basis sets usually get cited in chemistry papers
Good! But without the algorithms to do something with them, the functionals or basis sets would not do anything.
Hence, in our opinion, the algorithm design and method developments papers are equally worthy of getting cited

  1. Neese,F.
     An improvement of the resolution of the identity approximation for the formation of the Coulomb matrix
     J. Comp. Chem., 2003 24(14)1740-1747
     doi.org/10.1002/jcc.10318
  2. Garcia-Rates,M.; Neese,F.
     Effect of the Solute Cavity on the Solvation Energy and its Derivatives within the Framework of the Gaussian Charge Scheme
     J. Comput. Chem., 2020 41 922-939
     doi.org/10.1002/jcc.26139
  3. Neese,F.
     The SHARK Integral Generation and Digestion System
     J. Comp. Chem., 2022  1-16
     doi.org/10.1002/jcc.26942
  4. Lehtola,S.; Steigemann,C.; Oliveira,M.; Marques,M.
     Recent developments in Libxc - A comprehensive library of functionals for density functional theory
     Software X, 2018 7 
     doi.org/10.1016/j.softx.2017.11.002
  5. Caldeweyher,E.; Bannwarth,C.; Grimme,S.
     Extension of the D3 dispersion coefficient model
     J. Chem. Phys., 2017 147 034112-XXXX
     doi.org/10.1063/1.4993215
  6. Caldeweyher,E.; Ehlert,S.; Hansen,A.; Neugebauer,H.; Spicher,S.; Bannwarth,C.; Grimme,S.
     A generally applicable atomic-charge dependent London dispersion correction
     J. Chem. Phys., 2019 150 154122-XXXX
     doi.org/10.1063/1.5090222
  7. Caldeweyher,E.; Mewes,J.; Ehlert,S.; Grimme,S.
     Extension and evaluation of the D4 London-dispersion model for periodic systems
     Phys. Chem. Chem. Phys., 2020 22(16)8499-8512
     doi.org/10.1039/D0CP00502A

List of suggested additional citations. These are papers that are important in the 'surrounding' of 
of this run, or papers that preceded the highly important papers. If you like your results we are grateful for a citation.

  1. Neese,F.
     The ORCA program system
     WIRES Comput. Molec. Sci., 2012 2(1)73-78
     doi.org/10.1002/wcms.81
  2. Neese,F.
     Software update: the ORCA program system, version 4.0
     WIRES Comput. Molec. Sci., 2018 8(1)1-6
     doi.org/10.1002/wcms.1327
  3. Neese,F.; Wennmohs,F.; Becker,U.; Riplinger,C.
     The ORCA quantum chemistry program package
     J. Chem. Phys., 2020 152 Art. No. L224108
     doi.org/10.1063/5.0004608

List of optional additional citations

  1. Neese,F.
     Approximate second-order SCF convergence for spin unrestricted wavefunctions
     Chem. Phys. Lett., 2000 325(1-3)93-98
     doi.org/10.1016/s0009-2614(00)00662-x

Timings for individual modules:

Sum of individual times          ...       14.352 sec (=   0.239 min)
Startup calculation              ...        0.623 sec (=   0.010 min)   4.3 %
SCF iterations                   ...       13.632 sec (=   0.227 min)  95.0 %
Property calculations            ...        0.096 sec (=   0.002 min)   0.7 %
                             ****ORCA TERMINATED NORMALLY****
TOTAL RUN TIME: 0 days 0 hours 0 minutes 14 seconds 991 msec
