
                                 *****************
                                 * O   R   C   A *
                                 *****************

                                            #,                                       
                                            ###                                      
                                            ####                                     
                                            #####                                    
                                            ######                                   
                                           ########,                                 
                                     ,,################,,,,,                         
                               ,,#################################,,                 
                          ,,##########################################,,             
                       ,#########################################, ''#####,          
                    ,#############################################,,   '####,        
                  ,##################################################,,,,####,       
                ,###########''''           ''''###############################       
              ,#####''   ,,,,##########,,,,          '''####'''          '####       
            ,##' ,,,,###########################,,,                        '##       
           ' ,,###''''                  '''############,,,                           
         ,,##''                                '''############,,,,        ,,,,,,###''
      ,#''                                            '''#######################'''  
     '                                                          ''''####''''         
             ,#######,   #######,   ,#######,      ##                                
            ,#'     '#,  ##    ##  ,#'     '#,    #''#        ,####,   ,####,        
            ##       ##  ##   ,#'  ##            #'  '#       #'       #'  '#        
            ##       ##  #######   ##           ,######,      #####,   #    #        
            '#,     ,#'  ##    ##  '#,     ,#' ,#      #,     #,   #   #,  ,#        
             '#######'   ##     ##  '#######'  #'      '#     '####' # '####'        



                #########################################################
                #                        -***-                          #
                #          Department of theory and spectroscopy        #
                #                                                       #
                #                      Frank Neese                      #
                #                                                       #
                #     Directorship, Architecture, Infrastructure        #
                #                    SHARK, DRIVERS                     #
                #        Core code/Algorithms in most modules           #
                #                                                       #
                #        Max Planck Institute fuer Kohlenforschung      #
                #                Kaiser Wilhelm Platz 1                 #
                #                 D-45470 Muelheim/Ruhr                 #
                #                      Germany                          #
                #                                                       #
                #                  All rights reserved                  #
                #                        -***-                          #
                #########################################################


                         Program Version 6.0.0  -   RELEASE  -


 With contributions from (in alphabetic order):
   Daniel Aravena         : Magnetic Suceptibility
   Michael Atanasov       : Ab Initio Ligand Field Theory (pilot matlab implementation)
   Alexander A. Auer      : GIAO ZORA, VPT2 properties, NMR spectrum
   Ute Becker             : All parallelization in ORCA, NUMFREQ, NUMCALC
   Giovanni Bistoni       : ED, misc. LED, open-shell LED, HFLD
   Martin Brehm           : Molecular dynamics
   Dmytro Bykov           : pre 5.0 version of the SCF Hessian
   Marcos Casanova-Páez   : Triplet and SCS-CIS(D). UHF-(DLPNO)-IP/EA/STEOM-CCSD. UHF-CVS-IP/STEOM-CCSD
   Vijay G. Chilkuri      : MRCI spin determinant printing, contributions to CSF-ICE
   Pauline Colinet        : FMM embedding
   Dipayan Datta          : RHF DLPNO-CCSD density
   Achintya Kumar Dutta   : EOM-CC, STEOM-CC
   Nicolas Foglia         : Exact transition moments, OPA infrastructure, MCD improvements
   Dmitry Ganyushin       : Spin-Orbit,Spin-Spin,Magnetic field MRCI
   Miquel Garcia          : C-PCM and meta-GGA Hessian, CCSD/C-PCM, Gaussian charge scheme
   Tiago L. C. Gouveia    : GS-ROHF, GS-ROCIS
   Yang Guo               : DLPNO-NEVPT2, F12-NEVPT2, CIM, IAO-localization
   Andreas Hansen         : Spin unrestricted coupled pair/coupled cluster methods
   Ingolf Harden          : AUTO-CI MPn and infrastructure 
   Benjamin Helmich-Paris : MC-RPA, TRAH-(SCF,CASSCF), AVAS, COSX integrals, SCF dyn. polar.
   Lee Huntington         : MR-EOM, pCC
   Robert Izsak           : Overlap fitted RIJCOSX, COSX-SCS-MP3, EOM
   Riya Kayal             : Wick's Theorem for AUTO-CI, AUTO-CI UHF-CCSDT
   Emily Kempfer          : AUTO-CI, RHF CISDT and CCSDT
   Christian Kollmar      : KDIIS, OOCD, Brueckner-CCSD(T), CCSD density, CASPT2, CASPT2-K, improved NEVPT2
   Axel Koslowski         : Symmetry handling
   Simone Kossmann        : Meta GGA functionals, TD-DFT gradient, OOMP2, (MP2 Hessian; deprecated post 5.0)
   Lucas Lang             : DCDCAS
   Marvin Lechner         : AUTO-CI (C++ implementation), FIC-MRCC
   Spencer Leger          : CASSCF response
   Dagmar Lenk            : GEPOL surface, SMD, ORCA-2-JSON
   Dimitrios Liakos       : Extrapolation schemes; Compound Job, initial MDCI parallelization
   Dimitrios Manganas     : Further ROCIS development; embedding schemes. LFT, Crystal Embedding
   Dimitrios Pantazis     : SARC Basis sets
   Anastasios Papadopoulos: AUTO-CI, single reference methods and gradients
   Taras Petrenko         : pre 6.0 DFT Hessian and TD-DFT gradient, (ASA, deprecated), ECA, 1-Electron XAS/XES, NRVS
   Peter Pinski           : DLPNO-MP2, DLPNO-MP2 Gradient
   Christoph Reimann      : Effective Core Potentials
   Marius Retegan         : Local ZFS, SOC
   Christoph Riplinger    : Optimizer, TS searches, QM/MM, DLPNO-CCSD(T), (RO)-DLPNO pert. Triples
   Michael Roemelt        : Original ROCIS implementation
   Masaaki Saitow         : Open-shell DLPNO-CCSD energy and density
   Barbara Sandhoefer     : DKH picture change effects
   Kantharuban Sivalingam : CASSCF convergence/infrastructure, NEVPT2 and variants, FIC-MRCI
   Bernardo de Souza      : ESD, SOC TD-DFT
   Georgi Stoychev        : AutoAux, RI-MP2 NMR, DLPNO-MP2 response, X2C
   Van Anh Tran           : RI-MP2 g-tensors
   Willem Van den Heuvel  : Paramagnetic NMR
   Zikuan Wang            : NOTCH, Electric field optimization 
   Frank Wennmohs         : Technical directorship and infrastructure
   Hang Xu                : AUTO-CI-Response properties 


 We gratefully acknowledge several colleagues who have allowed us to
 interface, adapt or use parts of their codes:
   Stefan Grimme, W. Hujo, H. Kruse, P. Pracht,  : VdW corrections, initial TS optimization,
                  C. Bannwarth, S. Ehlert,         DFT functionals, gCP, sTDA/sTD-DF
                  L. Wittmann, M. Mueller
   Ed Valeev, F. Pavosevic, A. Kumar             : LibInt (2-el integral package), F12 methods
   Garnet Chan, S. Sharma, J. Yang, R. Olivares  : DMRG
   Ulf Ekstrom                                   : XCFun DFT Library
   Mihaly Kallay                                 : mrcc  (arbitrary order and MRCC methods)
   Frank Weinhold                                : gennbo (NPA and NBO analysis)
   Simon Mueller                                 : openCOSMO-RS
   Christopher J. Cramer and Donald G. Truhlar   : smd solvation model
   Lars Goerigk                                  : TD-DFT with DH, B97 family of functionals
   V. Asgeirsson, H. Jonsson                     : NEB implementation
   FAccTs GmbH                                   : IRC, NEB, NEB-TS, DLPNO-Multilevel, CI-OPT
                                                   MM, QMMM, 2- and 3-layer-ONIOM, Crystal-QMMM,
                                                   LR-CPCM, SF, NACMEs, symmetry and pop. for TD-DFT,
                                                   nearIR, NL-DFT gradient (VV10), updates on ESD,
                                                   ML-optimized integration grids, MBIS, APM,
                                                   GOAT, DOCKER, SOLVATOR, interface openCOSMO-RS
   S Lehtola, MJT Oliveira, MAL Marques          : LibXC Library
   Liviu Ungur et al                             : ANISO software


 Your calculation uses the libint2 library for the computation of 2-el integrals
 For citations please refer to: http://libint.valeyev.net

 Your ORCA version has been built with support for libXC version: 6.2.2
 For citations please refer to: https://libxc.gitlab.io

 This ORCA versions uses:
   CBLAS   interface :  Fast vector & matrix operations
   LAPACKE interface :  Fast linear algebra routines
   SCALAPACK package :  Parallel linear algebra routines
   Shared memory     :  Shared parallel matrices
   BLAS/LAPACK       :  OpenBLAS 0.3.27  USE64BITINT DYNAMIC_ARCH NO_AFFINITY SapphireRapids SINGLE_THREADED
        Core in use  :  SapphireRapids
   Copyright (c) 2011-2014, The OpenBLAS Project


Your calculation utilizes the geometrical counterpoise correction gCP
Please cite in your paper:
H.Kruse, S. Grimme J.Chem.Phys., 136, (2012), 154101 
   

Your calculation utilizes the DFT-NL dispersion correction.
Cite in your paper:
Vydrov, O. A.; Van Voorhis, T. J. Chem. Phys. 2010, 133, 244103
Hujo, W.; Grimme, S. J. Chem. Theory Comput. 2011, 7, 3866 
   

================================================================================

----- Orbital basis set information -----
Your calculation utilizes the basis: def2-TZVP
   F. Weigend and R. Ahlrichs, Phys. Chem. Chem. Phys. 7, 3297 (2005).

----- AuxJ basis set information -----
Your calculation utilizes the auxiliary basis: def2/J
   F. Weigend, Phys. Chem. Chem. Phys. 8, 1057 (2006).

================================================================================
                                        WARNINGS
                       Please study these warnings very carefully!
================================================================================


================================================================================
                                       INPUT FILE
================================================================================
NAME = sp_gas.inp
|  1> ! wb97x-v def2-tzvp def2/J RIJCOSX DEFGRID2 scfconv7 GCP(DFT/TZ) printgap
|  2> %output
|  3>     printlevel normal
|  4> end
|  5> * xyz 0 1
|  6> C 1.8561053031295647 0.0700636650454906 0.25590797621589645
|  7> C 0.54536597256126 -0.16161850380653256 -0.4582699363405589
|  8> O -0.5288858883109588 0.15369648884625198 0.44041607546391154
|  9> C -1.798454338822292 -0.044761801394504606 -0.17990679920180686
| 10> H 1.9521341486394108 1.1146871692043179 0.56770339005318
| 11> H 1.9377973204450205 -0.5693176831945795 1.1403575206244885
| 12> H 2.688589771154409 -0.16501531724787968 -0.41415945409651683
| 13> H 0.45381459051969286 -1.2105751835570324 -0.7809085084932337
| 14> H 0.4681529493195774 0.4737264675483516 -1.3544367754670963
| 15> H -1.9120865058898853 0.5990939142380052 -1.0641092388020517
| 16> H -2.5655314911417215 0.2146888549220006 0.5537641451821232
| 17> H -1.9310837892885222 -1.0928493103902994 -0.4852039119831081
| 18> *
| 19> 
| 20>                          ****END OF INPUT****
================================================================================

                       ****************************
                       * Single Point Calculation *
                       ****************************

---------------------------------
CARTESIAN COORDINATES (ANGSTROEM)
---------------------------------
  C      1.856105    0.070064    0.255908
  C      0.545366   -0.161619   -0.458270
  O     -0.528886    0.153696    0.440416
  C     -1.798454   -0.044762   -0.179907
  H      1.952134    1.114687    0.567703
  H      1.937797   -0.569318    1.140358
  H      2.688590   -0.165015   -0.414159
  H      0.453815   -1.210575   -0.780909
  H      0.468153    0.473726   -1.354437
  H     -1.912087    0.599094   -1.064109
  H     -2.565531    0.214689    0.553764
  H     -1.931084   -1.092849   -0.485204

----------------------------
CARTESIAN COORDINATES (A.U.)
----------------------------
  NO LB      ZA    FRAG     MASS         X           Y           Z
   0 C     6.0000    0    12.011    3.507531    0.132401    0.483596
   1 C     6.0000    0    12.011    1.030592   -0.305415   -0.866005
   2 O     8.0000    0    15.999   -0.999449    0.290444    0.832266
   3 C     6.0000    0    12.011   -3.398586   -0.084588   -0.339975
   4 H     1.0000    0     1.008    3.688999    2.106453    1.072804
   5 H     1.0000    0     1.008    3.661906   -1.075855    2.154963
   6 H     1.0000    0     1.008    5.080698   -0.311834   -0.782648
   7 H     1.0000    0     1.008    0.857585   -2.287656   -1.475703
   8 H     1.0000    0     1.008    0.884681    0.895213   -2.559515
   9 H     1.0000    0     1.008   -3.613320    1.132123   -2.010875
  10 H     1.0000    0     1.008   -4.848152    0.405703    1.046463
  11 H     1.0000    0     1.008   -3.649220   -2.065186   -0.916903

--------------------------------
INTERNAL COORDINATES (ANGSTROEM)
--------------------------------
 C      0   0   0     0.000000000000     0.00000000     0.00000000
 C      1   0   0     1.510550995778     0.00000000     0.00000000
 O      2   1   0     1.435645204426   108.64152897     0.00000000
 C      3   2   1     1.426881288802   111.28995779   179.93339967
 H      1   2   3     1.094383929296   110.93098645   299.55389990
 H      1   2   3     1.094409928123   110.93162323    60.49148057
 H      1   2   3     1.094204221608   109.73648671   180.01566680
 H      2   1   3     1.101266280146   110.90020285   239.86362341
 H      2   1   3     1.101244789833   110.92218914   120.13796893
 H      4   3   2     1.099671044513   111.10412157   299.50768956
 H      4   3   2     1.092700807773   107.43863754   180.16039920
 H      4   3   2     1.099674644937   111.13498464    60.81519384

---------------------------
INTERNAL COORDINATES (A.U.)
---------------------------
 C      0   0   0     0.000000000000     0.00000000     0.00000000
 C      1   0   0     2.854527693343     0.00000000     0.00000000
 O      2   1   0     2.712976261843   108.64152897     0.00000000
 C      3   2   1     2.696414861452   111.28995779   179.93339967
 H      1   2   3     2.068085911734   110.93098645   299.55389990
 H      1   2   3     2.068135042398   110.93162323    60.49148057
 H      1   2   3     2.067746313419   109.73648671   180.01566680
 H      2   1   3     2.081091669999   110.90020285   239.86362341
 H      2   1   3     2.081051059192   110.92218914   120.13796893
 H      4   3   2     2.078077111533   111.10412157   299.50768956
 H      4   3   2     2.064905273005   107.43863754   180.16039920
 H      4   3   2     2.078083915347   111.13498464    60.81519384

---------------------
BASIS SET INFORMATION
---------------------
There are 3 groups of distinct atoms

 Group   1 Type C   : 11s6p2d1f contracted to 5s3p2d1f pattern {62111/411/11/1}
 Group   2 Type O   : 11s6p2d1f contracted to 5s3p2d1f pattern {62111/411/11/1}
 Group   3 Type H   : 5s1p contracted to 3s1p pattern {311/1}

Atom   0C    basis set group =>   1
Atom   1C    basis set group =>   1
Atom   2O    basis set group =>   2
Atom   3C    basis set group =>   1
Atom   4H    basis set group =>   3
Atom   5H    basis set group =>   3
Atom   6H    basis set group =>   3
Atom   7H    basis set group =>   3
Atom   8H    basis set group =>   3
Atom   9H    basis set group =>   3
Atom  10H    basis set group =>   3
Atom  11H    basis set group =>   3
---------------------------------
AUXILIARY/J BASIS SET INFORMATION
---------------------------------
There are 3 groups of distinct atoms

 Group   1 Type C   : 12s5p4d2f1g contracted to 6s4p3d1f1g pattern {711111/2111/211/2/1}
 Group   2 Type O   : 12s5p4d2f1g contracted to 6s4p3d1f1g pattern {711111/2111/211/2/1}
 Group   3 Type H   : 5s2p1d contracted to 3s1p1d pattern {311/2/1}

Atom   0C    basis set group =>   1
Atom   1C    basis set group =>   1
Atom   2O    basis set group =>   2
Atom   3C    basis set group =>   1
Atom   4H    basis set group =>   3
Atom   5H    basis set group =>   3
Atom   6H    basis set group =>   3
Atom   7H    basis set group =>   3
Atom   8H    basis set group =>   3
Atom   9H    basis set group =>   3
Atom  10H    basis set group =>   3
Atom  11H    basis set group =>   3

Checking for AutoStart:
The File: sp_gas.gbw exists
Trying to determine its content:
     ... Fine, the file contains calculation information
     ... Fine, the calculation information was read
     ... Fine, the file contains a basis set
     ... Fine, the basis set was read
     ... Fine, the file contains a geometry
     ... Fine, the geometry was read
     ... Fine, the file contains a set of orbitals
     ... Fine, the orbitals can be read
     => possible old guess file was deleted
     => GBW file was renamed to GES file
     => GES file is set as startup file
     => Guess is set to MORead
     ... now leaving AutoStart

------------------------------------------------------------------------------
                             ORCA STARTUP CALCULATIONS
                           -- RI-GTO INTEGRALS CHOSEN --
------------------------------------------------------------------------------
------------------------------------------------------------------------------
                   ___                                                        
                  /   \      - P O W E R E D   B Y -                         
                 /     \                                                     
                 |  |  |   _    _      __       _____    __    __             
                 |  |  |  | |  | |    /  \     |  _  \  |  |  /  |          
                  \  \/   | |  | |   /    \    | | | |  |  | /  /          
                 / \  \   | |__| |  /  /\  \   | |_| |  |  |/  /          
                |  |  |   |  __  | /  /__\  \  |    /   |      \           
                |  |  |   | |  | | |   __   |  |    \   |  |\   \          
                \     /   | |  | | |  |  |  |  | |\  \  |  | \   \       
                 \___/    |_|  |_| |__|  |__|  |_| \__\ |__|  \__/        
                                                                              
                      - O R C A' S   B I G   F R I E N D -                    
                                      &                                       
                       - I N T E G R A L  F E E D E R -                       
                                                                              
 v1 FN, 2020, v2 2021, v3 2022-2024                                           
------------------------------------------------------------------------------


----------------------
SHARK INTEGRAL PACKAGE
----------------------

Number of atoms                             ...     12
Number of basis functions                   ...    172
Number of shells                            ...     76
Maximum angular momentum                    ...      3
Integral batch strategy                     ... SHARK/LIBINT Hybrid
RI-J (if used) integral strategy            ... SPLIT-RIJ (Revised 2003 algorithm where possible)
Printlevel                                  ...      1
Contraction scheme used                     ... SEGMENTED contraction
Prescreening option                         ... SCHWARTZ
   Thresh                                   ... 3.000e-11
   Tcut                                     ... 1.000e-12
   Tpresel                                  ... 1.000e-12 
Coulomb Range Separation                    ... NOT USED
Exchange Range Separation                   ... Long Range
   Mu parameter                             ... 3.000e-01
   Scaling (regular/separated)              ... 1.670e-01 8.330e-01
Multipole approximations                    ... NOT USED
Finite Nucleus Model                        ... NOT USED
CABS basis                                  ... NOT available
Auxiliary Coulomb fitting basis             ... AVAILABLE
   # of basis functions in Aux-J            ...    284
   # of shells in Aux-J                     ...    100
   Maximum angular momentum in Aux-J        ...      4
Auxiliary J/K fitting basis                 ... NOT available
Auxiliary Correlation fitting basis         ... NOT available
Auxiliary 'external' fitting basis          ... NOT available

Checking pre-screening integrals            ... done (  0.0 sec) Dimension = 76
Check shell pair data                       ... done (  0.0 sec)
Shell pair information
Shell pair cut-off parameter TPreSel        ...   1.0e-12
Total number of shell pairs                 ...      2926
Shell pairs after pre-screening             ...      2823
Total number of primitive shell pairs       ...      8368
Primitive shell pairs kept                  ...      6564
          la=0 lb=0:    942 shell pairs
          la=1 lb=0:    842 shell pairs
          la=1 lb=1:    209 shell pairs
          la=2 lb=0:    340 shell pairs
          la=2 lb=1:    159 shell pairs
          la=2 lb=2:     36 shell pairs
          la=3 lb=0:    173 shell pairs
          la=3 lb=1:     80 shell pairs
          la=3 lb=2:     32 shell pairs
          la=3 lb=3:     10 shell pairs

Calculating one electron integrals          ... done (  0.0 sec)
Calculating RI/J V-Matrix + Cholesky decomp.... done (  0.0 sec)
Calculating Nuclear repulsion               ... done (  0.0 sec) ENN=    132.883329971616 Eh

Diagonalization of the overlap matrix:
Smallest eigenvalue                        ... 4.672e-04
Time for diagonalization                   ...    0.002 sec
Threshold for overlap eigenvalues          ... 1.000e-07
Number of eigenvalues below threshold      ... 0
Time for construction of square roots      ...    0.014 sec
Total time needed                          ...    0.024 sec

-------------------
DFT GRID GENERATION
-------------------

General Integration Accuracy     IntAcc      ... 4.388
Radial Grid Type                 RadialGrid  ... OptM3 with GC (2021)
Angular Grid (max. ang.)         AngularGrid ... 4 (Lebedev-302)
Angular grid pruning method      GridPruning ... 4 (adaptive)
Weight generation scheme         WeightScheme... mBecke (2022)
Basis function cutoff            BFCut       ... 1.0000e-11
Integration weight cutoff        WCut        ... 1.0000e-14
Partially contracted basis set               ... off
Rotationally invariant grid construction     ... off
Angular grids for H and He will be reduced by one unit

Total number of grid points                  ...    50166
Total number of batches                      ...      791
Average number of points per batch           ...       63
Average number of grid points per atom       ...     4180

--------------------
COSX GRID GENERATION
--------------------

GRIDX 1
-------
General Integration Accuracy     IntAcc      ... 3.816
Radial Grid Type                 RadialGrid  ... OptM3 with GC (2021)
Angular Grid (max. ang.)         AngularGrid ... 1 (Lebedev-50)
Angular grid pruning method      GridPruning ... 4 (adaptive)
Weight generation scheme         WeightScheme... mBecke (2022)
Basis function cutoff            BFCut       ... 1.0000e-11
Integration weight cutoff        WCut        ... 1.0000e-14
Partially contracted basis set               ... on
Rotationally invariant grid construction     ... off
Angular grids for H and He will be reduced by one unit

Total number of grid points                  ...     6490
Total number of batches                      ...       60
Average number of points per batch           ...      108
Average number of grid points per atom       ...      541
UseSFitting                                  ... on

GRIDX 2
-------
General Integration Accuracy     IntAcc      ... 4.020
Radial Grid Type                 RadialGrid  ... OptM3 with GC (2021)
Angular Grid (max. ang.)         AngularGrid ... 2 (Lebedev-110)
Angular grid pruning method      GridPruning ... 4 (adaptive)
Weight generation scheme         WeightScheme... mBecke (2022)
Basis function cutoff            BFCut       ... 1.0000e-11
Integration weight cutoff        WCut        ... 1.0000e-14
Partially contracted basis set               ... on
Rotationally invariant grid construction     ... off
Angular grids for H and He will be reduced by one unit

Total number of grid points                  ...    13558
Total number of batches                      ...      112
Average number of points per batch           ...      121
Average number of grid points per atom       ...     1130
UseSFitting                                  ... on

GRIDX 3
-------
General Integration Accuracy     IntAcc      ... 4.338
Radial Grid Type                 RadialGrid  ... OptM3 with GC (2021)
Angular Grid (max. ang.)         AngularGrid ... 3 (Lebedev-194)
Angular grid pruning method      GridPruning ... 4 (adaptive)
Weight generation scheme         WeightScheme... mBecke (2022)
Basis function cutoff            BFCut       ... 1.0000e-11
Integration weight cutoff        WCut        ... 1.0000e-14
Partially contracted basis set               ... on
Rotationally invariant grid construction     ... off
Angular grids for H and He will be reduced by one unit

Total number of grid points                  ...    29664
Total number of batches                      ...      236
Average number of points per batch           ...      125
Average number of grid points per atom       ...     2472
UseSFitting                                  ... on
Initializing property integral containers    ... done (  0.0 sec)

SHARK setup successfully completed in   1.0 seconds

Maximum memory used throughout the entire STARTUP-calculation: 25.4 MB
-------------------------------------------------------------------------------
                                 ORCA GUESS
                   Start orbitals & Density for SCF / CASSCF
-------------------------------------------------------------------------------

------------
SCF SETTINGS
------------
Hamiltonian:
 Density Functional     Method          .... DFT(GTOs)
 Exchange Functional    Exchange        .... WB97X-V
 Correlation Functional Correlation     .... WB97X-V
 Gradients option       PostSCFGGA      .... off
 Hybrid DFT is turned on
   Fraction HF Exchange ScalHFX         ....  0.167000
   Scaling of DF-GGA-X  ScalDFX         ....  0.000000
   Scaling of DF-GGA-C  ScalDFC         ....  1.000000
   Scaling of DF-LDA-C  ScalLDAC        ....  1.000000
   Perturbative correction              ....  0.000000
 Long-range corrected/Screened/Range-Separated Hybrid DFT is turned on
   Amount of maximum screened exact exchange              ....  0.833000
   Range separation parameter mu (erf(mu*r12)/r12)        ....  0.300000
   NL short-range parameter             ....  6.000000
   NL long-range parameter              ....  0.010000
 RI-approximation to the Coulomb term is turned on
   Number of AuxJ basis functions       .... 284
   RIJ-COSX (HFX calculated with COS-X)).... on


General Settings:
 Integral files         IntName         .... sp_gas
 Hartree-Fock type      HFTyp           .... RHF
 Total Charge           Charge          ....    0
 Multiplicity           Mult            ....    1
 Number of Electrons    NEL             ....   34
 Basis Dimension        Dim             ....  172
 Nuclear Repulsion      ENuc            ....    132.8833299716 Eh

Convergence Acceleration:
 AO-DIIS                CNVDIIS         .... on
   Start iteration      DIISMaxIt       ....    12
   Startup error        DIISStart       ....  0.200000
   # of expansion vecs  DIISMaxEq       ....     5
   Bias factor          DIISBfac        ....   1.050
   Max. coefficient     DIISMaxC        ....  10.000
 MO-DIIS                CNVKDIIS        .... off
 Trust-Rad. Augm. Hess. CNVTRAH         .... auto
   Auto Start mean grad. ratio tolernc. ....  1.125000
   Auto Start start iteration           ....     1
   Auto Start num. interpolation iter.  ....    10
   Max. Number of Micro iterations      ....    24
   Max. Number of Macro iterations      .... Maxiter - #DIIS iter
   Number of Davidson start vectors     ....     2
   Converg. threshold    (grad. norm)   ....   1.000e-04
   Grad. Scal. Fac. for Micro threshold ....   0.100
   Minimum threshold for Micro iter.    ....   1.000e-02
   NR start threshold (gradient norm)   ....   1.000e-04
   Initial trust radius                 ....   0.400
   Minimum AH scaling param. (alpha)    ....   1.000
   Maximum AH scaling param. (alpha)    .... 1000.000
   Quad. conv. algorithm                .... NR
   White noise on init. David. guess    .... on
   Maximum white noise                  ....   0.010
   Pseudo random numbers                .... off
   Inactive MOs                         .... canonical
   Orbital update algorithm             .... Taylor
   Preconditioner                       .... Diag
   Full preconditioner red. dimension   ....   250
 SOSCF                  CNVSOSCF        .... on
   Start iteration      SOSCFMaxIt      ....   150
   Startup grad/error   SOSCFStart      ....  0.003300
   Hessian update       SOSCFHessUp     .... L-BFGS
 Level Shifting         CNVShift        .... on
   Level shift para.    LevelShift      ....    0.2500
   Turn off err/grad.   ShiftErr        ....    0.0010
 Zerner damping         CNVZerner       .... off
 Static damping         CNVDamp         .... on
   Fraction old density DampFac         ....    0.7000
   Max. Damping (<1)    DampMax         ....    0.9800
   Min. Damping (>=0)   DampMin         ....    0.0000
   Turn off err/grad.   DampErr         ....    0.1000

SCF Procedure:
 Maximum # iterations   MaxIter         ....   125
 SCF integral mode      SCFMode         .... Direct
   Integral package                     .... SHARK and LIBINT hybrid scheme
 Reset frequency        DirectResetFreq ....    20
 Integral Threshold     Thresh          ....  3.000e-11 Eh
 Primitive CutOff       TCut            ....  1.000e-12 Eh

Convergence Tolerance:
 Convergence Check Mode ConvCheckMode   .... Total+1el-Energy
 Convergence forced     ConvForced      .... 0
 Energy Change          TolE            ....  1.000e-07 Eh
 1-El. energy change                    ....  1.000e-04 Eh
 Orbital Gradient       TolG            ....  1.000e-04
 Orbital Rotation angle TolX            ....  1.000e-04
 DIIS Error             TolErr          ....  1.000e-07

---------------------
INITIAL GUESS: MOREAD
---------------------
Guess MOs are being read from file: sp_gas.ges
Input Geometry matches current geometry (good)
Atom 0: N(Shells)= 11 and 9 - projection required
Input basis set needs projection
NBasis(read)= 121
NBasis(calc)= 172
Basis set overlap was calculated
Using GuessMode=FMatrix for the initial guess
C*T matrix was formed
Effective Fockian was calculated
Effective Fockian was diagonalized
Initial density was built
                      ------------------
                      INITIAL GUESS DONE (   0.1 sec)
                      ------------------
             **** ENERGY FILE WAS UPDATED (sp_gas.en.tmp) ****
Finished Guess after   0.2 sec
Maximum memory used throughout the entire GUESS-calculation: 13.4 MB

-------------------------------------------------------------------------------------------
                                      ORCA LEAN-SCF
                              memory conserving SCF solver
-------------------------------------------------------------------------------------------

----------------------------------------D-I-I-S--------------------------------------------
Iteration    Energy (Eh)           Delta-E    RMSDP     MaxDP     DIISErr   Damp  Time(sec)
-------------------------------------------------------------------------------------------
               ***  Starting incremental Fock matrix formation  ***
    1    -194.4791107632292437     0.00e+00  9.13e-04  1.70e-02  5.62e-02  0.700   3.9
    2    -194.4823204679491369    -3.21e-03  8.03e-04  1.54e-02  4.11e-02  0.700   2.1
                               ***Turning on AO-DIIS***
    3    -194.4846816765042377    -2.36e-03  6.66e-04  1.20e-02  2.95e-02  0.700   2.2
    4    -194.4863854582325757    -1.70e-03  1.69e-03  2.94e-02  2.08e-02  0.000   1.9
                              *** Initializing SOSCF ***
---------------------------------------S-O-S-C-F--------------------------------------
Iteration    Energy (Eh)           Delta-E    RMSDP     MaxDP     MaxGrad    Time(sec)
--------------------------------------------------------------------------------------
    5    -194.4907069606363734    -4.32e-03  1.06e-04  1.96e-03  1.17e-03     2.3
               *** Restarting incremental Fock matrix formation ***
    6    -194.4907256848216548    -1.87e-05  5.31e-05  1.12e-03  2.65e-04     3.7
    7    -194.4907269548947966    -1.27e-06  2.17e-05  4.34e-04  2.71e-04     3.1
    8    -194.4907280965500149    -1.14e-06  2.38e-06  3.87e-05  1.48e-05     3.2
                  *** Gradient check signals convergence ***

               *****************************************************
               *                     SUCCESS                       *
               *           SCF CONVERGED AFTER   8 CYCLES          *
               *****************************************************


------------------
NL GRID GENERATION
------------------

General Integration Accuracy     IntAcc      ... 4.004
Radial Grid Type                 RadialGrid  ... OptM3 with GC (2021)
Angular Grid (max. ang.)         AngularGrid ... 2 (Lebedev-110)
Angular grid pruning method      GridPruning ... 4 (adaptive)
Weight generation scheme         WeightScheme... mBecke (2022)
Basis function cutoff            BFCut       ... 1.0000e-10
Integration weight cutoff        WCut        ... 1.0000e-14
Partially contracted basis set               ... off
Rotationally invariant grid construction     ... off
Angular grids for H and He will be reduced by one unit

Total number of grid points                  ...    14930
Total number of batches                      ...      239
Average number of points per batch           ...       62
Average number of grid points per atom       ...     1244
Final grid set up in    0.1 sec

-------------------------------------------------------------------------------
                    post-SCF DFT-NL dispersion correction                      
-------------------------------------------------------------------------------

SCF Energy:     -194.490728097 
NL    Energy:      0.133593326 
SC+NL Energy:   -194.357134770 
NL done in  :              0.6 sec
-------------------------------------------------------------------------------
Recomputing exchange energy using gridx3       ... done (    6.286 sec)
Old exchange energy                            :     -8.873636989 Eh
New exchange energy                            :     -8.873629926 Eh
Exchange energy change after final integration :      0.000007062 Eh
Total energy after final integration           :   -194.357127708 Eh
             **** ENERGY FILE WAS UPDATED (sp_gas.en.tmp) ****

----------------
TOTAL SCF ENERGY
----------------

Total Energy       :       -194.35712770795246 Eh           -5288.72632 eV

Components:
Nuclear Repulsion  :        132.88332997161604 Eh            3615.93924 eV
Electronic Energy  :       -327.37405806816605 Eh           -8908.30101 eV
One Electron Energy:       -525.64984413891671 Eh          -14303.65944 eV
Two Electron Energy:        198.27578607075068 Eh            5395.35843 eV

Virial components:
Potential Energy   :       -387.84648551608609 Eh          -10553.83942 eV
Kinetic Energy     :        193.48935780813363 Eh            5265.11310 eV
Virial Ratio       :          2.00448484562484

DFT components:
N(Alpha)           :       17.000004144390 electrons
N(Beta)            :       17.000004144390 electrons
N(Total)           :       34.000008288780 electrons
E(X)               :      -17.705895736381 Eh       
E(C)               :       -1.368480776101 Eh       
NL Energy, E(C,NL) :        0.133593326161 Eh       
E(XC)              :      -18.940783186320 Eh       

---------------
SCF CONVERGENCE
---------------

  Last Energy change         ...    1.1417e-06  Tolerance :   1.0000e-07
  Last MAX-Density change    ...    3.8658e-05  Tolerance :   1.0000e-05
  Last RMS-Density change    ...    2.3789e-06  Tolerance :   1.0000e-06
  Last DIIS Error            ...    1.1693e-03  Tolerance :   1.0000e-07
  Last Orbital Gradient      ...    1.4767e-05  Tolerance :   1.0000e-04
  Last Orbital Rotation      ...    1.6071e-05  Tolerance :   1.0000e-04


----------------
ORBITAL ENERGIES
----------------

  NO   OCC          E(Eh)            E(eV) 
   0   2.0000     -21.670400      -589.6816 
   1   2.0000     -12.090749      -329.0060 
   2   2.0000     -12.085087      -328.8519 
   3   2.0000     -12.035260      -327.4961 
   4   2.0000      -1.673167       -45.5292 
   5   2.0000      -1.280504       -34.8443 
   6   2.0000      -1.188652       -32.3449 
   7   2.0000      -1.105120       -30.0718 
   8   2.0000      -0.984747       -26.7963 
   9   2.0000      -0.963757       -26.2252 
  10   2.0000      -0.948149       -25.8005 
  11   2.0000      -0.857221       -23.3262 
  12   2.0000      -0.828665       -22.5491 
  13   2.0000      -0.816621       -22.2214 
  14   2.0000      -0.801219       -21.8023 
  15   2.0000      -0.796716       -21.6798 
  16   2.0000      -0.756878       -20.5957 
  17   0.0000      -0.155872        -4.2415 
  18   0.0000      -0.096782        -2.6336 
  19   0.0000      -0.014880        -0.4049 
  20   0.0000       0.001376         0.0374 
  21   0.0000       0.017327         0.4715 
  22   0.0000       0.034644         0.9427 
  23   0.0000       0.047854         1.3022 
  24   0.0000       0.055171         1.5013 
  25   0.0000       0.061100         1.6626 
  26   0.0000       0.075325         2.0497 
  27   0.0000       0.081995         2.2312 
*Only the first 10 virtual orbitals were printed.

                    ********************************
                    * MULLIKEN POPULATION ANALYSIS *
                    ********************************

-----------------------
MULLIKEN ATOMIC CHARGES
-----------------------
   0 C :   -0.305426
   1 C :   -0.016840
   2 O :   -0.297215
   3 C :   -0.179039
   4 H :    0.111620
   5 H :    0.111707
   6 H :    0.103036
   7 H :    0.077124
   8 H :    0.077106
   9 H :    0.097563
  10 H :    0.122691
  11 H :    0.097673
Sum of atomic charges:    0.0000000

--------------------------------
MULLIKEN REDUCED ORBITAL CHARGES
--------------------------------
  0 C s       :     3.205880  s :     3.205880
      pz      :     1.021230  p :     3.040315
      px      :     0.956272
      py      :     1.062813
      dz2     :     0.007639  d :     0.055821
      dxz     :     0.013341
      dyz     :     0.012325
      dx2y2   :     0.012900
      dxy     :     0.009616
      f0      :     0.000065  f :     0.003410
      f+1     :     0.000628
      f-1     :     0.000266
      f+2     :     0.001179
      f-2     :     0.000334
      f+3     :     0.000319
      f-3     :     0.000619

  1 C s       :     3.206072  s :     3.206072
      pz      :     0.881843  p :     2.660144
      px      :     0.787963
      py      :     0.990338
      dz2     :     0.029234  d :     0.140689
      dxz     :     0.026998
      dyz     :     0.029223
      dx2y2   :     0.029386
      dxy     :     0.025849
      f0      :     0.000603  f :     0.009934
      f+1     :     0.002548
      f-1     :     0.000527
      f+2     :     0.002033
      f-2     :     0.001860
      f+3     :     0.000944
      f-3     :     0.001420

  2 O s       :     3.764416  s :     3.764416
      pz      :     1.530654  p :     4.493277
      px      :     1.161405
      py      :     1.801219
      dz2     :     0.005606  d :     0.037651
      dxz     :     0.015634
      dyz     :     0.004071
      dx2y2   :     0.006356
      dxy     :     0.005985
      f0      :     0.000124  f :     0.001870
      f+1     :     0.000319
      f-1     :     0.000057
      f+2     :     0.000436
      f-2     :     0.000275
      f+3     :     0.000396
      f-3     :     0.000262

  3 C s       :     3.227378  s :     3.227378
      pz      :     1.006103  p :     2.842050
      px      :     0.790683
      py      :     1.045263
      dz2     :     0.014808  d :     0.102030
      dxz     :     0.025925
      dyz     :     0.017231
      dx2y2   :     0.017112
      dxy     :     0.026954
      f0      :     0.000258  f :     0.007581
      f+1     :     0.001579
      f-1     :     0.000366
      f+2     :     0.001748
      f-2     :     0.000902
      f+3     :     0.000810
      f-3     :     0.001917

  4 H s       :     0.867457  s :     0.867457
      pz      :     0.004931  p :     0.020923
      px      :     0.004131
      py      :     0.011860

  5 H s       :     0.867376  s :     0.867376
      pz      :     0.009974  p :     0.020918
      px      :     0.004106
      py      :     0.006838

  6 H s       :     0.876104  s :     0.876104
      pz      :     0.006923  p :     0.020860
      px      :     0.009418
      py      :     0.004519

  7 H s       :     0.903006  s :     0.903006
      pz      :     0.004391  p :     0.019870
      px      :     0.003218
      py      :     0.012261

  8 H s       :     0.903022  s :     0.903022
      pz      :     0.010028  p :     0.019872
      px      :     0.003207
      py      :     0.006637

  9 H s       :     0.882847  s :     0.882847
      pz      :     0.009579  p :     0.019590
      px      :     0.003038
      py      :     0.006974

 10 H s       :     0.857175  s :     0.857175
      pz      :     0.007682  p :     0.020135
      px      :     0.007813
      py      :     0.004639

 11 H s       :     0.882737  s :     0.882737
      pz      :     0.004445  p :     0.019590
      px      :     0.003090
      py      :     0.012055


------------------------
MULLIKEN OVERLAP CHARGES
------------------------
B(  0-C ,  1-C ) :   0.6825 B(  0-C ,  2-O ) :  -0.1271 B(  0-C ,  4-H ) :   0.8167 
B(  0-C ,  5-H ) :   0.8168 B(  0-C ,  6-H ) :   0.7930 B(  0-C ,  7-H ) :  -0.0648 
B(  0-C ,  8-H ) :  -0.0645 B(  1-C ,  2-O ) :   0.6087 B(  1-C ,  3-C ) :  -0.1167 
B(  1-C ,  4-H ) :  -0.0664 B(  1-C ,  5-H ) :  -0.0663 B(  1-C ,  6-H ) :  -0.0618 
B(  1-C ,  7-H ) :   0.8190 B(  1-C ,  8-H ) :   0.8191 B(  2-O ,  3-C ) :   0.5656 
B(  2-O ,  7-H ) :  -0.1011 B(  2-O ,  8-H ) :  -0.1011 B(  2-O ,  9-H ) :  -0.0925 
B(  2-O , 10-H ) :  -0.0672 B(  2-O , 11-H ) :  -0.0924 B(  3-C ,  9-H ) :   0.8362 
B(  3-C , 10-H ) :   0.8001 B(  3-C , 11-H ) :   0.8362 B(  4-H ,  5-H ) :  -0.0520 
B(  7-H ,  8-H ) :  -0.1401 B(  9-H , 10-H ) :  -0.0505 B(  9-H , 11-H ) :  -0.1179 
B( 10-H , 11-H ) :  -0.0506 


                     *******************************
                     * LOEWDIN POPULATION ANALYSIS *
                     *******************************

----------------------
LOEWDIN ATOMIC CHARGES
----------------------
   0 C :   -0.306201
   1 C :   -0.342077
   2 O :    0.107590
   3 C :   -0.345504
   4 H :    0.119936
   5 H :    0.119962
   6 H :    0.120234
   7 H :    0.112424
   8 H :    0.112404
   9 H :    0.096634
  10 H :    0.107969
  11 H :    0.096627

-------------------------------
LOEWDIN REDUCED ORBITAL CHARGES
-------------------------------
  0 C s       :     2.832013  s :     2.832013
      pz      :     1.066754  p :     3.192811
      px      :     1.051891
      py      :     1.074167
      dz2     :     0.033619  d :     0.256381
      dxz     :     0.069201
      dyz     :     0.050347
      dx2y2   :     0.064711
      dxy     :     0.038502
      f0      :     0.002450  f :     0.024996
      f+1     :     0.004593
      f-1     :     0.002547
      f+2     :     0.003824
      f-2     :     0.003348
      f+3     :     0.002814
      f-3     :     0.005420

  1 C s       :     2.807784  s :     2.807784
      pz      :     0.964020  p :     2.926307
      px      :     0.924937
      py      :     1.037350
      dz2     :     0.099367  d :     0.539012
      dxz     :     0.128818
      dyz     :     0.107823
      dx2y2   :     0.120825
      dxy     :     0.082178
      f0      :     0.006035  f :     0.068973
      f+1     :     0.018435
      f-1     :     0.004238
      f+2     :     0.009662
      f-2     :     0.013264
      f+3     :     0.006657
      f-3     :     0.010682

  2 O s       :     3.298118  s :     3.298118
      pz      :     1.545084  p :     4.485787
      px      :     1.242108
      py      :     1.698596
      dz2     :     0.015419  d :     0.102242
      dxz     :     0.037239
      dyz     :     0.008539
      dx2y2   :     0.022692
      dxy     :     0.018352
      f0      :     0.000545  f :     0.006262
      f+1     :     0.001779
      f-1     :     0.000118
      f+2     :     0.001116
      f-2     :     0.001110
      f+3     :     0.000864
      f-3     :     0.000730

  3 C s       :     2.863354  s :     2.863354
      pz      :     1.056394  p :     3.029170
      px      :     0.880480
      py      :     1.092296
      dz2     :     0.049430  d :     0.398797
      dxz     :     0.117459
      dyz     :     0.063948
      dx2y2   :     0.089638
      dxy     :     0.078322
      f0      :     0.004737  f :     0.054183
      f+1     :     0.011132
      f-1     :     0.002790
      f+2     :     0.009044
      f-2     :     0.006975
      f+3     :     0.006779
      f-3     :     0.012726

  4 H s       :     0.819724  s :     0.819724
      pz      :     0.014567  p :     0.060340
      px      :     0.012477
      py      :     0.033296

  5 H s       :     0.819701  s :     0.819701
      pz      :     0.027360  p :     0.060336
      px      :     0.012443
      py      :     0.020534

  6 H s       :     0.819699  s :     0.819699
      pz      :     0.021188  p :     0.060067
      px      :     0.024536
      py      :     0.014343

  7 H s       :     0.830746  s :     0.830746
      pz      :     0.012753  p :     0.056830
      px      :     0.009963
      py      :     0.034113

  8 H s       :     0.830762  s :     0.830762
      pz      :     0.026661  p :     0.056834
      px      :     0.009947
      py      :     0.020226

  9 H s       :     0.843968  s :     0.843968
      pz      :     0.028628  p :     0.059397
      px      :     0.009499
      py      :     0.021271

 10 H s       :     0.832678  s :     0.832678
      pz      :     0.023333  p :     0.059353
      px      :     0.021671
      py      :     0.014349

 11 H s       :     0.843976  s :     0.843976
      pz      :     0.014125  p :     0.059397
      px      :     0.009629
      py      :     0.035643


---------------------------------
LOEWDIN BOND ORDERS (THRESH 0.050000)
---------------------------------
B(  0-C ,  1-C ) :   1.3251 B(  0-C ,  2-O ) :   0.1190 B(  0-C ,  4-H ) :   0.9062 
B(  0-C ,  5-H ) :   0.9062 B(  0-C ,  6-H ) :   0.9019 B(  0-C ,  7-H ) :   0.0772 
B(  0-C ,  8-H ) :   0.0771 B(  1-C ,  2-O ) :   1.4370 B(  1-C ,  3-C ) :   0.1994 
B(  1-C ,  4-H ) :   0.0822 B(  1-C ,  5-H ) :   0.0822 B(  1-C ,  6-H ) :   0.0878 
B(  1-C ,  7-H ) :   0.8787 B(  1-C ,  8-H ) :   0.8787 B(  2-O ,  3-C ) :   1.5039 
B(  2-O , 10-H ) :   0.0502 B(  3-C ,  9-H ) :   0.9392 B(  3-C , 10-H ) :   0.9411 
B(  3-C , 11-H ) :   0.9393 

------------------------------------------
LOEWDIN REDUCED ORBITAL POPULATIONS PER MO
-------------------------------------------
THRESHOLD FOR PRINTING IS 0.1%%
                      0         1         2         3         4         5   
                 -21.67040 -12.09075 -12.08509 -12.03526  -1.67317  -1.28050
                   2.00000   2.00000   2.00000   2.00000   2.00000   2.00000
                  --------  --------  --------  --------  --------  --------
 0 C  s               0.0       0.0       0.0      99.5       0.3      17.2
 0 C  pz              0.0       0.0       0.0       0.0       0.0       0.8
 0 C  px              0.0       0.0       0.0       0.0       1.1       2.8
 0 C  dxz             0.0       0.1       0.0       0.0       0.0       0.4
 0 C  dx2y2           0.0       0.1       0.0       0.0       0.2       0.4
 1 C  s               0.0      99.4       0.0       0.0       5.5      20.7
 1 C  pz              0.0       0.0       0.0       0.0       3.4       1.0
 1 C  px              0.0       0.0       0.0       0.0       5.5       3.6
 1 C  py              0.0       0.0       0.0       0.0       0.4       0.1
 1 C  dxz             0.0       0.0       0.0       0.1       2.3       0.4
 1 C  dyz             0.0       0.0       0.0       0.0       0.2       0.0
 1 C  dx2y2           0.0       0.0       0.0       0.1       1.0       0.0
 1 C  dxy             0.0       0.0       0.0       0.0       0.3       0.0
 1 C  f+2             0.0       0.0       0.0       0.0       0.2       0.1
 2 O  s              99.8       0.0       0.0       0.0      54.9       0.4
 2 O  pz              0.0       0.0       0.0       0.0       1.1       0.7
 2 O  px              0.0       0.0       0.1       0.0       0.0      18.2
 2 O  py              0.0       0.0       0.0       0.0       0.1       0.1
 2 O  dxz             0.0       0.0       0.0       0.0       0.0       0.7
 3 C  s               0.0       0.0      99.6       0.0       5.8       7.0
 3 C  pz              0.0       0.0       0.0       0.0       1.6       0.5
 3 C  px              0.0       0.0       0.0       0.0       8.0       0.7
 3 C  py              0.0       0.0       0.0       0.0       0.2       0.1
 3 C  dz2             0.0       0.0       0.0       0.0       0.2       0.0
 3 C  dxz             0.0       0.0       0.0       0.0       1.4       0.2
 3 C  dx2y2           0.0       0.0       0.0       0.0       1.8       0.0
 3 C  dxy             0.0       0.0       0.0       0.0       0.1       0.0
 3 C  f0              0.0       0.0       0.0       0.0       0.1       0.0
 3 C  f+2             0.0       0.0       0.0       0.0       0.2       0.1
 3 C  f+3             0.0       0.0       0.0       0.0       0.2       0.0
 4 H  s               0.0       0.0       0.0       0.0       0.1       3.2
 4 H  py              0.0       0.0       0.0       0.0       0.0       0.3
 5 H  s               0.0       0.0       0.0       0.0       0.1       3.2
 5 H  pz              0.0       0.0       0.0       0.0       0.0       0.2
 6 H  s               0.0       0.0       0.0       0.0       0.0       3.3
 6 H  px              0.0       0.0       0.0       0.0       0.0       0.3
 7 H  s               0.0       0.0       0.0       0.0       0.5       3.6
 7 H  py              0.0       0.0       0.0       0.0       0.0       0.4
 8 H  s               0.0       0.0       0.0       0.0       0.5       3.6
 8 H  pz              0.0       0.0       0.0       0.0       0.0       0.3
 8 H  py              0.0       0.0       0.0       0.0       0.0       0.1
 9 H  s               0.0       0.0       0.0       0.0       0.5       1.1
 9 H  pz              0.0       0.0       0.0       0.0       0.0       0.1
10 H  s               0.0       0.0       0.0       0.0       0.6       1.5
10 H  px              0.0       0.0       0.0       0.0       0.1       0.2
11 H  s               0.0       0.0       0.0       0.0       0.5       1.1
11 H  py              0.0       0.0       0.0       0.0       0.0       0.1

                      6         7         8         9        10        11   
                  -1.18865  -1.10512  -0.98475  -0.96376  -0.94815  -0.85722
                   2.00000   2.00000   2.00000   2.00000   2.00000   2.00000
                  --------  --------  --------  --------  --------  --------
 0 C  s              12.9      10.1       0.1       0.0       0.9       0.0
 0 C  pz              0.1       1.5       3.0       0.2       3.6       2.7
 0 C  px              0.1       3.3       0.0       0.0       7.0       0.0
 0 C  py              0.0       0.2       0.3       1.7       0.4      23.7
 0 C  dz2             0.1       0.0       0.2       0.0       0.0       0.0
 0 C  dxz             0.0       0.5       0.3       0.0       0.3       0.0
 0 C  dyz             0.0       0.0       0.1       0.0       0.1       0.1
 0 C  dx2y2           0.1       0.2       0.1       0.0       0.1       0.0
 0 C  dxy             0.0       0.1       0.0       0.3       0.0       0.1
 1 C  s               0.9       9.2       1.8       0.0       1.7       0.0
 1 C  pz              0.5       4.7      13.8       1.6       0.8       1.9
 1 C  px              6.4       5.0       1.9       0.0       8.6       0.0
 1 C  py              0.1       0.5       1.6      13.8       0.1      16.6
 1 C  dz2             0.4       0.0       0.3       0.1       0.7       0.1
 1 C  dxz             1.6       0.0       0.2       0.1       0.1       0.1
 1 C  dyz             0.0       0.1       0.2       0.2       0.0       0.3
 1 C  dx2y2           0.4       0.4       0.0       0.0       0.9       0.1
 1 C  dxy             0.2       0.0       0.0       1.1       0.0       1.1
 1 C  f+1             0.1       0.0       0.1       0.0       0.1       0.0
 1 C  f-2             0.1       0.0       0.0       0.1       0.0       0.1
 2 O  s               2.7       3.8       0.1       0.0       2.1       0.0
 2 O  pz              1.6      14.5       0.4       5.8      37.6       0.5
 2 O  px             13.5       2.2      25.1       0.0       0.1       0.0
 2 O  py              0.2       1.7       0.0      49.7       4.4       4.0
 2 O  dxz             0.4       0.1       0.1       0.0       0.0       0.0
 2 O  dx2y2           0.2       0.0       0.0       0.0       0.0       0.0
 2 O  dxy             0.0       0.0       0.0       0.0       0.0       0.4
 3 C  s              22.7       3.5       3.4       0.0       0.7       0.0
 3 C  pz              0.1       3.1       5.4       1.3       3.4       1.3
 3 C  px              0.6       0.9      14.7       0.0       9.2       0.0
 3 C  py              0.0       0.3       0.6      11.0       0.4      11.3
 3 C  dz2             0.0       0.1       0.0       0.0       0.6       0.0
 3 C  dxz             0.1       1.0       0.4       0.2       0.1       0.0
 3 C  dyz             0.0       0.0       0.0       0.1       0.1       0.1
 3 C  dx2y2           0.2       0.0       0.2       0.0       0.2       0.0
 3 C  dxy             0.0       0.1       0.0       1.5       0.0       0.0
 3 C  f+1             0.0       0.1       0.0       0.0       0.1       0.0
 3 C  f-2             0.0       0.0       0.0       0.1       0.0       0.0
 3 C  f-3             0.0       0.0       0.0       0.2       0.0       0.0
 4 H  s               3.2       4.5       0.5       0.4       1.8       7.2
 4 H  pz              0.0       0.0       0.0       0.0       0.0       0.2
 4 H  py              0.3       0.4       0.0       0.0       0.1       0.1
 5 H  s               3.2       4.5       0.5       0.3       1.8       7.2
 5 H  pz              0.2       0.2       0.0       0.0       0.0       0.3
 5 H  py              0.1       0.2       0.0       0.0       0.1       0.0
 6 H  s               3.7       4.4       0.1       0.0       0.9       0.0
 6 H  pz              0.1       0.2       0.0       0.0       0.2       0.0
 6 H  px              0.3       0.1       0.0       0.0       0.0       0.0
 6 H  py              0.0       0.0       0.0       0.0       0.0       0.3
 7 H  s               0.4       4.9       4.4       2.5       1.4       5.9
 7 H  pz              0.0       0.0       0.0       0.1       0.0       0.1
 7 H  px              0.1       0.0       0.0       0.0       0.2       0.0
 7 H  py              0.0       0.5       0.3       0.1       0.0       0.1
 8 H  s               0.4       4.9       4.4       2.5       1.4       5.9
 8 H  pz              0.0       0.3       0.0       0.2       0.0       0.2
 8 H  px              0.1       0.0       0.0       0.0       0.2       0.0
 8 H  py              0.0       0.3       0.3       0.0       0.0       0.0
 9 H  s               6.2       2.4       5.0       1.8       0.1       3.4
 9 H  pz              0.4       0.1       0.1       0.2       0.0       0.2
 9 H  px              0.0       0.0       0.1       0.0       0.1       0.0
 9 H  py              0.2       0.1       0.2       0.0       0.0       0.0
10 H  s               6.7       0.9       3.1       0.0       5.8       0.0
10 H  pz              0.3       0.1       0.3       0.0       0.2       0.0
10 H  px              0.4       0.0       0.0       0.0       0.1       0.0
10 H  py              0.0       0.0       0.0       0.1       0.0       0.1
11 H  s               6.2       2.4       5.0       1.8       0.1       3.5
11 H  pz              0.1       0.0       0.0       0.1       0.0       0.1
11 H  px              0.0       0.0       0.1       0.0       0.1       0.0
11 H  py              0.6       0.2       0.3       0.1       0.0       0.1

                     12        13        14        15        16        17   
                  -0.82867  -0.81662  -0.80122  -0.79672  -0.75688  -0.15587
                   2.00000   2.00000   2.00000   2.00000   2.00000   0.00000
                  --------  --------  --------  --------  --------  --------
 0 C  s               0.3       0.1       0.2       0.0       0.0       0.1
 0 C  pz              4.3       7.6      26.6       1.6       1.1       0.1
 0 C  px             32.7       4.6       0.8       0.0       0.0       0.2
 0 C  py              0.6       0.9       3.1      13.0       9.7       0.0
 0 C  dz2             0.0       0.0       0.2       0.3       0.7       1.0
 0 C  dxz             1.1       0.0       0.5       0.0       0.1       0.7
 0 C  dyz             0.1       0.0       0.0       0.6       1.5       0.0
 0 C  dx2y2           0.1       0.2       1.4       0.1       0.2       2.0
 0 C  dxy             0.1       0.0       0.1       0.3       0.7       0.1
 0 C  f+1             0.0       0.0       0.1       0.0       0.0       0.2
 0 C  f-3             0.0       0.0       0.0       0.1       0.1       0.0
 1 C  s               0.4       0.1       0.5       0.0       0.0       3.0
 1 C  pz              9.9       2.2       6.4       0.2       1.7       8.0
 1 C  px              4.8       8.5       1.9       0.0       0.0      10.7
 1 C  py              1.1       0.2       0.7       1.7      14.8       1.0
 1 C  dz2             0.0       0.2       1.2       0.0       1.8       0.0
 1 C  dxz             1.0       0.0       0.4       0.1       0.0       3.5
 1 C  dyz             0.0       0.0       0.1       0.0       4.2       0.2
 1 C  dx2y2           0.1       0.7       1.7       0.0       0.6       1.3
 1 C  dxy             0.1       0.0       0.1       1.2       0.0       0.4
 1 C  f0              0.0       0.0       0.1       0.0       0.0       0.3
 1 C  f+1             0.3       0.0       0.1       0.1       0.0       0.1
 1 C  f+2             0.0       0.0       0.0       0.0       0.1       0.7
 1 C  f-2             0.1       0.0       0.0       0.1       0.0       0.1
 1 C  f+3             0.0       0.0       0.0       0.0       0.0       0.1
 1 C  f-3             0.0       0.0       0.0       0.0       0.4       0.1
 2 O  s               0.8       0.1       0.2       0.0       0.0      12.0
 2 O  pz              4.5       1.3       6.7       1.1       1.5      13.1
 2 O  px              1.9       0.5       0.3       0.0       0.0       0.1
 2 O  py              0.5       0.1       0.8       9.9      13.4       1.5
 2 O  dz2             0.3       0.0       0.2       0.0       0.1       0.1
 2 O  dxz             0.0       0.4       0.0       0.0       0.0       0.1
 2 O  dyz             0.0       0.0       0.0       0.0       0.2       0.2
 2 O  dx2y2           0.5       0.0       0.2       0.0       0.0       2.7
 2 O  dxy             0.0       0.0       0.0       0.3       0.0       0.0
 2 O  f+2             0.0       0.0       0.0       0.0       0.0       0.2
 3 C  s               0.3       0.0       0.1       0.0       0.0       2.9
 3 C  pz              4.0      23.0       6.2       2.7       0.4       3.2
 3 C  px              0.8       7.6       1.4       0.0       0.0      16.2
 3 C  py              0.4       2.7       0.7      23.6       3.3       0.3
 3 C  dz2             0.0       0.1       0.1       0.8       0.5       0.9
 3 C  dxz             0.1       1.8       0.5       0.1       0.1       2.0
 3 C  dyz             0.0       0.1       0.0       1.7       1.0       0.0
 3 C  dx2y2           0.1       1.2       0.4       0.2       0.1       3.2
 3 C  dxy             0.0       0.2       0.1       1.2       0.6       0.2
 3 C  f0              0.0       0.0       0.0       0.0       0.0       0.3
 3 C  f+1             0.0       0.1       0.1       0.0       0.0       0.1
 3 C  f+2             0.0       0.0       0.0       0.0       0.0       0.5
 3 C  f+3             0.0       0.0       0.0       0.0       0.0       0.4
 3 C  f-3             0.0       0.0       0.0       0.3       0.1       0.1
 4 H  s               0.3       2.1       6.0       5.7       6.0       0.2
 4 H  pz              0.0       0.0       0.2       0.1       0.1       0.0
 4 H  px              0.5       0.1       0.0       0.0       0.0       0.0
 4 H  py              0.0       0.1       0.2       0.1       0.0       0.0
 5 H  s               0.3       2.1       5.9       5.8       6.0       0.2
 5 H  pz              0.0       0.0       0.0       0.2       0.1       0.0
 5 H  px              0.5       0.1       0.0       0.0       0.0       0.0
 5 H  py              0.0       0.1       0.3       0.0       0.0       0.0
 6 H  s              19.1       0.0       9.4       0.0       0.0       1.2
 6 H  pz              0.3       0.1       0.0       0.0       0.0       0.0
 6 H  px              0.1       0.1       0.4       0.0       0.0       0.2
 6 H  py              0.0       0.0       0.0       0.2       0.1       0.0
 7 H  s               2.0       1.0       3.1       0.6      11.2       0.0
 7 H  pz              0.1       0.0       0.1       0.0       0.1       0.2
 7 H  px              0.1       0.1       0.0       0.0       0.0       0.5
 8 H  s               2.0       1.0       3.1       0.6      11.2       0.0
 8 H  pz              0.0       0.0       0.0       0.0       0.1       0.2
 8 H  px              0.1       0.1       0.0       0.0       0.0       0.5
 8 H  py              0.1       0.1       0.1       0.0       0.0       0.1
 9 H  s               1.1       4.1       1.4      12.0       2.9       0.0
 9 H  pz              0.0       0.0       0.0       0.3       0.0       0.1
 9 H  px              0.0       0.1       0.0       0.0       0.0       0.6
 9 H  py              0.0       0.3       0.1       0.0       0.0       0.0
10 H  s               0.5      18.4       4.0       0.0       0.0       0.1
10 H  pz              0.0       0.1       0.0       0.0       0.0       0.2
10 H  px              0.1       0.2       0.1       0.0       0.0       0.7
10 H  py              0.0       0.0       0.0       0.3       0.0       0.0
11 H  s               1.1       4.1       1.3      12.1       2.9       0.0
11 H  pz              0.0       0.1       0.1       0.2       0.0       0.1
11 H  px              0.0       0.1       0.0       0.0       0.0       0.6
11 H  py              0.0       0.1       0.0       0.1       0.0       0.0

                     18        19        20        21        22        23   
                  -0.09678  -0.01488   0.00138   0.01733   0.03464   0.04785
                   0.00000   0.00000   0.00000   0.00000   0.00000   0.00000
                  --------  --------  --------  --------  --------  --------
 0 C  s               0.3       0.2      16.6       0.0       1.9       4.6
 0 C  pz              0.0       1.1       1.0       0.5       0.7       5.4
 0 C  px              0.1       4.7       4.5       0.0      12.1       0.5
 0 C  py              0.0       0.1       0.1       3.9       0.1       0.6
 0 C  dz2             0.7       0.0       0.3       1.1       0.2       0.0
 0 C  dxz             0.0       4.2       1.3       0.2       7.8       0.8
 0 C  dyz             0.1       0.2       0.0       2.4       0.0       0.1
 0 C  dx2y2           0.7       1.3       1.2       0.3       1.1       0.9
 0 C  dxy             0.0       0.4       0.1       2.0       0.9       0.1
 0 C  f0              0.0       0.0       0.1       0.0       0.0       0.0
 0 C  f-1             0.0       0.0       0.0       0.0       0.0       0.1
 0 C  f+2             0.0       0.0       0.5       0.0       0.0       0.2
 0 C  f-3             0.0       0.0       0.1       0.3       0.0       0.0
 1 C  s               4.4      11.5       1.3       0.0       2.3       1.8
 1 C  pz              3.8       3.0       5.9       1.9       0.3       2.2
 1 C  px              8.7       1.0       6.7       0.0       5.2       0.3
 1 C  py              0.5       0.3       0.6      16.3       0.0       0.3
 1 C  dz2             0.6       0.1       0.0       1.7       0.1       0.5
 1 C  dxz             3.4       0.7       5.2       0.1       1.1       0.1
 1 C  dyz             0.5       0.2       0.8       3.8       0.1       0.0
 1 C  dx2y2           0.2       0.3       7.0       0.5       0.1       0.7
 1 C  dxy             0.4       0.1       0.5       1.4       0.1       0.0
 1 C  f+1             0.3       0.0       0.0       0.0       0.1       0.0
 1 C  f-1             0.1       0.1       0.0       0.0       0.0       0.1
 1 C  f+2             0.2       0.3       0.2       0.0       0.0       0.3
 1 C  f-2             0.2       0.0       0.0       0.0       0.0       0.0
 1 C  f+3             0.0       0.0       0.2       0.0       0.0       0.0
 2 O  s               0.0       0.3       0.2       0.0       0.1       0.1
 2 O  pz              0.4       1.3       1.0       0.3       0.2       0.2
 2 O  px             31.5       0.1       0.9       0.0       0.6       0.1
 2 O  py              0.1       0.1       0.1       2.4       0.0       0.0
 2 O  dz2             0.3       0.0       0.6       0.1       0.2       0.5
 2 O  dxz             6.2       0.0       0.1       0.0       0.1       0.0
 2 O  dyz             0.0       0.1       0.1       0.2       0.1       0.1
 2 O  dx2y2           0.2       0.3       0.2       0.0       0.0       0.2
 2 O  dxy             0.7       0.0       0.0       0.0       0.0       0.0
 3 C  s               5.7       8.7       0.4       0.0       5.6       3.3
 3 C  pz              2.0       1.5       0.9       1.0       4.2       7.4
 3 C  px             12.7       0.6       0.9       0.0       2.0       6.4
 3 C  py              0.2       0.2       0.1       8.0       0.5       0.9
 3 C  dz2             0.0       0.0       0.2       0.7       0.0       0.5
 3 C  dxz             3.8       0.4       2.6       0.0       0.0       3.1
 3 C  dyz             0.1       0.0       0.4       1.6       0.5       0.7
 3 C  dx2y2           1.6       0.5       0.7       0.2       3.8       0.7
 3 C  dxy             0.4       0.0       0.3       0.2       0.0       0.4
 3 C  f0              0.1       0.0       0.0       0.0       0.0       0.0
 3 C  f-1             0.0       0.1       0.0       0.0       0.1       0.0
 3 C  f+2             0.4       0.2       0.0       0.0       0.1       0.1
 3 C  f-2             0.1       0.0       0.0       0.0       0.0       0.0
 3 C  f+3             0.2       0.0       0.0       0.0       0.0       0.0
 4 H  s               0.3       0.5       5.8       2.8       1.4       7.4
 4 H  pz              0.0       0.0       0.3       0.3       0.0       0.0
 4 H  px              0.0       0.3       0.2       0.1       0.7       0.1
 4 H  py              0.1       0.2       1.7       0.5       0.6       2.6
 5 H  s               0.3       0.5       5.8       2.9       1.4       7.4
 5 H  pz              0.0       0.0       1.5       0.7       0.3       1.2
 5 H  px              0.0       0.3       0.2       0.1       0.7       0.1
 5 H  py              0.0       0.2       0.5       0.1       0.3       1.4
 6 H  s               0.3       1.4       7.2       0.0      10.4       0.3
 6 H  pz              0.0       0.5       0.4       0.0       2.5       0.1
 6 H  px              0.0       0.0       2.4       0.0       0.8       0.0
 6 H  py              0.0       0.1       0.1       0.1       0.3       0.0
 7 H  s               0.4       9.8       0.9      10.2       0.3       2.4
 7 H  pz              0.3       0.1       0.2       1.0       0.1       0.1
 7 H  px              0.4       0.2       0.5       0.2       0.1       0.0
 7 H  py              0.2       3.2       0.3       2.2       0.1       1.0
 8 H  s               0.4       9.9       0.9      10.1       0.3       2.4
 8 H  pz              0.5       1.8       0.0       2.9       0.2       0.7
 8 H  px              0.4       0.2       0.5       0.1       0.1       0.0
 8 H  py              0.0       1.5       0.5       0.3       0.0       0.4
 9 H  s               0.5       7.5       0.2       5.0       8.9       0.0
 9 H  pz              0.3       1.4       0.0       1.5       1.3       0.2
 9 H  px              0.7       0.0       0.1       0.0       0.0       0.2
 9 H  py              0.0       1.1       0.1       0.2       2.1       0.1
10 H  s               0.3       3.4       3.8       0.0       1.4      20.3
10 H  pz              0.1       0.9       0.4       0.0       0.6       3.0
10 H  px              0.4       0.4       0.5       0.0       0.0       3.3
10 H  py              0.0       0.1       0.1       0.4       0.1       0.4
11 H  s               0.5       7.4       0.2       5.0       9.0       0.0
11 H  pz              0.2       0.1       0.1       0.5       0.0       0.2
11 H  px              0.7       0.0       0.1       0.0       0.0       0.2
11 H  py              0.1       2.5       0.0       1.1       3.4       0.0

                     24        25        26        27        28        29   
                   0.05517   0.06110   0.07532   0.08199   0.17137   0.19926
                   0.00000   0.00000   0.00000   0.00000   0.00000   0.00000
                  --------  --------  --------  --------  --------  --------
 0 C  s               0.0       0.1       0.0       0.5       0.1       0.0
 0 C  pz              0.9      16.9       1.3       0.3       7.4       1.9
 0 C  px              0.0       3.0       0.0       6.8       7.8       0.0
 0 C  py              8.0       2.0      11.0       0.0       0.8      16.7
 0 C  dz2             1.3       0.4       2.5       1.5       0.0       1.6
 0 C  dxz             0.0       0.3       0.3       2.1       1.6       0.0
 0 C  dyz             3.0       2.6       5.4       0.5       0.1       3.7
 0 C  dx2y2           0.4       9.6       0.9       0.2       0.6       0.5
 0 C  dxy             0.2       0.1       2.2       0.2       0.2       0.0
 0 C  f0              0.0       0.1       0.0       0.0       0.0       0.0
 0 C  f+3             0.0       0.0       0.0       0.0       0.1       0.0
 0 C  f-3             0.1       0.0       0.0       0.0       0.0       0.1
 1 C  s               0.0       0.5       0.0       1.5       1.0       0.0
 1 C  pz              0.1       2.1       1.0       9.5      19.1       0.8
 1 C  px              0.0       3.2       0.0       1.9       1.0       0.0
 1 C  py              1.1       0.2       9.1       1.0       2.2       6.7
 1 C  dz2             0.9       2.0       1.0       0.5       0.9       0.7
 1 C  dxz             0.1       0.1       0.2       0.0       0.8       0.1
 1 C  dyz             2.0       0.8       2.2       1.4       1.6       1.7
 1 C  dx2y2           0.3       0.0       0.4       3.4       2.8       0.2
 1 C  dxy             0.5       0.0       1.7       0.0       0.1       1.2
 1 C  f+1             0.0       0.2       0.0       0.0       0.1       0.0
 1 C  f-1             0.0       0.0       0.0       0.1       0.0       0.0
 1 C  f+3             0.0       0.1       0.0       0.0       0.0       0.0
 1 C  f-3             0.3       0.0       0.1       0.0       0.0       0.0
 2 O  s               0.0       0.1       0.0       0.1       1.0       0.0
 2 O  pz              0.2       0.2       0.2       0.4       1.5       0.7
 2 O  px              0.0       0.5       0.0       0.7       0.0       0.0
 2 O  py              2.1       0.0       1.8       0.0       0.2       6.0
 2 O  dxz             0.1       0.1       0.1       0.0       0.0       0.0
 2 O  dyz             0.0       0.0       0.0       0.0       0.2       0.1
 2 O  dx2y2           0.0       0.0       0.0       0.0       0.7       0.0
 2 O  dxy             0.9       0.0       1.1       0.0       0.0       0.0
 3 C  s               0.0       0.7       0.0       0.7       0.9       0.0
 3 C  pz              1.7       1.3       0.3       8.7      25.2       3.0
 3 C  px              0.0       4.2       0.0       0.2       0.1       0.0
 3 C  py             14.8       0.2       3.1       1.0       3.0      25.4
 3 C  dz2             2.9       0.2       0.8       0.2       1.6       1.3
 3 C  dxz             0.0       0.5       0.0       0.5       0.4       0.1
 3 C  dyz             6.4       0.2       1.8       1.0       2.0       2.8
 3 C  dx2y2           1.0       0.3       0.3       3.1       2.0       0.5
 3 C  dxy             0.1       0.1       0.2       0.1       0.1       1.1
 4 H  s               5.7       5.6      10.2       0.4       1.0       5.0
 4 H  pz              0.6       0.4       1.0       0.1       0.1       0.2
 4 H  px              0.1       0.1       0.0       0.3       0.4       0.0
 4 H  py              1.2       2.2       2.0       0.2       0.2       0.1
 5 H  s               5.8       5.6      10.3       0.4       1.0       5.0
 5 H  pz              1.6       0.2       2.7       0.3       0.3       0.0
 5 H  px              0.0       0.0       0.0       0.3       0.4       0.0
 5 H  py              0.2       2.4       0.3       0.0       0.0       0.2
 6 H  s               0.0      14.7       0.0       6.2       0.5       0.0
 6 H  pz              0.0       0.6       0.2       1.6       0.1       0.0
 6 H  px              0.0       3.8       0.0       0.4       0.0       0.0
 6 H  py              0.4       0.1       1.3       0.2       0.0       0.4
 7 H  s               1.3       0.2       6.5       6.8       0.8       2.9
 7 H  pz              0.1       0.1       0.7       0.1       0.5       0.2
 7 H  px              0.0       0.1       0.1       0.0       0.2       0.1
 7 H  py              0.2       0.1       1.5       3.2       0.0       0.0
 8 H  s               1.3       0.2       6.4       7.0       0.8       2.9
 8 H  pz              0.3       0.0       2.0       0.9       0.3       0.1
 8 H  px              0.0       0.1       0.1       0.0       0.2       0.1
 8 H  py              0.0       0.2       0.2       2.5       0.3       0.1
 9 H  s              11.2       0.0       1.8       4.8       0.7       1.9
 9 H  pz              3.4       0.1       0.6       0.4       0.3       0.0
 9 H  px              0.1       0.0       0.0       0.2       0.0       0.0
 9 H  py              0.4       0.0       0.1       1.7       0.2       0.3
10 H  s               0.0       7.2       0.0       4.6       3.0       0.0
10 H  pz              0.1       1.0       0.0       0.2       0.2       0.1
10 H  px              0.0       1.2       0.0       1.3       0.1       0.0
10 H  py              1.0       0.1       0.2       0.0       0.0       0.7
11 H  s              11.3       0.0       1.9       4.7       0.7       1.9
11 H  pz              1.1       0.1       0.2       0.1       0.5       0.1
11 H  px              0.2       0.0       0.0       0.2       0.0       0.0
11 H  py              2.6       0.0       0.5       1.9       0.0       0.2

                     30        31        32        33        34        35   
                   0.20789   0.20925   0.22452   0.23947   0.25935   0.26982
                   0.00000   0.00000   0.00000   0.00000   0.00000   0.00000
                  --------  --------  --------  --------  --------  --------
 0 C  s               0.5       0.0       0.8       0.3       0.0       1.9
 0 C  pz             24.8       3.5       6.5       0.4       1.0       6.4
 0 C  px              0.1       0.0      25.5      15.4       0.0      10.3
 0 C  py              3.2      28.1       0.8       0.0       7.6       0.8
 0 C  dz2             1.2       1.3       1.1       2.5       0.1       0.0
 0 C  dxz             0.0       0.1       3.7       0.1       1.0       0.2
 0 C  dyz             2.6       3.0       1.0       0.5       0.1       0.1
 0 C  dx2y2           5.7       0.4       0.7       0.9       0.0       0.6
 0 C  dxy             0.0       0.6       0.4       0.0       8.8       0.0
 0 C  f+2             0.0       0.0       0.0       0.0       0.0       0.3
 0 C  f+3             0.0       0.0       0.1       0.1       0.0       0.0
 1 C  s               0.8       0.0       0.9       2.1       0.0       0.8
 1 C  pz              0.1       0.0       0.9      23.5       3.8       3.5
 1 C  px              5.8       0.0       0.2      15.0       0.0       4.7
 1 C  py              0.0       0.4       0.1       2.8      32.2       0.5
 1 C  dz2             0.1       0.2       0.6       0.7       1.4       0.7
 1 C  dxz             0.3       0.1       0.2       2.3       0.0       0.4
 1 C  dyz             0.1       0.4       0.0       1.2       3.3       0.4
 1 C  dx2y2           0.3       0.1       1.5       1.6       0.5       0.1
 1 C  dxy             0.0       1.1       0.0       0.3       0.1       0.0
 1 C  f-1             0.0       0.0       0.0       0.1       0.0       0.0
 1 C  f+2             0.0       0.0       0.0       0.4       0.0       0.4
 1 C  f-2             0.0       0.1       0.0       0.0       0.0       0.0
 1 C  f+3             0.0       0.0       0.0       0.1       0.0       0.2
 2 O  s               0.8       0.0       1.0       0.3       0.0       0.6
 2 O  pz              7.3       0.4       1.6       2.3       1.0       0.5
 2 O  px              0.6       0.0       2.4       1.1       0.0       0.3
 2 O  py              0.8       3.6       0.2       0.3       8.6       0.1
 2 O  dz2             0.0       0.0       0.1       0.0       0.0       0.0
 2 O  dxz             0.0       0.0       1.2       1.8       0.0       0.0
 2 O  dyz             0.0       0.0       0.0       0.2       0.0       0.0
 2 O  dx2y2           0.7       0.0       0.7       0.7       0.0       0.1
 2 O  dxy             0.0       0.2       0.1       0.2       0.1       0.0
 3 C  s               1.4       0.0       0.7       0.3       0.0       0.8
 3 C  pz              6.8       2.8       7.1       2.6       0.7       9.9
 3 C  px             22.7       0.0      17.0       0.8       0.0      19.2
 3 C  py              0.6      24.6       0.8       0.3       5.5       1.3
 3 C  dz2             0.1       1.6       0.1       1.2       0.7       5.1
[...]
 2 O  f+2            13.5       8.1       0.3      10.8       0.1      26.9
 2 O  f-2             2.8       0.6      40.1       0.4      13.9       0.3
 2 O  f+3             0.6       0.1       8.8       0.3      43.0       0.1
 2 O  f-3             1.7       3.1       1.0      66.4       0.1       4.5
 3 C  s               0.0       0.0       0.0       0.0       2.1       0.9
 3 C  pz              0.0       0.0       0.0       0.0       0.3       0.1
 3 C  px              0.0       0.0       0.0       0.0       1.3       0.9
 3 C  py              0.1       0.0       0.0       0.0       0.0       0.0
 3 C  dz2             0.0       0.3       0.1       0.3       0.2       0.3
 3 C  dxz             0.0       0.0       0.1       0.1       2.2       1.8
 3 C  dyz             0.1       0.0       0.3       0.6       0.1       0.1
 3 C  dx2y2           0.0       0.6       0.0       0.1       1.2       1.4
 3 C  dxy             0.2       0.0       0.8       0.8       0.2       0.2
 3 C  f0              0.5       0.1       0.2       0.1       0.0       0.8
 3 C  f+1             0.2       0.6       0.2       0.5       0.0       0.0
 3 C  f-1             0.5       0.0       0.2       0.0       0.3       0.1
 3 C  f+2             0.0       0.2       0.1       0.5       0.6       0.9
 3 C  f-2             0.4       0.0       0.4       1.4       0.3       0.0
 3 C  f+3             0.1       1.6       0.1       0.3       1.3       0.1
 3 C  f-3             1.6       0.1       2.3       1.7       0.1       0.1
 7 H  s               0.2       0.0       0.3       0.3       0.1       0.0
 8 H  s               0.2       0.0       0.3       0.3       0.1       0.0
 8 H  pz              0.0       0.1       0.0       0.1       0.0       0.0
 9 H  s               0.3       0.0       0.2       0.2       0.1       0.0
 9 H  px              0.0       0.1       0.0       0.1       0.0       0.0
10 H  px              0.0       0.1       0.0       0.0       0.0       0.2
11 H  s               0.3       0.0       0.2       0.2       0.1       0.0
11 H  px              0.0       0.1       0.0       0.1       0.0       0.0

                    162       163       164       165       166       167   
                   5.79630   6.23685   6.24901   6.38859   6.73650   6.81395
                   0.00000   0.00000   0.00000   0.00000   0.00000   0.00000
                  --------  --------  --------  --------  --------  --------
 0 C  s               0.3       0.0       0.2       0.0       0.1       0.0
 0 C  pz              0.2       0.0       0.0       0.0       0.0       0.0
 0 C  px              0.2       0.0       0.1       0.0       0.0       0.0
 0 C  dxz             0.2       0.0       0.0       0.0       0.0       0.0
 0 C  dx2y2           0.1       0.0       0.0       0.0       0.0       0.0
 0 C  f0              0.2       0.0       0.0       0.0       0.0       0.0
 1 C  s               0.5       0.0       0.2       0.0       1.5       0.1
 1 C  pz              0.0       0.0       0.0       0.0       0.9       0.5
 1 C  px              0.1       0.0       0.9       0.0       1.2       0.1
 1 C  py              0.0       0.3       0.0       0.1       0.1       0.1
 1 C  dz2             0.8       0.0       0.1       0.2       0.0       0.5
 1 C  dxz             0.1       0.1       0.2       0.0       1.0       0.1
 1 C  dyz             0.0       0.1       0.0       0.5       0.1       0.1
 1 C  dx2y2           1.4       0.0       0.2       0.1       0.2       0.1
 1 C  dxy             0.0       0.5       0.0       0.4       0.1       0.0
 1 C  f0              2.2       0.0       0.0       0.0       0.0       0.1
 1 C  f+1             0.8       0.0       0.2       0.1       0.1       0.2
 1 C  f-1             0.8       0.0       0.0       0.0       0.1       0.1
 1 C  f+2             1.3       0.0       0.0       0.1       0.1       0.0
 1 C  f-2             0.0       0.1       0.0       0.3       0.0       0.0
 1 C  f+3             0.6       0.0       0.1       0.1       0.0       0.0
 1 C  f-3             0.2       0.2       0.0       0.3       0.0       0.0
 2 O  s               0.2       0.0       1.4       0.0       1.0       3.7
 2 O  pz              0.1       0.1       1.7       0.0       0.1       0.1
 2 O  px              1.1       0.0       0.1       0.0       2.1       0.7
 2 O  py              0.0       1.2       0.2       0.0       0.0       0.0
 2 O  dz2             0.4      23.5      46.3       0.4       1.2      19.9
 2 O  dxz             8.0       0.1       1.2       8.4      60.9       8.7
 2 O  dyz             0.4      55.9      30.6       1.0       0.3       0.1
 2 O  dx2y2           0.2       7.8       9.0       0.3       9.3      47.4
 2 O  dxy             0.9       1.7       0.1      71.9       7.4       0.8
 2 O  f0              1.5       1.0       0.0       0.2       0.1       3.4
 2 O  f+1            46.5       0.0       0.2       3.0       6.2       0.3
 2 O  f-1             0.5       0.5       1.4       0.2       0.0       0.2
 2 O  f+2             1.0       1.9       2.6       0.0       0.3       4.7
 2 O  f-2             5.4       0.0       0.0       8.0       2.5       0.3
 2 O  f+3            14.5       0.0       0.3       1.7       0.0       0.3
 2 O  f-3             0.2       2.8       0.5       0.3       0.1       0.7
 3 C  s               0.1       0.0       0.5       0.0       0.3       1.9
 3 C  pz              0.0       0.0       0.0       0.0       0.1       0.8
 3 C  px              0.1       0.0       0.6       0.0       0.5       1.5
 3 C  py              0.0       0.4       0.0       0.2       0.0       0.1
 3 C  dz2             0.4       0.0       0.1       0.1       0.4       0.0
 3 C  dxz             0.8       0.1       0.1       0.1       0.2       0.9
 3 C  dyz             0.1       0.0       0.0       0.3       0.0       0.0
 3 C  dx2y2           1.0       0.0       0.4       0.0       0.2       0.4
 3 C  dxy             0.1       0.5       0.0       0.5       0.0       0.1
 3 C  f+1             3.5       0.0       0.0       0.1       0.3       0.0
 3 C  f-1             0.2       0.1       0.0       0.0       0.1       0.0
 3 C  f+2             0.0       0.0       0.0       0.0       0.1       0.1
 3 C  f-2             0.6       0.0       0.0       0.1       0.1       0.0
 3 C  f+3             0.6       0.0       0.1       0.0       0.0       0.0
 3 C  f-3             0.0       0.3       0.0       0.4       0.0       0.0
10 H  s               0.6       0.0       0.0       0.0       0.0       0.0

                    168       169       170       171   
                  20.65168  20.72543  20.85118  41.62132
                   0.00000   0.00000   0.00000   0.00000
                  --------  --------  --------  --------
 0 C  s              10.8      83.1       4.6       0.0
 1 C  s              25.4       0.1      72.8       0.1
 2 O  s               0.4       0.0       0.0      99.8
 2 O  pz              0.1       0.0       0.0       0.0
 2 O  px              0.0       0.0       0.3       0.0
 2 O  dxz             0.0       0.0       0.2       0.0
 3 C  s              61.8      15.4      20.9       0.1
 4 H  s               0.0       0.2       0.0       0.0
 5 H  s               0.0       0.2       0.0       0.0
 6 H  s               0.0       0.2       0.0       0.0
 7 H  s               0.1       0.0       0.2       0.0
 8 H  s               0.1       0.0       0.2       0.0
 9 H  s               0.1       0.0       0.0       0.0
10 H  s               0.2       0.0       0.0       0.0
11 H  s               0.1       0.0       0.0       0.0


                      *****************************
                      * MAYER POPULATION ANALYSIS *
                      *****************************

  NA   - Mulliken gross atomic population
  ZA   - Total nuclear charge
  QA   - Mulliken gross atomic charge
  VA   - Mayer's total valence
  BVA  - Mayer's bonded valence
  FA   - Mayer's free valence

  ATOM       NA         ZA         QA         VA         BVA        FA
  0 C      6.3054     6.0000    -0.3054     3.9151     3.9151     0.0000
  1 C      6.0168     6.0000    -0.0168     3.9502     3.9502    -0.0000
  2 O      8.2972     8.0000    -0.2972     1.9735     1.9735    -0.0000
  3 C      6.1790     6.0000    -0.1790     3.9530     3.9530     0.0000
  4 H      0.8884     1.0000     0.1116     0.9807     0.9807     0.0000
  5 H      0.8883     1.0000     0.1117     0.9807     0.9807     0.0000
  6 H      0.8970     1.0000     0.1030     0.9753     0.9753    -0.0000
  7 H      0.9229     1.0000     0.0771     0.9598     0.9598    -0.0000
  8 H      0.9229     1.0000     0.0771     0.9599     0.9599     0.0000
  9 H      0.9024     1.0000     0.0976     0.9645     0.9645     0.0000
 10 H      0.8773     1.0000     0.1227     0.9687     0.9687     0.0000
 11 H      0.9023     1.0000     0.0977     0.9644     0.9644     0.0000

  Mayer bond orders larger than 0.100000
B(  0-C ,  1-C ) :   1.0119 B(  0-C ,  4-H ) :   0.9770 B(  0-C ,  5-H ) :   0.9770 
B(  0-C ,  6-H ) :   0.9717 B(  1-C ,  2-O ) :   1.0042 B(  1-C ,  7-H ) :   0.9651 
B(  1-C ,  8-H ) :   0.9651 B(  2-O ,  3-C ) :   1.0033 B(  3-C ,  9-H ) :   0.9777 
B(  3-C , 10-H ) :   0.9788 B(  3-C , 11-H ) :   0.9777 

-------
TIMINGS
-------

Total SCF time: 0 days 0 hours 0 min 29 sec 

Total time                  ....      29.693 sec
Sum of individual times     ....      28.220 sec  ( 95.0%)

SCF preparation             ....       0.167 sec  (  0.6%)
Fock matrix formation       ....      27.371 sec  ( 92.2%)
  Startup                   ....       0.044 sec  (  0.2% of F)
  Split-RI-J                ....       0.789 sec  (  2.9% of F)
  Chain of spheres X        ....      22.258 sec  ( 81.3% of F)
  XC integration            ....       4.486 sec  ( 16.4% of F)
    Basis function eval.    ....       0.845 sec  ( 18.8% of XC)
    Density eval.           ....       0.502 sec  ( 11.2% of XC)
    XC-Functional eval.     ....       0.935 sec  ( 20.9% of XC)
    XC-Potential eval.      ....       0.799 sec  ( 17.8% of XC)
Diagonalization             ....       0.000 sec  (  0.0%)
Density matrix formation    ....       0.141 sec  (  0.5%)
Total Energy calculation    ....       0.036 sec  (  0.1%)
Population analysis         ....       0.074 sec  (  0.2%)
Orbital Transformation      ....       0.054 sec  (  0.2%)
Orbital Orthonormalization  ....       0.000 sec  (  0.0%)
DIIS solution               ....       0.204 sec  (  0.7%)
  MO trafo                  ....       0.000 sec  (  0.0 % of DIIS)
  Orb grad                  ....       0.000 sec  (  0.0 % of DIIS)
  Energy W gradient         ....       0.000 sec  (  0.0 % of DIIS)
  DIIS error                ....       0.003 sec  (  1.3 % of DIIS)
  DIIS work                 ....       0.161 sec  ( 78.9 % of DIIS)
  Form Q                    ....       0.000 sec  (  0.0 % of DIIS)
  Form QpQm                 ....       0.000 sec  (  0.0 % of DIIS)
  Exp/Cayley                ....       0.000 sec  (  0.0 % of DIIS)
  Orb update                ....       0.000 sec  (  0.0 % of DIIS)
  Wake-sleep                ....       0.010 sec  (  4.7 % of DIIS)
SOSCF solution              ....       0.095 sec  (  0.3%)
  MO trafo                  ....       0.047 sec  ( 49.8 % of SOSCF)
  Orb grad                  ....       0.002 sec  (  1.7 % of SOSCF)
  Rot update                ....       0.024 sec  ( 25.1 % of SOSCF)
  Step                      ....       0.022 sec  ( 23.3 % of SOSCF)
Grid generation             ....       0.078 sec  (  0.3%)
Finished LeanSCF after  29.8 sec

Maximum memory used throughout the entire LEANSCF-calculation: 18.4 MB
------------------   -----------------
gCP correction             0.008417496
------------------   -----------------

-------------------------   --------------------
FINAL SINGLE POINT ENERGY      -194.348710211952
-------------------------   --------------------


------------------------------------------------------------------------------
                              ORCA PROPERTY CALCULATIONS
------------------------------------------------------------------------------

GBWName                                 ... sp_gas.gbw
Number of atoms                         ...     12
Number of basis functions               ...    172
Max core memory                         ...   1024 MB

Electric properties:
Dipole moment                           ... YES
Quadrupole moment                       ...  NO
Static polarizability (Dipole/Dipole)   ...  NO
Static polarizability (Dipole/Quad.)    ...  NO
Static polarizability (Quad./Quad.)     ...  NO
Static polarizability (Velocity)        ...  NO

Atomic electric properties:
Dipole moment                           ...  NO
Quadrupole moment                       ...  NO
Static polarizability                   ...  NO

Choice of electric origin               ... Center of mass
Position of electric origin             ...    -0.003720     0.005693     0.018964

General magnetic properties:
Magnetizability                         ...  NO

EPR properties:
g-Tensor (aka g-matrix)                 ...  NO
Zero-Field splitting spin-orbit         ...  NO
Zero-field splitting spin-spin          ...  NO
Hyperfine couplings                     ...  NO (   0 nuclei)
Quadrupole couplings                    ...  NO (   0 nuclei)
Contact density                         ...  NO (   0 nuclei)

NMR properties:
Chemical shifts                         ...  NO (   0 nuclei)
Spin-rotation constants                 ...  NO (   0 nuclei)
Spin-spin couplings                     ...  NO (   0 nuclei,    0 pairs)

Choice of magnetic origin               ... GIAO
Position of magnetic origin             ...     0.000000     0.000000     0.000000

Properties with geometric perturbations:
SCF Hessian                             ...  NO
IR spectrum                             ...  NO
VCD spectrum                            ...  NO
X-ray spectroscopy properties:
SCF XES/XAS/RIXS spectra                ...  NO


-------------
DIPOLE MOMENT
-------------

Method             : SCF
Type of density    : Electron Density
Multiplicity       :   1
Irrep              :   0
Energy             :  -194.3571277079524577 Eh
Relativity type    : 
Basis              : AO
                                X                 Y                 Z
Electronic contribution:     -1.059096969       0.455120236       1.315456911
Nuclear contribution   :      1.031269051      -0.616650739      -1.792379450
                        -----------------------------------------
Total Dipole Moment    :     -0.027827918      -0.161530503      -0.476922539
                        -----------------------------------------
Magnitude (a.u.)       :      0.504303088
Magnitude (Debye)      :      1.281836581



--------------------
Rotational spectrum 
--------------------
 
Rotational constants in cm-1:             0.929388             0.137265             0.128346 
Rotational constants in MHz :         27862.348615          4115.095671          3847.721711 

Dipole components along the rotational axes: 
x,y,z [a.u.] :     0.054960     0.501299    -0.000387 
x,y,z [Debye]:     0.139696     1.274201    -0.000983 

 

Dipole moment calculation done in   0.0 sec 

Maximum memory used throughout the entire PROP-calculation: 10.5 MB

--------------------------------
SUGGESTED CITATIONS FOR THIS RUN
--------------------------------

Below you find a list of papers that are relevant to this ORCA run
We neither can nor want to force you to cite these papers, but we appreciate if you do
You receive ORCA, which is the product of decades of hard work by many enthusiastic individuals, for free
The only thing we kindly ask in return is that you cite our papers,
We deeply appreciate it, if you show your appreciation for ORCA by not just citing the generic ORCA reference.

Please note that relegating all ORCA citations to the supporting information does *not* help us.
SI sections are not indexed - citations you put there will not count into any citation statistics
But we need these citations in order to attract the funding resources that allow us to do what we are doing

Therefore, if you are a happy ORCA user, please consider citing a few of the papers listed below in the main body of your paper

In addition to the list printed below, the program has created the file sp_gas.bibtex that contains the list in bibtex format
You can import this file easily into all common literature databanks and citation aid programs


List of essential papers. We consider these as the minimum necessary citations

  1. Neese,F.
     Software update: the ORCA program system, version 5.0
     WIRES Comput. Molec. Sci., 2022 12(1)e1606
     doi.org/10.1002/wcms.1606

List of papers to cite with high priority. The work reported in these papers was absolutely
necessary for this run to complete.
Our perspective: the developers of density functionals and basis sets usually get cited in chemistry papers
Good! But without the algorithms to do something with them, the functionals or basis sets would not do anything.
Hence, in our opinion, the algorithm design and method developments papers are equally worthy of getting cited

  1. Neese,F.
     An improvement of the resolution of the identity approximation for the formation of the Coulomb matrix
     J. Comp. Chem., 2003 24(14)1740-1747
     doi.org/10.1002/jcc.10318
  2. Neese,F.; Wennmohs,F.; Hansen,A.; Becker,U.
     Efficient, approximate and parallel Hartree-Fock and hybrid DFT calculations. A 'chain-of-spheres' algorithm for the Hartree-Fock exchange
     Chem. Phys., 2009 356(1-3)98-109
     doi.org/10.1016/j.chemphys.2008.10.036
  3. Helmich-Paris,B.; de Souza,B.; Neese,F.; Izsák,R.
     An improved chain of spheres for exchange algorithm
     J. Chem. Phys., 2021 155 104109
     doi.org/doi: 10.1063/5.0058766.
  4. Neese,F.
     The SHARK Integral Generation and Digestion System
     J. Comp. Chem., 2022  1-16
     doi.org/10.1002/jcc.26942

List of suggested additional citations. These are papers that are important in the 'surrounding' of 
of this run, or papers that preceded the highly important papers. If you like your results we are grateful for a citation.

  1. Izsak,R.; Neese,F.
     An overlap fitted chain of spheres exchange method
     J. Chem. Phys., 2011 135 144105
     doi.org/10.1063/1.3646921
  2. Izsak,R.; Hansen,A.; Neese,F.
     The resolution of identity and chain of spheres approximations for the LPNO-CCSD singles Fock term
     Molec. Phys., 2012 110 2413-2417
     doi.org/10.1080/00268976.2012.687466
  3. Neese,F.
     The ORCA program system
     WIRES Comput. Molec. Sci., 2012 2(1)73-78
     doi.org/10.1002/wcms.81
  4. Izsak,R.; Neese,F.; Klopper,W.
     Robust fitting techniques in the chain of spheres approximation to the Fock exchange: The role of the complementary space
     J. Chem. Phys., 2013 139 
     doi.org/10.1063/1.4819264
  5. Neese,F.
     Software update: the ORCA program system, version 4.0
     WIRES Comput. Molec. Sci., 2018 8(1)1-6
     doi.org/10.1002/wcms.1327
  6. Neese,F.; Wennmohs,F.; Becker,U.; Riplinger,C.
     The ORCA quantum chemistry program package
     J. Chem. Phys., 2020 152 Art. No. L224108
     doi.org/10.1063/5.0004608

List of optional additional citations

  1. Neese,F.
     Approximate second-order SCF convergence for spin unrestricted wavefunctions
     Chem. Phys. Lett., 2000 325(1-3)93-98
     doi.org/10.1016/s0009-2614(00)00662-x

Timings for individual modules:

Sum of individual times          ...       31.139 sec (=   0.519 min)
Startup calculation              ...        0.985 sec (=   0.016 min)   3.2 %
SCF iterations                   ...       30.075 sec (=   0.501 min)  96.6 %
Property calculations            ...        0.078 sec (=   0.001 min)   0.3 %
                             ****ORCA TERMINATED NORMALLY****
TOTAL RUN TIME: 0 days 0 hours 0 minutes 31 seconds 722 msec
