      -----------------------------------------------------------      
     |                   =====================                   |     
     |                           x T B                           |     
     |                   =====================                   |     
     |                         S. Grimme                         |     
     |          Mulliken Center for Theoretical Chemistry        |     
     |                    University of Bonn                     |     
      -----------------------------------------------------------      

   * xtb version 6.7.1 (edcfbbe) compiled by 'albert@albert-system' on 2024-07-22

   xtb is free software: you can redistribute it and/or modify it under
   the terms of the GNU Lesser General Public License as published by
   the Free Software Foundation, either version 3 of the License, or
   (at your option) any later version.
   
   xtb is distributed in the hope that it will be useful,
   but WITHOUT ANY WARRANTY; without even the implied warranty of
   MERCHANTABILITY or FITNESS FOR A PARTICULAR PURPOSE.  See the
   GNU Lesser General Public License for more details.
   
   Cite this work as:
   * C. Bannwarth, E. Caldeweyher, S. Ehlert, A. Hansen, P. Pracht,
     J. Seibert, S. Spicher, S. Grimme, WIREs Comput. Mol. Sci., 2020, 11,
     e01493. DOI: 10.1002/wcms.1493
   
   for GFN2-xTB:
   * C. Bannwarth, S. Ehlert and S. Grimme., J. Chem. Theory Comput., 2019,
     15, 1652-1671. DOI: 10.1021/acs.jctc.8b01176
   for GFN1-xTB:
   * S. Grimme, C. Bannwarth, P. Shushkov, J. Chem. Theory Comput., 2017,
     13, 1989-2009. DOI: 10.1021/acs.jctc.7b00118
   for GFN0-xTB:
   * P. Pracht, E. Caldeweyher, S. Ehlert, S. Grimme, ChemRxiv, 2019, preprint.
     DOI: 10.26434/chemrxiv.8326202.v1
   for GFN-FF:
   * S. Spicher and S. Grimme, Angew. Chem. Int. Ed., 2020, 59, 15665-15673.
     DOI: 10.1002/anie.202004239
   
   for ALPB and GBSA implicit solvation:
   * S. Ehlert, M. Stahn, S. Spicher, S. Grimme, J. Chem. Theory Comput.,
     2021, 17, 4250-4261. DOI: 10.1021/acs.jctc.1c00471
   
   for ddCOSMO and CPCM-X implicit solvation:
   * M. Stahn, S. Ehlert, S. Grimme, J. Phys. Chem. A,
     2023, XX, XXXX-XXXX. DOI: 10.1021/acs.jpca.3c04382
   
   for DFT-D4:
   * E. Caldeweyher, C. Bannwarth and S. Grimme, J. Chem. Phys., 2017,
     147, 034112. DOI: 10.1063/1.4993215
   * E. Caldeweyher, S. Ehlert, A. Hansen, H. Neugebauer, S. Spicher,
     C. Bannwarth and S. Grimme, J. Chem. Phys., 2019, 150, 154122.
     DOI: 10.1063/1.5090222
   * E. Caldeweyher, J.-M. Mewes, S. Ehlert and S. Grimme, Phys. Chem. Chem. Phys.
     2020, 22, 8499-8512. DOI: 10.1039/D0CP00502A
   
   for sTDA-xTB:
   * S. Grimme and C. Bannwarth, J. Chem. Phys., 2016, 145, 054103.
     DOI: 10.1063/1.4959605
   
   in the mass-spec context:
   * V. Asgeirsson, C. Bauer and S. Grimme, Chem. Sci., 2017, 8, 4879.
     DOI: 10.1039/c7sc00601b
   * J. Koopman and S. Grimme, ACS Omega 2019, 4, 12, 15120-15133.
     DOI: 10.1021/acsomega.9b02011
   
   for metadynamics refer to:
   * S. Grimme, J. Chem. Theory Comput., 2019, 155, 2847-2862
     DOI: 10.1021/acs.jctc.9b00143
   
   for SPH calculations refer to:
   * S. Spicher and S. Grimme, J. Chem. Theory Comput., 2021, 17, 1701-1714
     DOI: 10.1021/acs.jctc.0c01306
   
   for ONIOM refer to:
   * C. Plett, A. Katbashev, S. Ehlert, S. Grimme, M. Bursch,
     Phys. Chem. Chem. Phys., 2023, 25, 17860-17868. DOI: 10.1039/D3CP02178E
   
   for DIPRO refer to:
   * J. Kohn, N. Gildemeister, S. Grimme, D. Fazzi, A. Hansen,
     J. Chem. Phys., 2023, just accepted.
   
   for PTB refer to:
   * S. Grimme, M. Mueller, A. Hansen, J. Chem. Phys., 2023, 158, 124111.
     DOI: 10.1063/5.0137838
   
   with help from (in alphabetical order)
   P. Atkinson, C. Bannwarth, F. Bohle, G. Brandenburg, E. Caldeweyher
   M. Checinski, S. Dohm, S. Ehlert, S. Ehrlich, I. Gerasimov, C. Hölzer
   A. Katbashev, J. Kohn, J. Koopman, C. Lavigne, S. Lehtola, F. März, M. Müller,
   F. Musil, H. Neugebauer, J. Pisarek, C. Plett, P. Pracht, F. Pultar,
   J. Seibert, P. Shushkov, S. Spicher, M. Stahn, M. Steiner, T. Strunk,
   J. Stückrath, T. Rose, and J. Unsleber
   
 * started run on 2025/04/06 at 08:44:02.783     
   ID    Z sym.   atoms
    1    6 C      1-9, 12, 15, 16
    2    8 O      10, 11, 13
    3    7 N      14
    4    1 H      17-31

           -------------------------------------------------
          |                Calculation Setup                |
           -------------------------------------------------

          program call               : /srv/scratch/z5358697/.xtb/bin/xtb xtb_rrho.coord --gfn2 --ohess vtight --chrg 0 --enso --norestart -I rrho-xcontrol-inp --parallel 1 --alpb water
          hostname                   : k148
          coordinate file            : xtb_rrho.coord
          omp threads                :                     1


           -------------------------------------------------
          |                 G F N 2 - x T B                 |
           -------------------------------------------------

        Reference                      10.1021/acs.jctc.8b01176
      * Hamiltonian:
        H0-scaling (s, p, d)           1.850000    2.230000    2.230000
        zeta-weighting                 0.500000
      * Dispersion:
        s8                             2.700000
        a1                             0.520000
        a2                             5.000000
        s9                             5.000000
      * Repulsion:
        kExp                           1.500000    1.000000
        rExp                           1.000000
      * Coulomb:
        alpha                          2.000000
        third order                    shell-resolved
        anisotropic                    true
        a3                             3.000000
        a5                             4.000000
        cn-shift                       1.200000
        cn-exp                         4.000000
        max-rad                        5.000000

      * Solvation model:               ALPB
        Solvent                        water
        Parameter file                 internal GFN2-xTB/ALPB
        Dielectric constant                8.0200E+01
        Reference state                gsolv [1 M gas/solution]
        Free energy shift                  1.0808E-03 Eh       6.7819E-01 kcal/mol
        Temperature                        2.9815E+02 K
        Density                            1.0000E+00 kg/L
        Solvent mass                       1.8000E+01 g/mol
        Interaction kernel             P16
        Born radius scaling (c1)           1.4744E+00
        Born radii integrator          GBOBC
        Born offset                        0.0000E+00 a0       0.0000E+00 AA
        H-bond correction              true
        Ion screening                  false
        Surface tension                    1.0000E-05 Eh       1.5569E+01 dyn/cm
        Grid points                               974 per atom

          ...................................................
          :                      SETUP                      :
          :.................................................:
          :  # basis functions                  79          :
          :  # atomic orbitals                  79          :
          :  # shells                           47          :
          :  # electrons                        86          :
          :  max. iterations                   250          :
          :  Hamiltonian                  GFN2-xTB          :
          :  restarted?                      false          :
          :  GBSA solvation                   true          :
          :  PC potential                    false          :
          :  electronic temp.          300.0000000     K    :
          :  accuracy                    1.0000000          :
          :  -> integral cutoff          0.2500000E+02      :
          :  -> integral neglect         0.1000000E-07      :
          :  -> SCF convergence          0.1000000E-05 Eh   :
          :  -> wf. convergence          0.1000000E-03 e    :
          :  Broyden damping             0.4000000          :
          :  net charge                          0          :
          :  unpaired electrons                  0          :
          ...................................................

 iter      E             dE          RMSdq      gap      omega  full diag
   1    -49.0659926 -0.490660E+02  0.429E+00    4.14       0.0  T
   2    -49.1363574 -0.703648E-01  0.230E+00    3.99       1.0  T
   3    -49.1366872 -0.329744E-03  0.864E-01    3.93       1.0  T
   4    -49.1384185 -0.173130E-02  0.235E-01    3.97       1.0  T
   5    -49.1395082 -0.108974E-02  0.741E-02    3.97       1.0  T
   6    -49.1395188 -0.105349E-04  0.386E-02    3.97       1.0  T
   7    -49.1395272 -0.847743E-05  0.114E-02    3.97       1.6  T
   8    -49.1395279 -0.692591E-06  0.493E-03    3.97       3.6  T
   9    -49.1395281 -0.213533E-06  0.229E-03    3.97       7.8  T
  10    -49.1395282 -0.273520E-07  0.863E-04    3.97      20.8  T
  11    -49.1395282 -0.215643E-08  0.349E-04    3.97      51.5  T

   *** convergence criteria satisfied after 11 iterations ***

         #    Occupation            Energy/Eh            Energy/eV
      -------------------------------------------------------------
         1        2.0000           -0.7395848             -20.1251
       ...           ...                  ...                  ...
        37        2.0000           -0.4427880             -12.0489
        38        2.0000           -0.4381196             -11.9218
        39        2.0000           -0.4320155             -11.7557
        40        2.0000           -0.4300268             -11.7016
        41        2.0000           -0.4109776             -11.1833
        42        2.0000           -0.4009117             -10.9094
        43        2.0000           -0.3774299             -10.2704 (HOMO)
        44                         -0.2313924              -6.2965 (LUMO)
        45                         -0.2211234              -6.0171
        46                         -0.2043559              -5.5608
        47                         -0.1012611              -2.7555
        48                         -0.0478701              -1.3026
       ...                                ...                  ...
        79                          0.6563257              17.8595
      -------------------------------------------------------------
                  HL-Gap            0.1460376 Eh            3.9739 eV
             Fermi-level           -0.3044112 Eh           -8.2834 eV

 SCC (total)                   0 d,  0 h,  0 min,  0.032 sec
 SCC setup                      ...        0 min,  0.002 sec (  6.555%)
 Dispersion                     ...        0 min,  0.000 sec (  0.884%)
 classical contributions        ...        0 min,  0.000 sec (  0.149%)
 integral evaluation            ...        0 min,  0.004 sec ( 12.861%)
 iterations                     ...        0 min,  0.014 sec ( 43.169%)
 molecular gradient             ...        0 min,  0.012 sec ( 35.773%)
 printout                       ...        0 min,  0.000 sec (  0.558%)

         :::::::::::::::::::::::::::::::::::::::::::::::::::::
         ::                     SUMMARY                     ::
         :::::::::::::::::::::::::::::::::::::::::::::::::::::
         :: total energy             -48.530401319781 Eh    ::
         :: total w/o Gsasa/hb       -48.526583413145 Eh    ::
         :: gradient norm              0.047243890037 Eh/a0 ::
         :: HOMO-LUMO gap              3.973885040537 eV    ::
         ::.................................................::
         :: SCC energy               -49.139270477105 Eh    ::
         :: -> isotropic ES            0.105272090823 Eh    ::
         :: -> anisotropic ES         -0.001501400958 Eh    ::
         :: -> anisotropic XC          0.014141948703 Eh    ::
         :: -> dispersion             -0.028158844328 Eh    ::
         :: -> Gsolv                  -0.023883023616 Eh    ::
         ::    -> Gelec               -0.020065116980 Eh    ::
         ::    -> Gsasa                0.000354192472 Eh    ::
         ::    -> Ghb                 -0.005252858806 Eh    ::
         ::    -> Gshift               0.001080759698 Eh    ::
         :: repulsion energy           0.608869157325 Eh    ::
         :: add. restraining           0.000000000000 Eh    ::
         :: total charge               0.000000000000 e     ::
         :::::::::::::::::::::::::::::::::::::::::::::::::::::

      ----------------------------------------------------------- 
     |                   =====================                   |
     |                        A N C O P T                        |
     |                   =====================                   |
     |               Approximate Normal Coordinate               |
     |                Rational Function Optimizer                |
      ----------------------------------------------------------- 
      ----------------------------------------------------------- 
     |                   =====================                   |
     |                        A N C O P T                        |
     |                   =====================                   |
     |               Approximate Normal Coordinate               |
     |                Rational Function Optimizer                |
      ----------------------------------------------------------- 

          ...................................................
          :                      SETUP                      :
          :.................................................:
          :   optimization level         verytight          :
          :   max. optcycles                   620          :
          :   ANC micro-cycles                  20          :
          :   degrees of freedom                87          :
          :.................................................:
          :   RF solver                   davidson          :
          :   write xtbopt.log                true          :
          :   linear?                        false          :
          :   energy convergence         0.1000000E-06 Eh   :
          :   grad. convergence          0.2000000E-03 Eh/α :
          :   maxmium RF displ.          1.0000000          :
          :   Hlow (freq-cutoff)         0.1000000E-01      :
          :   Hmax (freq-cutoff)         5.0000000          :
          :   S6 in model hess.         20.0000000          :
          ...................................................

generating ANC from exact Hessian ...
Using Lindh-Hessian (1995)
 Shifting diagonal of input Hessian by   9.337385699814864E-003
 Lowest  eigenvalues of input Hessian
    0.000000    0.000000    0.000000    0.000000    0.000000    0.000000
    0.010000    0.010451    0.011343    0.012158    0.013465    0.015779
    0.018147    0.018890    0.019096    0.020002    0.021685    0.023861
 Highest eigenvalues
    1.724248    1.891801    2.023009    2.092755    2.127832    2.445682
 

........................................................................
.............................. CYCLE    1 ..............................
........................................................................

 iter      E             dE          RMSdq      gap      omega  full diag
   1    -49.1395282 -0.491395E+02  0.130E-04    3.97       0.0  T
   2    -49.1395282 -0.113708E-09  0.848E-05    3.97     211.9  T
   3    -49.1395282 -0.391935E-10  0.572E-05    3.97     313.8  T
     SCC iter.                  ...        0 min,  0.003 sec
     gradient                   ...        0 min,  0.011 sec
 * total energy  :   -48.5304013 Eh     change       -0.9390249E-09 Eh
   gradient norm :     0.0472467 Eh/α   predicted     0.0000000E+00 (-100.00%)
   displ. norm   :     0.1320563 α      lambda       -0.3274311E-02
   maximum displ.:     0.0608211 α      in ANC's #19, #3, #41, ...

........................................................................
.............................. CYCLE    2 ..............................
........................................................................

 iter      E             dE          RMSdq      gap      omega  full diag
   1    -49.1605474 -0.491605E+02  0.108E-01    3.99       0.0  T
   2    -49.1605968 -0.493501E-04  0.621E-02    4.00       1.0  T
   3    -49.1605976 -0.820938E-06  0.280E-02    4.00       1.0  T
   4    -49.1606013 -0.364762E-05  0.703E-03    4.00       2.6  T
   5    -49.1606018 -0.558004E-06  0.282E-03    4.00       6.4  T
   6    -49.1606019 -0.641963E-07  0.149E-03    4.00      12.0  T
   7    -49.1606019 -0.753838E-08  0.563E-04    4.00      31.9  T
   8    -49.1606019 -0.180979E-08  0.277E-04    4.00      64.8  T
     SCC iter.                  ...        0 min,  0.008 sec
     gradient                   ...        0 min,  0.012 sec
 * total energy  :   -48.5325995 Eh     change       -0.2198180E-02 Eh
   gradient norm :     0.0222417 Eh/α   predicted    -0.1665733E-02 ( -24.22%)
   displ. norm   :     0.1145828 α      lambda       -0.9758185E-03
   maximum displ.:     0.0600665 α      in ANC's #3, #19, #12, ...

........................................................................
.............................. CYCLE    3 ..............................
........................................................................

 iter      E             dE          RMSdq      gap      omega  full diag
   1    -49.1696876 -0.491697E+02  0.642E-02    4.00       0.0  T
   2    -49.1697160 -0.284164E-04  0.368E-02    4.01       1.0  T
   3    -49.1697174 -0.145323E-05  0.188E-02    4.01       1.0  T
   4    -49.1697183 -0.887335E-06  0.641E-03    4.01       2.8  T
   5    -49.1697187 -0.413804E-06  0.219E-03    4.01       8.2  T
   6    -49.1697188 -0.405516E-07  0.118E-03    4.01      15.2  T
   7    -49.1697188 -0.575002E-08  0.540E-04    4.01      33.2  T
   8    -49.1697188 -0.117149E-08  0.246E-04    4.01      73.0  T
     SCC iter.                  ...        0 min,  0.008 sec
     gradient                   ...        0 min,  0.011 sec
 * total energy  :   -48.5331844 Eh     change       -0.5848924E-03 Eh
   gradient norm :     0.0086057 Eh/α   predicted    -0.4946992E-03 ( -15.42%)
   displ. norm   :     0.0959480 α      lambda       -0.1915787E-03
   maximum displ.:     0.0688075 α      in ANC's #3, #12, #1, ...

........................................................................
.............................. CYCLE    4 ..............................
........................................................................

 iter      E             dE          RMSdq      gap      omega  full diag
   1    -49.1689727 -0.491690E+02  0.341E-02    4.00       0.0  T
   2    -49.1689768 -0.407373E-05  0.200E-02    4.00       1.0  T
   3    -49.1689769 -0.943902E-07  0.722E-03    4.00       2.5  T
   4    -49.1689771 -0.198740E-06  0.286E-03    4.01       6.3  T
   5    -49.1689772 -0.110777E-06  0.906E-04    4.00      19.8  T
   6    -49.1689772 -0.407245E-08  0.530E-04    4.00      33.9  T
     SCC iter.                  ...        0 min,  0.006 sec
     gradient                   ...        0 min,  0.011 sec
 * total energy  :   -48.5333258 Eh     change       -0.1414162E-03 Eh
   gradient norm :     0.0037323 Eh/α   predicted    -0.9667897E-04 ( -31.64%)
   displ. norm   :     0.1590966 α      lambda       -0.1675152E-03
   maximum displ.:     0.1176353 α      in ANC's #3, #12, #1, ...

........................................................................
.............................. CYCLE    5 ..............................
........................................................................

 iter      E             dE          RMSdq      gap      omega  full diag
   1    -49.1661896 -0.491662E+02  0.503E-02    3.99       0.0  T
   2    -49.1661922 -0.255990E-05  0.297E-02    4.00       1.0  T
   3    -49.1661924 -0.173345E-06  0.482E-03    4.00       3.7  T
   4    -49.1661925 -0.169295E-06  0.210E-03    4.00       8.6  T
   5    -49.1661926 -0.499935E-07  0.956E-04    4.00      18.8  T
   6    -49.1661926 -0.276984E-08  0.532E-04    4.00      33.7  T
     SCC iter.                  ...        0 min,  0.006 sec
     gradient                   ...        0 min,  0.011 sec
 * total energy  :   -48.5334430 Eh     change       -0.1171494E-03 Eh
   gradient norm :     0.0054910 Eh/α   predicted    -0.8587885E-04 ( -26.69%)
   displ. norm   :     0.1484991 α      lambda       -0.1052868E-03
   maximum displ.:     0.1032037 α      in ANC's #3, #12, #4, ...

........................................................................
.............................. CYCLE    6 ..............................
........................................................................

 iter      E             dE          RMSdq      gap      omega  full diag
   1    -49.1644211 -0.491644E+02  0.430E-02    3.99       0.0  T
   2    -49.1644216 -0.491380E-06  0.254E-02    3.99       1.0  T
   3    -49.1644217 -0.109514E-06  0.229E-03    3.99       7.9  T
   4    -49.1644218 -0.578836E-07  0.114E-03    3.99      15.7  T
   5    -49.1644218 -0.353494E-08  0.578E-04    3.99      31.1  T
   6    -49.1644218 -0.114818E-08  0.242E-04    3.99      74.2  T
     SCC iter.                  ...        0 min,  0.006 sec
     gradient                   ...        0 min,  0.011 sec
 * total energy  :   -48.5335323 Eh     change       -0.8930944E-04 Eh
   gradient norm :     0.0071863 Eh/α   predicted    -0.5380469E-04 ( -39.75%)
   displ. norm   :     0.2915307 α      lambda       -0.2072902E-03
   maximum displ.:     0.1880442 α      in ANC's #3, #12, #4, ...

........................................................................
.............................. CYCLE    7 ..............................
........................................................................

 iter      E             dE          RMSdq      gap      omega  full diag
   1    -49.1622595 -0.491623E+02  0.801E-02    3.99       0.0  T
   2    -49.1622609 -0.140561E-05  0.474E-02    3.99       1.0  T
   3    -49.1622612 -0.258849E-06  0.419E-03    3.99       4.3  T
   4    -49.1622614 -0.254109E-06  0.202E-03    3.99       8.9  T
   5    -49.1622614 -0.938198E-08  0.108E-03    3.99      16.6  T
   6    -49.1622614 -0.555689E-08  0.327E-04    3.99      54.9  T
   7    -49.1622614 -0.927365E-09  0.954E-05    3.99     188.2  T
     SCC iter.                  ...        0 min,  0.007 sec
     gradient                   ...        0 min,  0.012 sec
 * total energy  :   -48.5337007 Eh     change       -0.1684343E-03 Eh
   gradient norm :     0.0085838 Eh/α   predicted    -0.1124552E-03 ( -33.24%)
   displ. norm   :     0.4508432 α      lambda       -0.2903632E-03
   maximum displ.:     0.2780493 α      in ANC's #3, #12, #4, ...

........................................................................
.............................. CYCLE    8 ..............................
........................................................................

 iter      E             dE          RMSdq      gap      omega  full diag
   1    -49.1597229 -0.491597E+02  0.120E-01    3.99       0.0  T
   2    -49.1597259 -0.300575E-05  0.708E-02    3.98       1.0  T
   3    -49.1597265 -0.519283E-06  0.595E-03    3.98       3.0  T
   4    -49.1597270 -0.564369E-06  0.279E-03    3.98       6.4  T
   5    -49.1597270 -0.124774E-07  0.131E-03    3.98      13.7  T
   6    -49.1597270 -0.791216E-08  0.448E-04    3.98      40.1  T
   7    -49.1597270 -0.250584E-08  0.134E-04    3.98     134.2  T
     SCC iter.                  ...        0 min,  0.007 sec
     gradient                   ...        0 min,  0.012 sec
 * total energy  :   -48.5339096 Eh     change       -0.2088828E-03 Eh
   gradient norm :     0.0111486 Eh/α   predicted    -0.1746965E-03 ( -16.37%)
   displ. norm   :     0.3386525 α      lambda       -0.2838190E-03
   maximum displ.:     0.1833587 α      in ANC's #4, #3, #12, ...

........................................................................
.............................. CYCLE    9 ..............................
........................................................................

 iter      E             dE          RMSdq      gap      omega  full diag
   1    -49.1612773 -0.491613E+02  0.846E-02    3.98       0.0  T
   2    -49.1612799 -0.259727E-05  0.501E-02    3.98       1.0  T
   3    -49.1612801 -0.188997E-06  0.492E-03    3.98       3.7  T
   4    -49.1612805 -0.334307E-06  0.204E-03    3.98       8.8  T
   5    -49.1612805 -0.306368E-07  0.101E-03    3.98      17.8  T
   6    -49.1612805 -0.288670E-08  0.414E-04    3.98      43.3  T
   7    -49.1612805 -0.122381E-08  0.142E-04    3.98     126.7  T
     SCC iter.                  ...        0 min,  0.007 sec
     gradient                   ...        0 min,  0.011 sec
 * total energy  :   -48.5341321 Eh     change       -0.2225018E-03 Eh
   gradient norm :     0.0086309 Eh/α   predicted    -0.1581862E-03 ( -28.91%)
   displ. norm   :     0.4237636 α      lambda       -0.3763732E-03
   maximum displ.:     0.2232455 α      in ANC's #4, #3, #12, ...

........................................................................
.............................. CYCLE   10 ..............................
........................................................................

 iter      E             dE          RMSdq      gap      omega  full diag
   1    -49.1647908 -0.491648E+02  0.108E-01    3.98       0.0  T
   2    -49.1647942 -0.341901E-05  0.637E-02    3.98       1.0  T
   3    -49.1647927  0.147475E-05  0.110E-02    3.98       1.6  T
   4    -49.1647952 -0.246834E-05  0.274E-03    3.98       6.5  T
   5    -49.1647952 -0.487790E-07  0.151E-03    3.98      11.9  T
   6    -49.1647952 -0.204496E-08  0.625E-04    3.98      28.7  T
   7    -49.1647952 -0.442783E-08  0.136E-04    3.98     132.1  T
     SCC iter.                  ...        0 min,  0.007 sec
     gradient                   ...        0 min,  0.012 sec
 * total energy  :   -48.5344202 Eh     change       -0.2881513E-03 Eh
   gradient norm :     0.0074827 Eh/α   predicted    -0.2219823E-03 ( -22.96%)
   displ. norm   :     0.4498071 α      lambda       -0.3544776E-03
   maximum displ.:     0.2612902 α      in ANC's #4, #12, #3, ...

........................................................................
.............................. CYCLE   11 ..............................
........................................................................

 iter      E             dE          RMSdq      gap      omega  full diag
   1    -49.1686652 -0.491687E+02  0.110E-01    3.97       0.0  T
   2    -49.1686724 -0.719819E-05  0.651E-02    3.98       1.0  T
   3    -49.1686699  0.243116E-05  0.139E-02    3.98       1.3  T
   4    -49.1686737 -0.378546E-05  0.329E-03    3.98       5.5  T
   5    -49.1686738 -0.976054E-07  0.158E-03    3.98      11.4  T
   6    -49.1686738 -0.969954E-08  0.811E-04    3.98      22.2  T
   7    -49.1686738 -0.268857E-08  0.230E-04    3.98      78.2  T
     SCC iter.                  ...        0 min,  0.007 sec
     gradient                   ...        0 min,  0.011 sec
 * total energy  :   -48.5346754 Eh     change       -0.2551858E-03 Eh
   gradient norm :     0.0072982 Eh/α   predicted    -0.2131008E-03 ( -16.49%)
   displ. norm   :     0.7098629 α      lambda       -0.3680436E-03
   maximum displ.:     0.3684872 α      in ANC's #4, #3, #12, ...

........................................................................
.............................. CYCLE   12 ..............................
........................................................................

 iter      E             dE          RMSdq      gap      omega  full diag
   1    -49.1583550 -0.491584E+02  0.183E-01    3.96       0.0  T
   2    -49.1583733 -0.183605E-04  0.107E-01    3.96       1.0  T
   3    -49.1583714  0.195442E-05  0.188E-02    3.96       1.0  T
   4    -49.1583769 -0.546144E-05  0.502E-03    3.96       3.6  T
   5    -49.1583770 -0.123636E-06  0.293E-03    3.96       6.1  T
   6    -49.1583770 -0.324962E-07  0.120E-03    3.96      15.0  T
   7    -49.1583770 -0.627822E-08  0.268E-04    3.96      67.1  T
   8    -49.1583770 -0.356621E-09  0.134E-04    3.96     134.4  T
     SCC iter.                  ...        0 min,  0.007 sec
     gradient                   ...        0 min,  0.012 sec
 * total energy  :   -48.5346262 Eh     change        0.4925107E-04 Eh
   gradient norm :     0.0196777 Eh/α   predicted    -0.2767823E-03 (-661.98%)
   displ. norm   :     0.1447446 α      lambda       -0.7812196E-03
   maximum displ.:     0.0952609 α      in ANC's #3, #2, #12, ...

........................................................................
.............................. CYCLE   13 ..............................
........................................................................

 iter      E             dE          RMSdq      gap      omega  full diag
   1    -49.1702607 -0.491703E+02  0.672E-02    3.96       0.0  T
   2    -49.1702717 -0.110559E-04  0.390E-02    3.97       1.0  T
   3    -49.1702714  0.308712E-06  0.138E-02    3.97       1.3  T
   4    -49.1702731 -0.172180E-05  0.269E-03    3.97       6.7  T
   5    -49.1702732 -0.513452E-07  0.143E-03    3.97      12.6  T
   6    -49.1702732 -0.936102E-08  0.710E-04    3.97      25.3  T
   7    -49.1702732 -0.199824E-08  0.204E-04    3.97      88.0  T
     SCC iter.                  ...        0 min,  0.007 sec
     gradient                   ...        0 min,  0.011 sec
 * total energy  :   -48.5349738 Eh     change       -0.3475819E-03 Eh
   gradient norm :     0.0079802 Eh/α   predicted    -0.3987930E-03 (  14.73%)
   displ. norm   :     0.2501978 α      lambda       -0.1881078E-03
   maximum displ.:     0.1669153 α      in ANC's #4, #12, #1, ...

........................................................................
.............................. CYCLE   14 ..............................
........................................................................

 iter      E             dE          RMSdq      gap      omega  full diag
   1    -49.1682688 -0.491683E+02  0.569E-02    3.97       0.0  T
   2    -49.1682759 -0.714679E-05  0.331E-02    3.97       1.0  T
   3    -49.1682760 -0.422190E-07  0.999E-03    3.97       1.8  T
   4    -49.1682763 -0.316805E-06  0.291E-03    3.97       6.2  T
   5    -49.1682764 -0.123416E-06  0.107E-03    3.97      16.8  T
   6    -49.1682764 -0.562062E-08  0.507E-04    3.97      35.4  T
   7    -49.1682764 -0.105094E-08  0.176E-04    3.97     102.1  T
     SCC iter.                  ...        0 min,  0.007 sec
     gradient                   ...        0 min,  0.011 sec
 * total energy  :   -48.5350801 Eh     change       -0.1063931E-03 Eh
   gradient norm :     0.0085893 Eh/α   predicted    -0.9999801E-04 (  -6.01%)
   displ. norm   :     0.3451119 α      lambda       -0.1811423E-03
   maximum displ.:     0.1843933 α      in ANC's #4, #12, #3, ...

........................................................................
.............................. CYCLE   15 ..............................
........................................................................

 iter      E             dE          RMSdq      gap      omega  full diag
   1    -49.1651512 -0.491652E+02  0.783E-02    3.97       0.0  T
   2    -49.1651541 -0.293609E-05  0.462E-02    3.97       1.0  T
   3    -49.1651540  0.966479E-07  0.662E-03    3.97       2.7  T
   4    -49.1651547 -0.700019E-06  0.225E-03    3.97       8.0  T
   5    -49.1651547 -0.260802E-07  0.132E-03    3.97      13.6  T
   6    -49.1651547 -0.483260E-08  0.498E-04    3.97      36.1  T
   7    -49.1651547 -0.193508E-08  0.128E-04    3.97     140.5  T
     SCC iter.                  ...        0 min,  0.007 sec
     gradient                   ...        0 min,  0.011 sec
 * total energy  :   -48.5351841 Eh     change       -0.1039092E-03 Eh
   gradient norm :     0.0076408 Eh/α   predicted    -0.1013566E-03 (  -2.46%)
   displ. norm   :     0.1668749 α      lambda       -0.1291893E-03
   maximum displ.:     0.0911946 α      in ANC's #4, #12, #2, ...

........................................................................
.............................. CYCLE   16 ..............................
........................................................................

 iter      E             dE          RMSdq      gap      omega  full diag
   1    -49.1657668 -0.491658E+02  0.364E-02    3.97       0.0  T
   2    -49.1657678 -0.104662E-05  0.214E-02    3.97       1.0  T
   3    -49.1657677  0.102203E-06  0.429E-03    3.97       4.2  T
   4    -49.1657679 -0.238710E-06  0.150E-03    3.97      12.0  T
   5    -49.1657680 -0.269624E-07  0.589E-04    3.97      30.5  T
   6    -49.1657680 -0.140426E-08  0.320E-04    3.97      56.2  T
     SCC iter.                  ...        0 min,  0.006 sec
     gradient                   ...        0 min,  0.011 sec
 * total energy  :   -48.5352755 Eh     change       -0.9141972E-04 Eh
   gradient norm :     0.0046214 Eh/α   predicted    -0.6639484E-04 ( -27.37%)
   displ. norm   :     0.1700963 α      lambda       -0.1603593E-03
   maximum displ.:     0.1077770 α      in ANC's #2, #4, #12, ...

........................................................................
.............................. CYCLE   17 ..............................
........................................................................

 iter      E             dE          RMSdq      gap      omega  full diag
   1    -49.1698173 -0.491698E+02  0.426E-02    3.97       0.0  T
   2    -49.1698212 -0.392431E-05  0.246E-02    3.97       1.0  T
   3    -49.1698210  0.193433E-06  0.869E-03    3.97       2.1  T
   4    -49.1698216 -0.588459E-06  0.251E-03    3.97       7.1  T
   5    -49.1698217 -0.737635E-07  0.101E-03    3.97      17.8  T
   6    -49.1698217 -0.414855E-08  0.531E-04    3.97      33.8  T
   7    -49.1698217 -0.103325E-08  0.160E-04    3.97     112.6  T
     SCC iter.                  ...        0 min,  0.007 sec
     gradient                   ...        0 min,  0.012 sec
 * total energy  :   -48.5353395 Eh     change       -0.6399095E-04 Eh
   gradient norm :     0.0054385 Eh/α   predicted    -0.8250099E-04 (  28.93%)
   displ. norm   :     0.3935109 α      lambda       -0.1437067E-03
   maximum displ.:     0.2273894 α      in ANC's #4, #12, #2, ...

........................................................................
.............................. CYCLE   18 ..............................
........................................................................

 iter      E             dE          RMSdq      gap      omega  full diag
   1    -49.1662251 -0.491662E+02  0.821E-02    3.97       0.0  T
   2    -49.1662272 -0.206148E-05  0.484E-02    3.97       1.0  T
   3    -49.1662275 -0.265956E-06  0.469E-03    3.97       3.8  T
   4    -49.1662277 -0.180865E-06  0.240E-03    3.97       7.5  T
   5    -49.1662277 -0.402200E-07  0.123E-03    3.97      14.6  T
   6    -49.1662277 -0.334366E-08  0.299E-04    3.97      60.1  T
   7    -49.1662277 -0.762981E-09  0.125E-04    3.97     143.7  T
     SCC iter.                  ...        0 min,  0.007 sec
     gradient                   ...        0 min,  0.012 sec
 * total energy  :   -48.5353711 Eh     change       -0.3163091E-04 Eh
   gradient norm :     0.0067969 Eh/α   predicted    -0.8298878E-04 ( 162.37%)
   displ. norm   :     0.0293345 α      lambda        0.2574900E-04
   maximum displ.:     0.0135771 α      in ANC's #5, #23, #6, ...

........................................................................
.............................. CYCLE   19 ..............................
........................................................................

 iter      E             dE          RMSdq      gap      omega  full diag
   1    -49.1683570 -0.491684E+02  0.171E-02    3.97       0.0  T
   2    -49.1683574 -0.451775E-06  0.970E-03    3.97       1.9  T
   3    -49.1683574  0.211766E-08  0.246E-03    3.97       7.3  T
   4    -49.1683575 -0.498053E-07  0.731E-04    3.97      24.6  T
   5    -49.1683575 -0.438493E-08  0.385E-04    3.97      46.6  T
     SCC iter.                  ...        0 min,  0.005 sec
     gradient                   ...        0 min,  0.012 sec
 * total energy  :   -48.5353634 Eh     change        0.7684451E-05 Eh
   gradient norm :     0.0074500 Eh/α   predicted     0.1288445E-04 (  67.67%)
   displ. norm   :     0.0798688 α      lambda       -0.1214746E-03
   maximum displ.:     0.0401649 α      in ANC's #4, #12, #23, ...

........................................................................
.............................. CYCLE   20 ..............................
........................................................................

 iter      E             dE          RMSdq      gap      omega  full diag
   1    -49.1685738 -0.491686E+02  0.273E-02    3.97       0.0  T
   2    -49.1685744 -0.505131E-06  0.159E-02    3.97       1.1  T
   3    -49.1685744 -0.347333E-07  0.241E-03    3.97       7.5  T
   4    -49.1685745 -0.712847E-07  0.995E-04    3.97      18.0  T
   5    -49.1685745 -0.413684E-08  0.484E-04    3.97      37.1  T
     SCC iter.                  ...        0 min,  0.005 sec
     gradient                   ...        0 min,  0.012 sec
 * total energy  :   -48.5354268 Eh     change       -0.6340901E-04 Eh
   gradient norm :     0.0042182 Eh/α   predicted    -0.6112657E-04 (  -3.60%)
   displ. norm   :     0.0801658 α      lambda       -0.3440983E-04
   maximum displ.:     0.0540481 α      in ANC's #2, #1, #4, ...
 * RMSD in coord.:     0.7516732 α      energy gain  -0.5025503E-02 Eh

generating ANC from exact Hessian ...
Using Lindh-Hessian (1995)
 Shifting diagonal of input Hessian by   9.226275521851460E-003
 Lowest  eigenvalues of input Hessian
    0.000000    0.000000    0.000000    0.000000    0.000000    0.000000
    0.010000    0.010334    0.011385    0.012231    0.013569    0.016549
    0.018491    0.018968    0.019246    0.020301    0.021955    0.023978
 Highest eigenvalues
    1.762621    1.932995    2.068011    2.135541    2.195937    2.521437
 

........................................................................
.............................. CYCLE   21 ..............................
........................................................................

 iter      E             dE          RMSdq      gap      omega  full diag
   1    -49.1681538 -0.491682E+02  0.175E-02    3.97       0.0  T
   2    -49.1681539 -0.121437E-06  0.103E-02    3.97       1.7  T
   3    -49.1681539  0.106388E-07  0.119E-03    3.97      15.2  T
   4    -49.1681539 -0.224778E-07  0.435E-04    3.97      41.3  T
   5    -49.1681539 -0.311131E-08  0.192E-04    3.97      93.7  T
     SCC iter.                  ...        0 min,  0.005 sec
     gradient                   ...        0 min,  0.011 sec
 * total energy  :   -48.5354555 Eh     change       -0.2865126E-04 Eh
   gradient norm :     0.0035070 Eh/α   predicted     0.0000000E+00 (-100.00%)
   displ. norm   :     0.0496265 α      lambda       -0.4237117E-04
   maximum displ.:     0.0380701 α      in ANC's #3, #4, #1, ...

........................................................................
.............................. CYCLE   22 ..............................
........................................................................

 iter      E             dE          RMSdq      gap      omega  full diag
   1    -49.1682971 -0.491683E+02  0.158E-02    3.97       0.0  T
   2    -49.1682973 -0.200520E-06  0.908E-03    3.97       2.0  T
   3    -49.1682973 -0.137180E-07  0.133E-03    3.97      13.5  T
   4    -49.1682973 -0.127152E-07  0.539E-04    3.97      33.3  T
   5    -49.1682973 -0.349034E-08  0.281E-04    3.97      63.8  T
     SCC iter.                  ...        0 min,  0.005 sec
     gradient                   ...        0 min,  0.012 sec
 * total energy  :   -48.5354951 Eh     change       -0.3966905E-04 Eh
   gradient norm :     0.0016961 Eh/α   predicted    -0.2264423E-04 ( -42.92%)
   displ. norm   :     0.2339151 α      lambda       -0.1050000E-03
   maximum displ.:     0.1650360 α      in ANC's #3, #4, #1, ...

........................................................................
.............................. CYCLE   23 ..............................
........................................................................

 iter      E             dE          RMSdq      gap      omega  full diag
   1    -49.1678000 -0.491678E+02  0.687E-02    3.97       0.0  T
   2    -49.1678042 -0.419165E-05  0.395E-02    3.97       1.0  T
   3    -49.1678045 -0.322712E-06  0.589E-03    3.97       3.1  T
   4    -49.1678047 -0.218413E-06  0.231E-03    3.97       7.8  T
   5    -49.1678048 -0.592106E-07  0.124E-03    3.97      14.5  T
   6    -49.1678048 -0.395456E-08  0.318E-04    3.97      56.5  T
   7    -49.1678048 -0.908351E-09  0.152E-04    3.97     118.4  T
     SCC iter.                  ...        0 min,  0.006 sec
     gradient                   ...        0 min,  0.011 sec
 * total energy  :   -48.5355883 Eh     change       -0.9315681E-04 Eh
   gradient norm :     0.0063303 Eh/α   predicted    -0.5378070E-04 ( -42.27%)
   displ. norm   :     0.0793350 α      lambda       -0.4310413E-04
   maximum displ.:     0.0526876 α      in ANC's #3, #1, #4, ...

........................................................................
.............................. CYCLE   24 ..............................
........................................................................

 iter      E             dE          RMSdq      gap      omega  full diag
   1    -49.1680112 -0.491680E+02  0.192E-02    3.97       0.0  T
   2    -49.1680113 -0.147857E-06  0.112E-02    3.97       1.6  T
   3    -49.1680113 -0.141857E-07  0.134E-03    3.97      13.4  T
   4    -49.1680114 -0.265943E-07  0.594E-04    3.97      30.2  T
   5    -49.1680114 -0.166024E-08  0.311E-04    3.97      57.8  T
     SCC iter.                  ...        0 min,  0.005 sec
     gradient                   ...        0 min,  0.011 sec
 * total energy  :   -48.5356271 Eh     change       -0.3884690E-04 Eh
   gradient norm :     0.0052660 Eh/α   predicted    -0.2170290E-04 ( -44.13%)
   displ. norm   :     0.2248237 α      lambda       -0.1153924E-03
   maximum displ.:     0.1444686 α      in ANC's #3, #1, #4, ...

........................................................................
.............................. CYCLE   25 ..............................
........................................................................

 iter      E             dE          RMSdq      gap      omega  full diag
   1    -49.1680684 -0.491681E+02  0.511E-02    3.98       0.0  T
   2    -49.1680693 -0.882549E-06  0.298E-02    3.98       1.0  T
   3    -49.1680694 -0.381252E-07  0.375E-03    3.98       4.8  T
   4    -49.1680696 -0.238715E-06  0.156E-03    3.98      11.5  T
   5    -49.1680696 -0.802342E-08  0.812E-04    3.98      22.1  T
   6    -49.1680696 -0.207399E-08  0.245E-04    3.98      73.3  T
     SCC iter.                  ...        0 min,  0.006 sec
     gradient                   ...        0 min,  0.011 sec
 * total energy  :   -48.5357071 Eh     change       -0.7990606E-04 Eh
   gradient norm :     0.0022197 Eh/α   predicted    -0.6061880E-04 ( -24.14%)
   displ. norm   :     0.1691566 α      lambda       -0.4228027E-04
   maximum displ.:     0.1080020 α      in ANC's #3, #1, #4, ...

........................................................................
.............................. CYCLE   26 ..............................
........................................................................

 iter      E             dE          RMSdq      gap      omega  full diag
   1    -49.1678621 -0.491679E+02  0.368E-02    3.98       0.0  T
   2    -49.1678625 -0.361351E-06  0.215E-02    3.98       1.0  T
   3    -49.1678625 -0.211080E-07  0.254E-03    3.98       7.1  T
   4    -49.1678626 -0.112816E-06  0.108E-03    3.98      16.6  T
   5    -49.1678626 -0.305405E-08  0.526E-04    3.98      34.1  T
   6    -49.1678626 -0.103820E-08  0.154E-04    3.98     116.5  T
     SCC iter.                  ...        0 min,  0.006 sec
     gradient                   ...        0 min,  0.012 sec
 * total energy  :   -48.5357364 Eh     change       -0.2935574E-04 Eh
   gradient norm :     0.0028130 Eh/α   predicted    -0.2174527E-04 ( -25.92%)
   displ. norm   :     0.1242696 α      lambda       -0.3024971E-04
   maximum displ.:     0.0769553 α      in ANC's #3, #1, #4, ...

........................................................................
.............................. CYCLE   27 ..............................
........................................................................

 iter      E             dE          RMSdq      gap      omega  full diag
   1    -49.1685058 -0.491685E+02  0.258E-02    3.98       0.0  T
   2    -49.1685060 -0.186980E-06  0.151E-02    3.98       1.2  T
   3    -49.1685060 -0.168993E-08  0.185E-03    3.98       9.7  T
   4    -49.1685061 -0.577222E-07  0.711E-04    3.98      25.3  T
   5    -49.1685061 -0.100680E-08  0.380E-04    3.98      47.3  T
     SCC iter.                  ...        0 min,  0.005 sec
     gradient                   ...        0 min,  0.012 sec
 * total energy  :   -48.5357586 Eh     change       -0.2216030E-04 Eh
   gradient norm :     0.0025882 Eh/α   predicted    -0.1535862E-04 ( -30.69%)
   displ. norm   :     0.1457541 α      lambda       -0.2549071E-04
   maximum displ.:     0.0925478 α      in ANC's #3, #1, #4, ...

........................................................................
.............................. CYCLE   28 ..............................
........................................................................

 iter      E             dE          RMSdq      gap      omega  full diag
   1    -49.1684990 -0.491685E+02  0.304E-02    3.98       0.0  T
   2    -49.1684992 -0.152613E-06  0.178E-02    3.98       1.0  T
   3    -49.1684992 -0.408888E-07  0.140E-03    3.98      12.8  T
   4    -49.1684993 -0.229418E-07  0.743E-04    3.98      24.2  T
   5    -49.1684993 -0.185113E-08  0.280E-04    3.98      64.2  T
     SCC iter.                  ...        0 min,  0.005 sec
     gradient                   ...        0 min,  0.012 sec
 * total energy  :   -48.5357767 Eh     change       -0.1815245E-04 Eh
   gradient norm :     0.0018576 Eh/α   predicted    -0.1301693E-04 ( -28.29%)
   displ. norm   :     0.1678408 α      lambda       -0.2612377E-04
   maximum displ.:     0.1026920 α      in ANC's #1, #3, #12, ...

........................................................................
.............................. CYCLE   29 ..............................
........................................................................

 iter      E             dE          RMSdq      gap      omega  full diag
   1    -49.1701642 -0.491702E+02  0.331E-02    3.98       0.0  T
   2    -49.1701645 -0.337774E-06  0.196E-02    3.98       1.0  T
   3    -49.1701645 -0.115160E-07  0.187E-03    3.98       9.6  T
   4    -49.1701646 -0.477732E-07  0.712E-04    3.98      25.2  T
   5    -49.1701646 -0.214947E-08  0.370E-04    3.98      48.6  T
     SCC iter.                  ...        0 min,  0.005 sec
     gradient                   ...        0 min,  0.011 sec
 * total energy  :   -48.5357944 Eh     change       -0.1762926E-04 Eh
   gradient norm :     0.0029221 Eh/α   predicted    -0.1323247E-04 ( -24.94%)
   displ. norm   :     0.1828838 α      lambda       -0.2462051E-04
   maximum displ.:     0.1135819 α      in ANC's #3, #1, #4, ...

........................................................................
.............................. CYCLE   30 ..............................
........................................................................

 iter      E             dE          RMSdq      gap      omega  full diag
   1    -49.1685323 -0.491685E+02  0.371E-02    3.98       0.0  T
   2    -49.1685328 -0.457734E-06  0.218E-02    3.98       1.0  T
   3    -49.1685328 -0.417431E-07  0.189E-03    3.98       9.5  T
   4    -49.1685329 -0.327507E-07  0.868E-04    3.98      20.7  T
   5    -49.1685329 -0.483209E-08  0.492E-04    3.98      36.5  T
     SCC iter.                  ...        0 min,  0.005 sec
     gradient                   ...        0 min,  0.012 sec
 * total energy  :   -48.5358005 Eh     change       -0.6109591E-05 Eh
   gradient norm :     0.0027317 Eh/α   predicted    -0.1272992E-04 ( 108.36%)
   displ. norm   :     0.0683521 α      lambda       -0.2276627E-04
   maximum displ.:     0.0432328 α      in ANC's #3, #4, #2, ...

........................................................................
.............................. CYCLE   31 ..............................
........................................................................

 iter      E             dE          RMSdq      gap      omega  full diag
   1    -49.1691224 -0.491691E+02  0.160E-02    3.98       0.0  T
   2    -49.1691226 -0.168591E-06  0.920E-03    3.98       2.0  T
   3    -49.1691226 -0.200192E-07  0.125E-03    3.98      14.3  T
   4    -49.1691226 -0.869681E-08  0.491E-04    3.98      36.6  T
   5    -49.1691226 -0.861917E-09  0.271E-04    3.98      66.4  T
     SCC iter.                  ...        0 min,  0.005 sec
     gradient                   ...        0 min,  0.011 sec
 * total energy  :   -48.5358157 Eh     change       -0.1525587E-04 Eh
   gradient norm :     0.0012986 Eh/α   predicted    -0.1144148E-04 ( -25.00%)
   displ. norm   :     0.0872890 α      lambda       -0.2058195E-04
   maximum displ.:     0.0461882 α      in ANC's #2, #12, #1, ...

........................................................................
.............................. CYCLE   32 ..............................
........................................................................

 iter      E             dE          RMSdq      gap      omega  full diag
   1    -49.1692921 -0.491693E+02  0.219E-02    3.98       0.0  T
   2    -49.1692924 -0.292353E-06  0.127E-02    3.98       1.4  T
   3    -49.1692924 -0.386971E-07  0.197E-03    3.98       9.1  T
   4    -49.1692925 -0.378712E-07  0.882E-04    3.98      20.4  T
   5    -49.1692925 -0.391434E-08  0.448E-04    3.98      40.1  T
     SCC iter.                  ...        0 min,  0.005 sec
     gradient                   ...        0 min,  0.011 sec
 * total energy  :   -48.5358356 Eh     change       -0.1990776E-04 Eh
   gradient norm :     0.0013220 Eh/α   predicted    -0.1033907E-04 ( -48.07%)
   displ. norm   :     0.1110026 α      lambda       -0.1156829E-04
   maximum displ.:     0.0684478 α      in ANC's #1, #12, #3, ...

........................................................................
.............................. CYCLE   33 ..............................
........................................................................

 iter      E             dE          RMSdq      gap      omega  full diag
   1    -49.1689010 -0.491689E+02  0.203E-02    3.98       0.0  T
   2    -49.1689011 -0.116914E-06  0.121E-02    3.98       1.5  T
   3    -49.1689011  0.141863E-07  0.177E-03    3.98      10.1  T
   4    -49.1689011 -0.499521E-07  0.633E-04    3.98      28.4  T
   5    -49.1689011 -0.218869E-08  0.285E-04    3.98      62.9  T
     SCC iter.                  ...        0 min,  0.005 sec
     gradient                   ...        0 min,  0.012 sec
 * total energy  :   -48.5358459 Eh     change       -0.1027943E-04 Eh
   gradient norm :     0.0010620 Eh/α   predicted    -0.5820707E-05 ( -43.38%)
   displ. norm   :     0.0346897 α      lambda       -0.2924679E-05
   maximum displ.:     0.0227420 α      in ANC's #1, #12, #2, ...

........................................................................
.............................. CYCLE   34 ..............................
........................................................................

 iter      E             dE          RMSdq      gap      omega  full diag
   1    -49.1689109 -0.491689E+02  0.638E-03    3.98       0.0  T
   2    -49.1689110 -0.424876E-07  0.381E-03    3.98       4.7  T
   3    -49.1689110  0.126137E-08  0.755E-04    3.98      23.8  T
   4    -49.1689110 -0.417522E-08  0.283E-04    3.98      63.4  T
     SCC iter.                  ...        0 min,  0.004 sec
     gradient                   ...        0 min,  0.012 sec
 * total energy  :   -48.5358491 Eh     change       -0.3206358E-05 Eh
   gradient norm :     0.0007085 Eh/α   predicted    -0.1467492E-05 ( -54.23%)
   displ. norm   :     0.0512215 α      lambda       -0.3258142E-05
   maximum displ.:     0.0371389 α      in ANC's #1, #12, #3, ...

........................................................................
.............................. CYCLE   35 ..............................
........................................................................

 iter      E             dE          RMSdq      gap      omega  full diag
   1    -49.1689402 -0.491689E+02  0.968E-03    3.98       0.0  T
   2    -49.1689402 -0.350900E-07  0.569E-03    3.98       3.2  T
   3    -49.1689403 -0.151177E-08  0.670E-04    3.98      26.8  T
   4    -49.1689403 -0.541438E-08  0.298E-04    3.98      60.3  T
     SCC iter.                  ...        0 min,  0.004 sec
     gradient                   ...        0 min,  0.012 sec
 * total energy  :   -48.5358525 Eh     change       -0.3397026E-05 Eh
   gradient norm :     0.0006117 Eh/α   predicted    -0.1631358E-05 ( -51.98%)
   displ. norm   :     0.0465310 α      lambda       -0.2447515E-05
   maximum displ.:     0.0341633 α      in ANC's #1, #12, #3, ...

........................................................................
.............................. CYCLE   36 ..............................
........................................................................

 iter      E             dE          RMSdq      gap      omega  full diag
   1    -49.1690115 -0.491690E+02  0.103E-02    3.98       0.0  T
   2    -49.1690115 -0.359084E-07  0.602E-03    3.98       3.0  T
   3    -49.1690115 -0.368802E-08  0.682E-04    3.98      26.3  T
   4    -49.1690115 -0.610942E-08  0.322E-04    3.98      55.8  T
     SCC iter.                  ...        0 min,  0.004 sec
     gradient                   ...        0 min,  0.011 sec
 * total energy  :   -48.5358551 Eh     change       -0.2594045E-05 Eh
   gradient norm :     0.0007486 Eh/α   predicted    -0.1227536E-05 ( -52.68%)
   displ. norm   :     0.0578059 α      lambda       -0.2323326E-05
   maximum displ.:     0.0424305 α      in ANC's #1, #3, #12, ...

........................................................................
.............................. CYCLE   37 ..............................
........................................................................

 iter      E             dE          RMSdq      gap      omega  full diag
   1    -49.1689277 -0.491689E+02  0.132E-02    3.98       0.0  T
   2    -49.1689277 -0.789604E-07  0.760E-03    3.98       2.4  T
   3    -49.1689278 -0.119404E-07  0.951E-04    3.98      18.9  T
   4    -49.1689278 -0.830249E-08  0.475E-04    3.98      37.8  T
     SCC iter.                  ...        0 min,  0.004 sec
     gradient                   ...        0 min,  0.012 sec
 * total energy  :   -48.5358573 Eh     change       -0.2206127E-05 Eh
   gradient norm :     0.0005872 Eh/α   predicted    -0.1168673E-05 ( -47.03%)
   displ. norm   :     0.0235960 α      lambda       -0.1203964E-05
   maximum displ.:     0.0147855 α      in ANC's #1, #2, #9, ...

........................................................................
.............................. CYCLE   38 ..............................
........................................................................

 iter      E             dE          RMSdq      gap      omega  full diag
   1    -49.1691034 -0.491691E+02  0.732E-03    3.98       0.0  T
   2    -49.1691035 -0.187680E-07  0.424E-03    3.98       4.2  T
   3    -49.1691035  0.545533E-09  0.667E-04    3.98      26.9  T
   4    -49.1691035 -0.743785E-08  0.255E-04    3.98      70.4  T
     SCC iter.                  ...        0 min,  0.004 sec
     gradient                   ...        0 min,  0.011 sec
 * total energy  :   -48.5358584 Eh     change       -0.1099239E-05 Eh
   gradient norm :     0.0002629 Eh/α   predicted    -0.6110366E-06 ( -44.41%)
   displ. norm   :     0.0116899 α      lambda       -0.4007189E-06
   maximum displ.:     0.0066924 α      in ANC's #5, #1, #2, ...

........................................................................
.............................. CYCLE   39 ..............................
........................................................................

 iter      E             dE          RMSdq      gap      omega  full diag
   1    -49.1690348 -0.491690E+02  0.337E-03    3.98       0.0  T
   2    -49.1690348 -0.807851E-08  0.194E-03    3.98       9.3  T
   3    -49.1690348 -0.752607E-10  0.312E-04    3.98      57.5  T
   4    -49.1690348 -0.115321E-08  0.109E-04    3.98     164.8  T
     SCC iter.                  ...        0 min,  0.004 sec
     gradient                   ...        0 min,  0.011 sec
 * total energy  :   -48.5358588 Eh     change       -0.3671333E-06 Eh
   gradient norm :     0.0001756 Eh/α   predicted    -0.2014325E-06 ( -45.13%)
   displ. norm   :     0.0083697 α      lambda       -0.1624126E-06
   maximum displ.:     0.0044127 α      in ANC's #1, #5, #2, ...

........................................................................
.............................. CYCLE   40 ..............................
........................................................................

 iter      E             dE          RMSdq      gap      omega  full diag
   1    -49.1690621 -0.491691E+02  0.188E-03    3.98       0.0  T
   2    -49.1690621 -0.400935E-08  0.111E-03    3.98      16.2  T
   3    -49.1690621  0.127640E-08  0.388E-04    3.98      46.2  T
   4    -49.1690621 -0.191188E-08  0.811E-05    3.98     221.6  T
     SCC iter.                  ...        0 min,  0.004 sec
     gradient                   ...        0 min,  0.011 sec
 * total energy  :   -48.5358589 Eh     change       -0.1164817E-06 Eh
   gradient norm :     0.0001843 Eh/α   predicted    -0.8366260E-07 ( -28.18%)
   displ. norm   :     0.0030059 α      lambda       -0.6966474E-07
   maximum displ.:     0.0018015 α      in ANC's #2, #5, #4, ...

........................................................................
.............................. CYCLE   41 ..............................
........................................................................

 iter      E             dE          RMSdq      gap      omega  full diag
   1    -49.1690661 -0.491691E+02  0.776E-04    3.98       0.0  T
   2    -49.1690661 -0.262042E-08  0.442E-04    3.98      40.6  T
   3    -49.1690661 -0.147011E-10  0.215E-04    3.98      83.5  T
     SCC iter.                  ...        0 min,  0.003 sec
     gradient                   ...        0 min,  0.012 sec
 * total energy  :   -48.5358590 Eh     change       -0.6988989E-07 Eh
   gradient norm :     0.0000563 Eh/α   predicted    -0.3645217E-07 ( -47.84%)
   displ. norm   :     0.0029624 α      lambda        0.1124924E-07
   maximum displ.:     0.0017709 α      in ANC's #2, #5, #4, ...

   *** GEOMETRY OPTIMIZATION CONVERGED AFTER 41 ITERATIONS ***

------------------------------------------------------------------------
 total energy gain   :        -0.0054576 Eh       -3.4247 kcal/mol
 total RMSD          :         0.8573591 a0        0.4537 Å
 total power (kW/mol):        -0.3494886 (step)  -14.6919 (real)
------------------------------------------------------------------------

 ANCopt (total)                0 d,  0 h,  0 min,  0.975 sec
 optimizer setup                ...        0 min,  0.000 sec (  0.031%)
 model hessian                  ...        0 min,  0.019 sec (  1.927%)
 ANC generation                 ...        0 min,  0.002 sec (  0.161%)
 coordinate transformation      ...        0 min,  0.000 sec (  0.044%)
 single point calculation       ...        0 min,  0.937 sec ( 96.039%)
 optimization log               ...        0 min,  0.013 sec (  1.314%)
 hessian update                 ...        0 min,  0.000 sec (  0.041%)
 rational function              ...        0 min,  0.003 sec (  0.279%)

================
 final structure:
================
$coord
        4.08816271319235        4.85221808811001        2.07611784652687      C
        3.43209178718383        3.01634298649203       -0.04915069749680      C
        5.39874236427634        0.86017280072199       -0.29873302682282      C
        3.83319065538551       -1.47286634536998        0.04410667370442      C
        4.46773250878840       -3.99538792626676       -0.02200903792382      C
        2.58943344863157       -5.78263314085883        0.39083969845226      C
        0.11980091728192       -5.04780248749397        0.83373252446969      C
       -0.52493646909178       -2.50431085451094        0.90614805097923      C
        1.35472991452659       -0.71727770545726        0.52491327144893      C
        1.04071128172360        1.81461010234654        0.59863510232362      O
       -3.01716137147740       -1.79849083959678        1.42010725784020      O
       -4.19187732560519       -0.29685592020152       -0.31163227788603      C
       -3.34061514267637        0.14986033685810       -2.40006512085289      O
       -6.39286601000451        0.52753719948646        0.60538375966058      N
       -8.11772596908547        2.08568079972534       -0.82822454318503      C
        3.05083760003189        4.40655551124391       -2.54998499153329      C
        4.28344472123343        3.83466799835967        3.85085615158625      H
        5.84804653222525        5.81383460176202        1.64411786139754      H
        2.59035782170180        6.24190881447354        2.28141438160840      H
        6.31411415375872        0.89388240033350       -2.14322952885901      H
        6.85567558728260        0.99944355846048        1.15301008529583      H
        6.38806036934248       -4.56934073912948       -0.38776134009048      H
        3.04820834262254       -7.76661758464556        0.34929677072125      H
       -1.34946066391138       -6.42667396673835        1.13532933605447      H
       -6.87477398287352        0.00333501057291        2.37333652070788      H
       -7.26386867915109        2.44164546437208       -2.66464930493240      H
       -8.43035334266597        3.87399253737660        0.14176571557273      H
       -9.91459080518284        1.11340703037029       -1.08291210235022      H
        4.79684083857637        5.31764440657013       -3.12515589186386      H
        1.57901896094663        5.82386601132240       -2.34250449921546      H
        2.45603817844766        3.07559638124957       -4.00019445250702      H
$end
 
 Bond Distances (Angstroems)
 ---------------------------
C1-C2=1.5262         C1-H17=1.0875        C1-H18=1.0856        C1-H19=1.0867        C2-C1=1.5262         C2-C3=1.5500         
C2-O10=1.4572        C2-C16=1.5275        C3-C2=1.5500         C3-C4=1.4978         C3-H20=1.0898        C3-H21=1.0909        
C4-C3=1.4978         C4-C5=1.3769         C4-C9=1.3945         C5-C4=1.3769         C5-C6=1.3893         C5-H22=1.0781        
C6-C5=1.3893         C6-C7=1.3835         C6-H23=1.0778        C7-C6=1.3835         C7-C8=1.3891         C7-H24=1.0781        
C8-C7=1.3891         C8-C9=1.3872         C8-O11=1.3974        C9-C4=1.3945         C9-C8=1.3872         C9-O10=1.3506        
O10-C2=1.4572        O10-C9=1.3506        O11-C8=1.3974        O11-C12=1.3630       C12-O11=1.3630       C12-O13=1.2166       
C12-N14=1.3350       O13-C12=1.2166       N14-C12=1.3350       N14-C15=1.4452       N14-H25=1.0086       C15-N14=1.4452       
C15-H26=1.0881       C15-H27=1.0892       C15-H28=1.0895       C16-C2=1.5275        C16-H29=1.0857       C16-H30=1.0868       
C16-H31=1.0881       H17-C1=1.0875        H18-C1=1.0856        H19-C1=1.0867        H20-C3=1.0898        H21-C3=1.0909        
H22-C5=1.0781        H23-C6=1.0778        H24-C7=1.0781        H25-N14=1.0086       H26-C15=1.0881       H27-C15=1.0892       
H28-C15=1.0895       H29-C16=1.0857       H30-C16=1.0868       H31-C16=1.0881       
 C  H  Rav=1.0859 sigma=0.0043  Rmin=1.0778  Rmax=1.0909    14
 C  C  Rav=1.4422 sigma=0.0690  Rmin=1.3769  Rmax=1.5500    10
 N  H  Rav=1.0086 sigma=0.0000  Rmin=1.0086  Rmax=1.0086     1
 N  C  Rav=1.3901 sigma=0.0551  Rmin=1.3350  Rmax=1.4452     2
 O  C  Rav=1.3570 sigma=0.0793  Rmin=1.2166  Rmax=1.4572     5
 
 selected bond angles (degree)
 --------------------
H17-C1-C2=110.05               H18-C1-C2=109.78               H18-C1-H17=109.42              H19-C1-C2=109.79               
H19-C1-H17=108.55              H19-C1-H18=109.24              C3-C2-C1=112.25                O10-C2-C1=107.58               
O10-C2-C3=106.37               C16-C2-C1=111.22               C16-C2-C3=111.68               C16-C2-O10=107.42              
C4-C3-C2=103.01                H20-C3-C2=111.27               H20-C3-C4=111.58               H21-C3-C2=111.40               
H21-C3-C4=111.18               H21-C3-H20=108.39              C5-C4-C3=131.39                C9-C4-C3=107.82                
C9-C4-C5=120.79                C6-C5-C4=118.78                H22-C5-C4=120.50               H22-C5-C6=120.72               
C7-C6-C5=120.74                H23-C6-C5=119.92               H23-C6-C7=119.34               C8-C7-C6=120.60                
H24-C7-C6=121.07               H24-C7-C8=118.33               C9-C8-C7=118.71                O11-C8-C7=119.75               
O11-C8-C9=121.52               C8-C9-C4=120.36                O10-C9-C4=113.92               O10-C9-C8=125.72               
C9-O10-C2=108.62               
 
 selected dihedral angles (degree)
 ---------------------------------
C3-C2-C1-H17=303.87           C3-C2-C1-H18= 64.35           C3-C2-C1-H19=184.45           O10-C2-C1-H17= 60.55          
O10-C2-C1-H18=181.04          O10-C2-C1-H19=301.14          C16-C2-C1-H17=177.93          C16-C2-C1-H18=298.41          
C16-C2-C1-H19= 58.51          C4-C3-C2-C1=121.86            C4-C3-C2-O10=  4.46           C4-C3-C2-C16=247.55           
H20-C3-C2-C1=241.53           H20-C3-C2-O10=124.13          H20-C3-C2-C16=  7.22          H21-C3-C2-C1=  2.60           
H21-C3-C2-O10=245.20          H21-C3-C2-C16=128.29          C5-C4-C3-C2=178.54            C5-C4-C3-H20= 59.08           
C5-C4-C3-H21=297.94           C9-C4-C3-C2=357.83            C9-C4-C3-H20=238.38           C9-C4-C3-H21=117.24           
C6-C5-C4-C3=179.44            C6-C5-C4-C9=  0.23            H22-C5-C4-C3=359.44           H22-C5-C4-C9=180.23           
C7-C6-C5-C4=  0.69            C7-C6-C5-H22=180.69           H23-C6-C5-C4=180.08           H23-C6-C5-H22=  0.08          
C8-C7-C6-C5=359.18            C8-C7-C6-H23=179.78           H24-C7-C6-C5=179.33           H24-C7-C6-H23=359.94          
C9-C8-C7-C6=  0.03            C9-C8-C7-H24=179.88           O11-C8-C7-C6=181.63           O11-C8-C7-H24=  1.48          
C8-C9-C4-C3=179.60            C8-C9-C4-C5=358.98            O10-C9-C4-C3=358.87           O10-C9-C4-C5=178.26           
C4-C9-C8-C7=  0.88            C4-C9-C8-O11=179.25           O10-C9-C8-C7=181.70           O10-C9-C8-O11=  0.06          
C9-O10-C2-C1=234.21           C9-O10-C2-C3=354.68           C9-O10-C2-C16=114.39          C2-O10-C9-C4=  4.19           
C2-O10-C9-C8=183.42           
           -------------------------------------------------
          |                Final Singlepoint                |
           -------------------------------------------------

          ...................................................
          :                      SETUP                      :
          :.................................................:
          :  # basis functions                  79          :
          :  # atomic orbitals                  79          :
          :  # shells                           47          :
          :  # electrons                        86          :
          :  max. iterations                   250          :
          :  Hamiltonian                  GFN2-xTB          :
          :  restarted?                      false          :
          :  GBSA solvation                   true          :
          :  PC potential                    false          :
          :  electronic temp.          300.0000000     K    :
          :  accuracy                    1.0000000          :
          :  -> integral cutoff          0.2500000E+02      :
          :  -> integral neglect         0.1000000E-07      :
          :  -> SCF convergence          0.1000000E-05 Eh   :
          :  -> wf. convergence          0.1000000E-03 e    :
          :  Broyden damping             0.4000000          :
          :  net charge                          0          :
          :  unpaired electrons                  0          :
          ...................................................

 iter      E             dE          RMSdq      gap      omega  full diag
   1    -49.1690661 -0.491691E+02  0.666E-05    3.98       0.0  T
   2    -49.1690661 -0.382272E-10  0.410E-05    3.98     438.3  T
   3    -49.1690661 -0.258069E-10  0.170E-05    3.98    1055.9  T

   *** convergence criteria satisfied after 3 iterations ***

         #    Occupation            Energy/Eh            Energy/eV
      -------------------------------------------------------------
         1        2.0000           -0.7442882             -20.2531
       ...           ...                  ...                  ...
        37        2.0000           -0.4405717             -11.9886
        38        2.0000           -0.4373163             -11.9000
        39        2.0000           -0.4323632             -11.7652
        40        2.0000           -0.4298311             -11.6963
        41        2.0000           -0.4090404             -11.1306
        42        2.0000           -0.4001365             -10.8883
        43        2.0000           -0.3762213             -10.2375 (HOMO)
        44                         -0.2300757              -6.2607 (LUMO)
        45                         -0.2189500              -5.9579
        46                         -0.1963632              -5.3433
        47                         -0.0962068              -2.6179
        48                         -0.0187986              -0.5115
       ...                                ...                  ...
        79                          0.6805586              18.5189
      -------------------------------------------------------------
                  HL-Gap            0.1461456 Eh            3.9768 eV
             Fermi-level           -0.3031485 Eh           -8.2491 eV

 SCC (total)                   0 d,  0 h,  0 min,  0.021 sec
 SCC setup                      ...        0 min,  0.002 sec (  9.423%)
 Dispersion                     ...        0 min,  0.000 sec (  0.710%)
 classical contributions        ...        0 min,  0.000 sec (  0.183%)
 integral evaluation            ...        0 min,  0.004 sec ( 18.425%)
 iterations                     ...        0 min,  0.003 sec ( 15.545%)
 molecular gradient             ...        0 min,  0.012 sec ( 54.950%)
 printout                       ...        0 min,  0.000 sec (  0.677%)

         :::::::::::::::::::::::::::::::::::::::::::::::::::::
         ::                     SUMMARY                     ::
         :::::::::::::::::::::::::::::::::::::::::::::::::::::
         :: total energy             -48.535858960023 Eh    ::
         :: total w/o Gsasa/hb       -48.531993651392 Eh    ::
         :: gradient norm              0.000056136032 Eh/a0 ::
         :: HOMO-LUMO gap              3.976823903635 eV    ::
         ::.................................................::
         :: SCC energy               -49.168795661354 Eh    ::
         :: -> isotropic ES            0.101810339430 Eh    ::
         :: -> anisotropic ES         -0.002481924155 Eh    ::
         :: -> anisotropic XC          0.012779180181 Eh    ::
         :: -> dispersion             -0.028438509929 Eh    ::
         :: -> Gsolv                  -0.022270166755 Eh    ::
         ::    -> Gelec               -0.018404858124 Eh    ::
         ::    -> Gsasa                0.000021488900 Eh    ::
         ::    -> Ghb                 -0.004967557230 Eh    ::
         ::    -> Gshift               0.001080759698 Eh    ::
         :: repulsion energy           0.632936701331 Eh    ::
         :: add. restraining           0.000000000000 Eh    ::
         :: total charge               0.000000000000 e     ::
         :::::::::::::::::::::::::::::::::::::::::::::::::::::

           ------------------------------------------------- 
          |                Numerical Hessian                |
           ------------------------------------------------- 
step length          :   0.00500
SCC accuracy         :   0.30000
Hessian scale factor :   1.00000
frozen atoms in %    :   0.00000    0
RMS gradient         :   0.00006
estimated CPU  time      0.07 min
estimated wall time      0.07 min

writing file <hessian>.

 projected vibrational frequencies (cm⁻¹)
eigval :       -0.00    -0.00     0.00     0.00     0.00     0.00
eigval :       29.73    39.09    52.15    64.19   112.51   128.58
eigval :      138.40   189.90   205.71   214.25   230.24   241.91
eigval :      283.08   304.94   332.66   346.04   371.17   450.86
eigval :      486.53   497.29   513.48   514.35   527.91   572.29
eigval :      605.03   648.39   671.78   699.36   762.53   799.66
eigval :      811.76   846.03   885.32   903.13   905.74   920.34
eigval :      940.69   957.04   984.05  1007.21  1012.36  1072.70
eigval :     1088.82  1092.89  1104.56  1119.72  1130.56  1162.19
eigval :     1174.30  1184.86  1212.93  1234.08  1244.05  1259.86
eigval :     1286.15  1352.04  1387.84  1391.54  1402.95  1409.35
eigval :     1446.85  1455.77  1456.64  1463.92  1464.18  1469.74
eigval :     1476.45  1483.99  1498.07  1590.06  1603.18  1719.66
eigval :     2974.13  2995.26  2996.04  3006.77  3030.60  3034.73
eigval :     3041.22  3046.58  3048.23  3049.22  3053.82  3098.86
eigval :     3104.71  3114.64  3450.55
           -------------------------------------------------
          |                Property Printout                |
           -------------------------------------------------

    * Orbital Energies and Occupations

         #    Occupation            Energy/Eh            Energy/eV
      -------------------------------------------------------------
         1        2.0000           -0.7442881             -20.2531
       ...           ...                  ...                  ...
        31        2.0000           -0.4700596             -12.7910
        32        2.0000           -0.4696664             -12.7803
        33        2.0000           -0.4626853             -12.5903
        34        2.0000           -0.4613472             -12.5539
        35        2.0000           -0.4562510             -12.4152
        36        2.0000           -0.4455422             -12.1238
        37        2.0000           -0.4405718             -11.9886
        38        2.0000           -0.4373163             -11.9000
        39        2.0000           -0.4323632             -11.7652
        40        2.0000           -0.4298310             -11.6963
        41        2.0000           -0.4090403             -11.1306
        42        2.0000           -0.4001365             -10.8883
        43        2.0000           -0.3762214             -10.2375 (HOMO)
        44                         -0.2300758              -6.2607 (LUMO)
        45                         -0.2189501              -5.9579
        46                         -0.1963632              -5.3433
        47                         -0.0962068              -2.6179
        48                         -0.0187986              -0.5115
        49                         -0.0089458              -0.2434
        50                          0.0495146               1.3474
        51                          0.0650539               1.7702
        52                          0.0751339               2.0445
        53                          0.1044211               2.8414
        54                          0.1163823               3.1669
       ...                                ...                  ...
        79                          0.6805586              18.5189
      -------------------------------------------------------------
                  HL-Gap            0.1461456 Eh            3.9768 eV
             Fermi-level           -0.3031486 Eh           -8.2491 eV

     #   Z          covCN         q      C6AA      α(0)
     1   6 C        3.755    -0.128    23.010     6.840
     2   6 C        3.853     0.143    18.242     6.075
     3   6 C        3.839    -0.083    22.048     6.680
     4   6 C        2.996    -0.019    28.459     8.751
     5   6 C        2.916    -0.051    29.264     8.871
     6   6 C        2.923    -0.051    29.256     8.870
     7   6 C        2.921    -0.060    29.496     8.906
     8   6 C        2.870     0.109    25.600     8.294
     9   6 C        2.951     0.128    25.193     8.232
    10   8 O        1.703    -0.308    19.140     5.907
    11   8 O        1.710    -0.318    19.312     5.933
    12   6 C        2.657     0.409    20.103     7.336
    13   8 O        0.857    -0.543    24.756     6.671
    14   7 N        2.685    -0.197    25.267     7.466
    15   6 C        3.690    -0.063    21.897     6.697
    16   6 C        3.755    -0.123    22.920     6.826
    17   1 H        0.925     0.053     2.282     2.363
    18   1 H        0.925     0.065     2.147     2.291
    19   1 H        0.925     0.057     2.229     2.335
    20   1 H        0.925     0.069     2.092     2.262
    21   1 H        0.924     0.071     2.074     2.252
    22   1 H        0.926     0.063     2.163     2.300
    23   1 H        0.926     0.062     2.177     2.307
    24   1 H        0.926     0.062     2.179     2.308
    25   1 H        0.860     0.240     0.922     1.504
    26   1 H        0.925     0.080     1.975     2.198
    27   1 H        0.925     0.085     1.933     2.174
    28   1 H        0.925     0.083     1.947     2.182
    29   1 H        0.925     0.062     2.173     2.305
    30   1 H        0.925     0.054     2.267     2.355
    31   1 H        0.925     0.046     2.365     2.405

 Mol. C6AA /au·bohr⁶  :       9871.038594
 Mol. C8AA /au·bohr⁸  :     228618.198304
 Mol. α(0) /au        :        151.895138


Wiberg/Mayer (AO) data.
largest (>0.10) Wiberg bond orders for each atom

 ---------------------------------------------------------------------------
     #   Z sym  total        # sym  WBO       # sym  WBO       # sym  WBO
 ---------------------------------------------------------------------------
     1   6 C    3.991 --     2 C    0.999    17 H    0.984    19 H    0.983
                            18 H    0.982
     2   6 C    3.922 --     1 C    0.999    16 C    0.998     3 C    0.977
                            10 O    0.908
     3   6 C    3.994 --     4 C    1.015     2 C    0.977    20 H    0.961
                            21 H    0.959
     4   6 C    3.983 --     5 C    1.445     9 C    1.317     3 C    1.015
                             7 C    0.102
     5   6 C    3.987 --     4 C    1.445     6 C    1.413    22 H    0.967
     6   6 C    3.986 --     7 C    1.449     5 C    1.413    23 H    0.968
     7   6 C    3.984 --     6 C    1.449     8 C    1.389    24 H    0.967
                             4 C    0.102
     8   6 C    3.905 --     7 C    1.389     9 C    1.342    11 O    0.954
     9   6 C    3.942 --     8 C    1.342     4 C    1.317    10 O    1.084
    10   8 O    2.216 --     9 C    1.084     2 C    0.908
    11   8 O    2.244 --    12 C    1.023     8 C    0.954    13 O    0.117
    12   6 C    3.937 --    13 O    1.579    14 N    1.277    11 O    1.023
    13   8 O    1.908 --    12 C    1.579    14 N    0.175    11 O    0.117
    14   7 N    3.435 --    12 C    1.277    15 C    0.994    25 H    0.915
                            13 O    0.175
    15   6 C    3.945 --    14 N    0.994    26 H    0.978    28 H    0.974
                            27 H    0.973
    16   6 C    3.992 --     2 C    0.998    31 H    0.985    30 H    0.983
                            29 H    0.982
    17   1 H    0.997 --     1 C    0.984
    18   1 H    0.995 --     1 C    0.982
    19   1 H    0.996 --     1 C    0.983
    20   1 H    0.995 --     3 C    0.961
    21   1 H    0.995 --     3 C    0.959
    22   1 H    0.996 --     5 C    0.967
    23   1 H    0.995 --     6 C    0.968
    24   1 H    0.995 --     7 C    0.967
    25   1 H    0.942 --    14 N    0.915
    26   1 H    0.994 --    15 C    0.978
    27   1 H    0.992 --    15 C    0.973
    28   1 H    0.993 --    15 C    0.974
    29   1 H    0.995 --    16 C    0.982
    30   1 H    0.997 --    16 C    0.983
    31   1 H    0.998 --    16 C    0.985
 ---------------------------------------------------------------------------

Topologies differ in total number of bonds
Writing topology from bond orders to xtbtopo.mol

molecular dipole:
                 x           y           z       tot (Debye)
 q only:        0.241       0.547       0.847
   full:        0.105       0.479       0.987       2.802
molecular quadrupole (traceless):
                xx          xy          yy          xz          yz          zz
 q only:       20.342      -2.469      -3.591      -6.347      -0.506     -16.751
  q+dip:       20.523      -0.495      -3.217      -8.615       0.444     -17.306
   full:       19.710      -0.553      -3.890      -7.656       0.345     -15.820

           -------------------------------------------------
          |                Geometry Summary                 |
           -------------------------------------------------

      molecular mass/u    :      221.2528600
   center of mass at/Å    :        0.0525329      -0.0581766       0.0194686
  moments of inertia/u·Å² :        0.6941293E+03   0.1147393E+04   0.1645873E+04
rotational constants/cm⁻¹ :        0.2428601E-01   0.1469212E-01   0.1024237E-01

 * 29 selected distances

     #   Z          #   Z                                           value/Å
     1   6 C        2   6 C                                       1.5261634
     4   6 C        5   6 C                                       1.3768913
     5   6 C        6   6 C                                       1.3892991
     6   6 C        7   6 C                                       1.3834939
     7   6 C        8   6 C                                       1.3890555
     4   6 C        9   6 C                                       1.3945459
     8   6 C        9   6 C                                       1.3872090
     9   6 C       10   8 O                                       1.3506464
     8   6 C       11   8 O                                       1.3974209
    11   8 O       12   6 C                                       1.3629563
    12   6 C       13   8 O                                       1.2166192
    12   6 C       14   7 N                                       1.3350476
    14   7 N       15   6 C                                       1.4451662
     2   6 C       16   6 C                                       1.5275009 (max)
     1   6 C       17   1 H                                       1.0874869
     1   6 C       18   1 H                                       1.0855903
     1   6 C       19   1 H                                       1.0866583
     3   6 C       20   1 H                                       1.0897980
     3   6 C       21   1 H                                       1.0908767
     5   6 C       22   1 H                                       1.0781272
     6   6 C       23   1 H                                       1.0778075
     7   6 C       24   1 H                                       1.0781429
    14   7 N       25   1 H                                       1.0085902 (min)
    15   6 C       26   1 H                                       1.0881304
    15   6 C       27   1 H                                       1.0892154
    15   6 C       28   1 H                                       1.0895020
    16   6 C       29   1 H                                       1.0857077
    16   6 C       30   1 H                                       1.0868208
    16   6 C       31   1 H                                       1.0881442

 * 5 distinct bonds (by element types)

   Z      Z             #   av. dist./Å        max./Å        min./Å
   1 H    6 C          14     1.0858577     1.0908767     1.0778075
   6 C    6 C           8     1.4217699     1.5275009     1.3768913
   1 H    7 N           1     1.0085902     1.0085902     1.0085902
   6 C    7 N           2     1.3901069     1.4451662     1.3350476
   6 C    8 O           4     1.3319107     1.3974209     1.2166192

           -------------------------------------------------
          |               Frequency Printout                |
           -------------------------------------------------
 projected vibrational frequencies (cm⁻¹)
eigval :       -0.00    -0.00     0.00     0.00     0.00     0.00
eigval :       29.73    39.09    52.15    64.19   112.51   128.58
eigval :      138.40   189.90   205.71   214.25   230.24   241.91
eigval :      283.08   304.94   332.66   346.04   371.17   450.86
eigval :      486.53   497.29   513.48   514.35   527.91   572.29
eigval :      605.03   648.39   671.78   699.36   762.53   799.66
eigval :      811.76   846.03   885.32   903.13   905.74   920.34
eigval :      940.69   957.04   984.05  1007.21  1012.36  1072.70
eigval :     1088.82  1092.89  1104.56  1119.72  1130.56  1162.19
eigval :     1174.30  1184.86  1212.93  1234.08  1244.05  1259.86
eigval :     1286.15  1352.04  1387.84  1391.54  1402.95  1409.35
eigval :     1446.85  1455.77  1456.64  1463.92  1464.18  1469.74
eigval :     1476.45  1483.99  1498.07  1590.06  1603.18  1719.66
eigval :     2974.13  2995.26  2996.04  3006.77  3030.60  3034.73
eigval :     3041.22  3046.58  3048.23  3049.22  3053.82  3098.86
eigval :     3104.71  3114.64  3450.55
 reduced masses (amu)
   1: 11.62   2: 11.73   3: 11.67   4: 11.56   5: 11.52   6: 11.55   7:  9.81   8: 10.85
   9: 11.83  10: 12.07  11:  6.49  12: 10.98  13:  7.12  14:  1.85  15:  9.50  16:  8.20
  17:  7.47  18:  9.68  19: 10.73  20:  9.20  21:  9.64  22: 11.29  23: 11.01  24:  9.00
  25: 10.21  26:  4.40  27:  9.44  28: 10.75  29: 10.97  30: 11.24  31: 11.67  32: 12.14
  33: 12.31  34: 12.42  35: 11.83  36:  3.84  37: 12.93  38: 11.66  39:  3.80  40:  9.72
  41:  3.29  42:  6.02  43: 11.90  44:  4.21  45:  6.30  46:  4.26  47: 10.66  48:  9.73
  49:  5.97  50:  3.67  51:  3.44  52:  8.45  53:  7.34  54:  5.80  55:  2.29  56:  8.72
  57:  4.84  58:  8.73  59:  8.46  60:  7.34  61: 10.28  62: 10.84  63:  3.36  64:  2.63
  65:  3.15  66:  9.70  67:  4.61  68:  7.33  69:  2.39  70:  1.94  71:  4.65  72:  7.81
  73:  1.85  74:  1.60  75:  1.61  76: 11.74  77: 11.74  78: 13.11  79:  1.95  80:  1.96
  81:  1.54  82:  1.44  83:  1.85  84:  1.80  85:  1.74  86:  1.42  87:  1.89  88:  1.67
  89:  1.67  90:  1.77  91:  1.84  92:  1.91  93:  1.85
 IR intensities (km·mol⁻¹)
   1:  0.04   2:  0.05   3:  0.25   4:  0.06   5:  0.18   6:  0.17   7:  0.12   8:  6.86
   9:  6.07  10: 13.10  11:  1.46  12:  0.62  13:  3.04  14:  0.10  15:  2.04  16:  0.70
  17:  0.89  18:  4.37  19:  2.22  20:  1.76  21:  4.06  22: 15.29  23:  9.94  24:  0.88
  25:  1.79  26:101.91  27: 28.91  28:  9.80  29: 15.09  30:  2.70  31:  1.35  32:  8.26
  33: 31.67  34:  5.92  35: 19.01  36: 30.63  37: 29.99  38: 53.07  39:  0.64  40: 38.14
  41:  0.89  42:  3.54  43:116.71  44:  1.35  45:  4.82  46:  6.82  47:122.01  48:683.56
  49: 52.80  50: 13.60  51:  1.15  52: 13.69  53:189.84  54:133.27  55:  6.51  56: 31.66
  57: 22.05  58: 60.08  59: 33.79  60: 17.18  61:264.44  62: 61.99  63:  8.43  64: 16.82
  65:  6.73  66:456.38  67: 75.83  68:118.44  69: 42.77  70: 10.42  71:155.37  72: 16.10
  73:  8.01  74:  1.05  75:  2.31  76: 21.44  77: 33.52  78:902.14  79: 22.33  80: 22.30
  81: 29.90  82: 37.87  83: 44.45  84: 31.64  85: 10.28  86: 12.89  87: 15.77  88: 59.74
  89: 54.56  90:  4.68  91: 53.52  92: 62.15  93: 82.93
 Raman intensities (Ä⁴*amu⁻¹)
   1:  0.00   2:  0.00   3:  0.00   4:  0.00   5:  0.00   6:  0.00   7:  0.00   8:  0.00
   9:  0.00  10:  0.00  11:  0.00  12:  0.00  13:  0.00  14:  0.00  15:  0.00  16:  0.00
  17:  0.00  18:  0.00  19:  0.00  20:  0.00  21:  0.00  22:  0.00  23:  0.00  24:  0.00
  25:  0.00  26:  0.00  27:  0.00  28:  0.00  29:  0.00  30:  0.00  31:  0.00  32:  0.00
  33:  0.00  34:  0.00  35:  0.00  36:  0.00  37:  0.00  38:  0.00  39:  0.00  40:  0.00
  41:  0.00  42:  0.00  43:  0.00  44:  0.00  45:  0.00  46:  0.00  47:  0.00  48:  0.00
  49:  0.00  50:  0.00  51:  0.00  52:  0.00  53:  0.00  54:  0.00  55:  0.00  56:  0.00
  57:  0.00  58:  0.00  59:  0.00  60:  0.00  61:  0.00  62:  0.00  63:  0.00  64:  0.00
  65:  0.00  66:  0.00  67:  0.00  68:  0.00  69:  0.00  70:  0.00  71:  0.00  72:  0.00
  73:  0.00  74:  0.00  75:  0.00  76:  0.00  77:  0.00  78:  0.00  79:  0.00  80:  0.00
  81:  0.00  82:  0.00  83:  0.00  84:  0.00  85:  0.00  86:  0.00  87:  0.00  88:  0.00
  89:  0.00  90:  0.00  91:  0.00  92:  0.00  93:  0.00
 output can be read by thermo (or use thermo option).
 writing <g98.out> molden fake output.
 recommended (thermochemical) frequency scaling factor: 1.0
           -------------------------------------------------
          |             Thermodynamic Functions             |
           -------------------------------------------------

Molecule has no symmetry elements
It seems to be the C1 point group
c1  symmetry found (for desy threshold:  0.10E+00) used in thermo

          ...................................................
          :                      SETUP                      :
          :.................................................:
          :  # frequencies                          87      :
          :  # imaginary freq.                       0      :
          :  linear?                             false      :
          :  only rotor calc.                    false      :
          :  symmetry                               c1      :
          :  rotational number                       1      :
          :  scaling factor                  1.0000000      :
          :  rotor cutoff                    0.0000000 cm⁻¹ :
          :  imag. cutoff                 -100.0000000 cm⁻¹ :
          :.................................................:

    mode    ω/cm⁻¹     T·S(HO)/kcal·mol⁻¹    T·S(FR)/kcal·mol⁻¹   T·S(vib)
   ------------------------------------------------------------------------
       1     29.73    -1.74337 (100.00%)    -1.21040 (  0.00%)    -1.74337
       2     39.09    -1.58165 (100.00%)    -1.12939 (  0.00%)    -1.58165
       3     52.15    -1.41151 (100.00%)    -1.04401 (  0.00%)    -1.41151
       4     64.19    -1.28917 (100.00%)    -0.98245 (  0.00%)    -1.28917
       5    112.51    -0.96156 (100.00%)    -0.81625 (  0.00%)    -0.96156
       6    128.58    -0.88465 (100.00%)    -0.77670 (  0.00%)    -0.88465
       7    138.40    -0.84253 (100.00%)    -0.75491 (  0.00%)    -0.84253
       8    189.90    -0.66451 (100.00%)    -0.66120 (  0.00%)    -0.66451
       9    205.71    -0.62057 (100.00%)    -0.63751 (  0.00%)    -0.62057
      10    214.25    -0.59842 (100.00%)    -0.62546 (  0.00%)    -0.59842
      11    230.24    -0.55965 (100.00%)    -0.60414 (  0.00%)    -0.55965
      12    241.91    -0.53333 (100.00%)    -0.58950 (  0.00%)    -0.53333
      13    283.08    -0.45169 (100.00%)    -0.54294 (  0.00%)    -0.45169
   ------------------------------------------------------------------------

   temp. (K)  partition function   enthalpy   heat capacity  entropy
                                   cal/mol     cal/K/mol   cal/K/mol   J/K/mol
 298.15  VIB  0.644E+06             8286.932     54.373     54.375
         ROT  0.277E+07              888.752      2.981     32.458
         INT  0.178E+13             9175.685     57.354     86.833
         TR   0.318E+28             1481.254      4.968     42.066
         TOT                       10656.9385    62.3224   128.8987   539.3121

       T/K    H(0)-H(T)+PV         H(T)/Eh          T*S/Eh         G(T)/Eh
   ------------------------------------------------------------------------
    298.15    0.169829E-01    0.264604E+00    0.612439E-01    0.203360E+00
   ------------------------------------------------------------------------

         :::::::::::::::::::::::::::::::::::::::::::::::::::::
         ::                  THERMODYNAMIC                  ::
         :::::::::::::::::::::::::::::::::::::::::::::::::::::
         :: total free energy         -48.332499154154 Eh   ::
         ::.................................................::
         :: total energy              -48.535858960162 Eh   ::
         :: zero point energy           0.247620820691 Eh   ::
         :: G(RRHO) w/o ZPVE           -0.044261014683 Eh   ::
         :: G(RRHO) contrib.            0.203359806008 Eh   ::
         :::::::::::::::::::::::::::::::::::::::::::::::::::::

optimized geometry written to: xtbopt.coord


           -------------------------------------------------
          | TOTAL ENERGY              -48.535858960162 Eh   |
          | TOTAL ENTHALPY            -48.271255226929 Eh   |
          | TOTAL FREE ENERGY         -48.332499154154 Eh   |
          | GRADIENT NORM               0.000056058287 Eh/α |
          | HOMO-LUMO GAP               3.976823819518 eV   |
           -------------------------------------------------

------------------------------------------------------------------------
 * finished run on 2025/04/06 at 08:44:08.177     
------------------------------------------------------------------------
 total:
 * wall-time:     0 d,  0 h,  0 min,  5.393 sec
 *  cpu-time:     0 d,  0 h,  0 min,  5.314 sec
 * ratio c/w:     0.985 speedup
 SCF:
 * wall-time:     0 d,  0 h,  0 min,  0.033 sec
 *  cpu-time:     0 d,  0 h,  0 min,  0.032 sec
 * ratio c/w:     0.993 speedup
 ANC optimizer:
 * wall-time:     0 d,  0 h,  0 min,  1.008 sec
 *  cpu-time:     0 d,  0 h,  0 min,  0.989 sec
 * ratio c/w:     0.981 speedup
 analytical hessian:
 * wall-time:     0 d,  0 h,  0 min,  4.295 sec
 *  cpu-time:     0 d,  0 h,  0 min,  4.274 sec
 * ratio c/w:     0.995 speedup

