
                                 *****************
                                 * O   R   C   A *
                                 *****************

                                            #,                                       
                                            ###                                      
                                            ####                                     
                                            #####                                    
                                            ######                                   
                                           ########,                                 
                                     ,,################,,,,,                         
                               ,,#################################,,                 
                          ,,##########################################,,             
                       ,#########################################, ''#####,          
                    ,#############################################,,   '####,        
                  ,##################################################,,,,####,       
                ,###########''''           ''''###############################       
              ,#####''   ,,,,##########,,,,          '''####'''          '####       
            ,##' ,,,,###########################,,,                        '##       
           ' ,,###''''                  '''############,,,                           
         ,,##''                                '''############,,,,        ,,,,,,###''
      ,#''                                            '''#######################'''  
     '                                                          ''''####''''         
             ,#######,   #######,   ,#######,      ##                                
            ,#'     '#,  ##    ##  ,#'     '#,    #''#        ,####,   ,####,        
            ##       ##  ##   ,#'  ##            #'  '#       #'       #'  '#        
            ##       ##  #######   ##           ,######,      #####,   #    #        
            '#,     ,#'  ##    ##  '#,     ,#' ,#      #,     #,   #   #,  ,#        
             '#######'   ##     ##  '#######'  #'      '#     '####' # '####'        



                #########################################################
                #                        -***-                          #
                #          Department of theory and spectroscopy        #
                #                                                       #
                #                      Frank Neese                      #
                #                                                       #
                #     Directorship, Architecture, Infrastructure        #
                #                    SHARK, DRIVERS                     #
                #        Core code/Algorithms in most modules           #
                #                                                       #
                #        Max Planck Institute fuer Kohlenforschung      #
                #                Kaiser Wilhelm Platz 1                 #
                #                 D-45470 Muelheim/Ruhr                 #
                #                      Germany                          #
                #                                                       #
                #                  All rights reserved                  #
                #                        -***-                          #
                #########################################################


                         Program Version 6.0.0  -   RELEASE  -


 With contributions from (in alphabetic order):
   Daniel Aravena         : Magnetic Suceptibility
   Michael Atanasov       : Ab Initio Ligand Field Theory (pilot matlab implementation)
   Alexander A. Auer      : GIAO ZORA, VPT2 properties, NMR spectrum
   Ute Becker             : All parallelization in ORCA, NUMFREQ, NUMCALC
   Giovanni Bistoni       : ED, misc. LED, open-shell LED, HFLD
   Martin Brehm           : Molecular dynamics
   Dmytro Bykov           : pre 5.0 version of the SCF Hessian
   Marcos Casanova-Páez   : Triplet and SCS-CIS(D). UHF-(DLPNO)-IP/EA/STEOM-CCSD. UHF-CVS-IP/STEOM-CCSD
   Vijay G. Chilkuri      : MRCI spin determinant printing, contributions to CSF-ICE
   Pauline Colinet        : FMM embedding
   Dipayan Datta          : RHF DLPNO-CCSD density
   Achintya Kumar Dutta   : EOM-CC, STEOM-CC
   Nicolas Foglia         : Exact transition moments, OPA infrastructure, MCD improvements
   Dmitry Ganyushin       : Spin-Orbit,Spin-Spin,Magnetic field MRCI
   Miquel Garcia          : C-PCM and meta-GGA Hessian, CCSD/C-PCM, Gaussian charge scheme
   Tiago L. C. Gouveia    : GS-ROHF, GS-ROCIS
   Yang Guo               : DLPNO-NEVPT2, F12-NEVPT2, CIM, IAO-localization
   Andreas Hansen         : Spin unrestricted coupled pair/coupled cluster methods
   Ingolf Harden          : AUTO-CI MPn and infrastructure 
   Benjamin Helmich-Paris : MC-RPA, TRAH-(SCF,CASSCF), AVAS, COSX integrals, SCF dyn. polar.
   Lee Huntington         : MR-EOM, pCC
   Robert Izsak           : Overlap fitted RIJCOSX, COSX-SCS-MP3, EOM
   Riya Kayal             : Wick's Theorem for AUTO-CI, AUTO-CI UHF-CCSDT
   Emily Kempfer          : AUTO-CI, RHF CISDT and CCSDT
   Christian Kollmar      : KDIIS, OOCD, Brueckner-CCSD(T), CCSD density, CASPT2, CASPT2-K, improved NEVPT2
   Axel Koslowski         : Symmetry handling
   Simone Kossmann        : Meta GGA functionals, TD-DFT gradient, OOMP2, (MP2 Hessian; deprecated post 5.0)
   Lucas Lang             : DCDCAS
   Marvin Lechner         : AUTO-CI (C++ implementation), FIC-MRCC
   Spencer Leger          : CASSCF response
   Dagmar Lenk            : GEPOL surface, SMD, ORCA-2-JSON
   Dimitrios Liakos       : Extrapolation schemes; Compound Job, initial MDCI parallelization
   Dimitrios Manganas     : Further ROCIS development; embedding schemes. LFT, Crystal Embedding
   Dimitrios Pantazis     : SARC Basis sets
   Anastasios Papadopoulos: AUTO-CI, single reference methods and gradients
   Taras Petrenko         : pre 6.0 DFT Hessian and TD-DFT gradient, (ASA, deprecated), ECA, 1-Electron XAS/XES, NRVS
   Peter Pinski           : DLPNO-MP2, DLPNO-MP2 Gradient
   Christoph Reimann      : Effective Core Potentials
   Marius Retegan         : Local ZFS, SOC
   Christoph Riplinger    : Optimizer, TS searches, QM/MM, DLPNO-CCSD(T), (RO)-DLPNO pert. Triples
   Michael Roemelt        : Original ROCIS implementation
   Masaaki Saitow         : Open-shell DLPNO-CCSD energy and density
   Barbara Sandhoefer     : DKH picture change effects
   Kantharuban Sivalingam : CASSCF convergence/infrastructure, NEVPT2 and variants, FIC-MRCI
   Bernardo de Souza      : ESD, SOC TD-DFT
   Georgi Stoychev        : AutoAux, RI-MP2 NMR, DLPNO-MP2 response, X2C
   Van Anh Tran           : RI-MP2 g-tensors
   Willem Van den Heuvel  : Paramagnetic NMR
   Zikuan Wang            : NOTCH, Electric field optimization 
   Frank Wennmohs         : Technical directorship and infrastructure
   Hang Xu                : AUTO-CI-Response properties 


 We gratefully acknowledge several colleagues who have allowed us to
 interface, adapt or use parts of their codes:
   Stefan Grimme, W. Hujo, H. Kruse, P. Pracht,  : VdW corrections, initial TS optimization,
                  C. Bannwarth, S. Ehlert,         DFT functionals, gCP, sTDA/sTD-DF
                  L. Wittmann, M. Mueller
   Ed Valeev, F. Pavosevic, A. Kumar             : LibInt (2-el integral package), F12 methods
   Garnet Chan, S. Sharma, J. Yang, R. Olivares  : DMRG
   Ulf Ekstrom                                   : XCFun DFT Library
   Mihaly Kallay                                 : mrcc  (arbitrary order and MRCC methods)
   Frank Weinhold                                : gennbo (NPA and NBO analysis)
   Simon Mueller                                 : openCOSMO-RS
   Christopher J. Cramer and Donald G. Truhlar   : smd solvation model
   Lars Goerigk                                  : TD-DFT with DH, B97 family of functionals
   V. Asgeirsson, H. Jonsson                     : NEB implementation
   FAccTs GmbH                                   : IRC, NEB, NEB-TS, DLPNO-Multilevel, CI-OPT
                                                   MM, QMMM, 2- and 3-layer-ONIOM, Crystal-QMMM,
                                                   LR-CPCM, SF, NACMEs, symmetry and pop. for TD-DFT,
                                                   nearIR, NL-DFT gradient (VV10), updates on ESD,
                                                   ML-optimized integration grids, MBIS, APM,
                                                   GOAT, DOCKER, SOLVATOR, interface openCOSMO-RS
   S Lehtola, MJT Oliveira, MAL Marques          : LibXC Library
   Liviu Ungur et al                             : ANISO software


 Your calculation uses the libint2 library for the computation of 2-el integrals
 For citations please refer to: http://libint.valeyev.net

 Your ORCA version has been built with support for libXC version: 6.2.2
 For citations please refer to: https://libxc.gitlab.io

 This ORCA versions uses:
   CBLAS   interface :  Fast vector & matrix operations
   LAPACKE interface :  Fast linear algebra routines
   SCALAPACK package :  Parallel linear algebra routines
   Shared memory     :  Shared parallel matrices
   BLAS/LAPACK       :  OpenBLAS 0.3.27  USE64BITINT DYNAMIC_ARCH NO_AFFINITY SkylakeX SINGLE_THREADED
        Core in use  :  SkylakeX
   Copyright (c) 2011-2014, The OpenBLAS Project


Your calculation utilizes the geometrical counterpoise correction gCP
Please cite in your paper:
H.Kruse, S. Grimme J.Chem.Phys., 136, (2012), 154101 
   

Your calculation utilizes the DFT-NL dispersion correction.
Cite in your paper:
Vydrov, O. A.; Van Voorhis, T. J. Chem. Phys. 2010, 133, 244103
Hujo, W.; Grimme, S. J. Chem. Theory Comput. 2011, 7, 3866 
   

================================================================================

----- Orbital basis set information -----
Your calculation utilizes the basis: def2-TZVP
   F. Weigend and R. Ahlrichs, Phys. Chem. Chem. Phys. 7, 3297 (2005).

----- AuxJ basis set information -----
Your calculation utilizes the auxiliary basis: def2/J
   F. Weigend, Phys. Chem. Chem. Phys. 8, 1057 (2006).

================================================================================
                                        WARNINGS
                       Please study these warnings very carefully!
================================================================================


================================================================================
                                       INPUT FILE
================================================================================
NAME = sp_gas.inp
|  1> ! wb97x-v def2-tzvp def2/J RIJCOSX DEFGRID2 scfconv7 GCP(DFT/TZ) printgap
|  2> %output
|  3>     printlevel normal
|  4> end
|  5> * xyz 0 1
|  6> C -2.1752891930762353 0.007767411001350187 6.2156467975772424e-06
|  7> C -0.879219094811233 0.8153321506977462 2.6155765835128704e-05
|  8> C 0.43177451865207794 0.0005556884842006354 -3.761158405045618e-07
|  9> C 1.6048591597716788 0.9886336503337041 2.1697975964673744e-05
| 10> C 0.5222436526366074 -0.8805684269558908 -1.2519285243149305
| 11> C 0.5222551087769752 -0.8806555113050898 1.2518604027410019
| 12> H -2.2576530539259982 -0.6308534605490927 0.8855332773077993
| 13> H -3.0410570478873273 0.678480334172981 -0.0003370550066061487
| 14> H -2.257320880123269 -0.6313280078575885 -0.8852096685211283
| 15> H -0.8684292465503639 1.4740923261553305 0.8793911895189468
| 16> H -0.8684205766370207 1.4741343183980322 -0.8793059994173225
| 17> H 1.5755731975452254 1.6334649301512851 -0.8864679887940429
| 18> H 2.563807378845147 0.4576251952914427 -3.727685668892025e-05
| 19> H 1.575624488019678 1.6333667936887566 0.8865838189602512
| 20> H 0.40956391908292533 -0.28088649119352266 -2.163225035614007
| 21> H 1.495121671048058 -1.3836757946502773 -1.2970964902456925
| 22> H -0.2514974292802759 -1.655229089627932 -1.2575177088063612
| 23> H 1.4949775713476718 -1.384085570191049 1.2967841531427553
| 24> H -0.25174268144074324 -1.6550581812802623 1.2575790226319725
| 25> H 0.4099754513647483 -0.2809807474034732 2.1632095000445855
| 26> *
| 27> 
| 28>                          ****END OF INPUT****
================================================================================

                       ****************************
                       * Single Point Calculation *
                       ****************************

---------------------------------
CARTESIAN COORDINATES (ANGSTROEM)
---------------------------------
  C     -2.175289    0.007767    0.000006
  C     -0.879219    0.815332    0.000026
  C      0.431775    0.000556   -0.000000
  C      1.604859    0.988634    0.000022
  C      0.522244   -0.880568   -1.251929
  C      0.522255   -0.880656    1.251860
  H     -2.257653   -0.630853    0.885533
  H     -3.041057    0.678480   -0.000337
  H     -2.257321   -0.631328   -0.885210
  H     -0.868429    1.474092    0.879391
  H     -0.868421    1.474134   -0.879306
  H      1.575573    1.633465   -0.886468
  H      2.563807    0.457625   -0.000037
  H      1.575624    1.633367    0.886584
  H      0.409564   -0.280886   -2.163225
  H      1.495122   -1.383676   -1.297096
  H     -0.251497   -1.655229   -1.257518
  H      1.494978   -1.384086    1.296784
  H     -0.251743   -1.655058    1.257579
  H      0.409975   -0.280981    2.163210

----------------------------
CARTESIAN COORDINATES (A.U.)
----------------------------
  NO LB      ZA    FRAG     MASS         X           Y           Z
   0 C     6.0000    0    12.011   -4.110701    0.014678    0.000012
   1 C     6.0000    0    12.011   -1.661483    1.540754    0.000049
   2 C     6.0000    0    12.011    0.815936    0.001050   -0.000001
   3 C     6.0000    0    12.011    3.032744    1.868247    0.000041
   4 C     6.0000    0    12.011    0.986897   -1.664033   -2.365802
   5 C     6.0000    0    12.011    0.986919   -1.664198    2.365673
   6 H     1.0000    0     1.008   -4.266346   -1.192140    1.673415
   7 H     1.0000    0     1.008   -5.746765    1.282142   -0.000637
   8 H     1.0000    0     1.008   -4.265718   -1.193037   -1.672804
   9 H     1.0000    0     1.008   -1.641093    2.785631    1.661809
  10 H     1.0000    0     1.008   -1.641077    2.785710   -1.661648
  11 H     1.0000    0     1.008    2.977402    3.086801   -1.675182
  12 H     1.0000    0     1.008    4.844894    0.864786   -0.000070
  13 H     1.0000    0     1.008    2.977499    3.086616    1.675401
  14 H     1.0000    0     1.008    0.773964   -0.530799   -4.087903
  15 H     1.0000    0     1.008    2.825370   -2.614768   -2.451157
  16 H     1.0000    0     1.008   -0.475261   -3.127930   -2.376364
  17 H     1.0000    0     1.008    2.825098   -2.615543    2.450567
  18 H     1.0000    0     1.008   -0.475725   -3.127607    2.376480
  19 H     1.0000    0     1.008    0.774741   -0.530977    4.087874

--------------------------------
INTERNAL COORDINATES (ANGSTROEM)
--------------------------------
 C      0   0   0     0.000000000000     0.00000000     0.00000000
 C      1   0   0     1.527075148385     0.00000000     0.00000000
 C      2   1   0     1.543555939583   116.21273317     0.00000000
 C      3   2   1     1.533761922337   108.03212588   179.99986902
 C      3   2   1     1.533586795479   110.69532555    60.76592410
 C      3   2   1     1.533582513419   110.69589164   299.23475590
 H      1   2   3     1.094887482844   111.85690341    60.62669342
 H      1   2   3     1.095175749169   110.30844217   180.02033828
 H      1   2   3     1.094887808714   111.85645409   299.41355970
 H      2   1   3     1.098801279660   108.98937013   237.81538654
 H      2   1   3     1.098800229023   108.98975297   122.18382215
 H      4   3   2     1.096598838119   111.00081450   300.01042058
 H      4   3   2     1.096153123276   110.91781125   180.00231113
 H      4   3   2     1.096598325066   111.00091018    59.99392094
 H      5   3   2     1.096711665817   110.98356376    54.88370127
 H      5   3   2     1.096197430796   110.46812949   174.56343800
 H      5   3   2     1.094899832460   111.65296792   294.25222929
 H      6   3   2     1.096197498962   110.46878724   185.41350096
 H      6   3   2     1.094899436999   111.65192659    65.72464238
 H      6   3   2     1.096710408944   110.98341104   305.09380742

---------------------------
INTERNAL COORDINATES (A.U.)
---------------------------
 C      0   0   0     0.000000000000     0.00000000     0.00000000
 C      1   0   0     2.885753816365     0.00000000     0.00000000
 C      2   1   0     2.916897998200   116.21273317     0.00000000
 C      3   2   1     2.898389987853   108.03212588   179.99986902
 C      3   2   1     2.898059046053   110.69532555    60.76592410
 C      3   2   1     2.898050954132   110.69589164   299.23475590
 H      1   2   3     2.069037490033   111.85690341    60.62669342
 H      1   2   3     2.069582234442   110.30844217   180.02033828
 H      1   2   3     2.069038105838   111.85645409   299.41355970
 H      2   1   3     2.076433494159   108.98937013   237.81538654
 H      2   1   3     2.076431508743   108.98975297   122.18382215
 H      4   3   2     2.072271482821   111.00081450   300.01042058
 H      4   3   2     2.071429203835   110.91781125   180.00231113
 H      4   3   2     2.072270513291   111.00091018    59.99392094
 H      5   3   2     2.072484696271   110.98356376    54.88370127
 H      5   3   2     2.071512932912   110.46812949   174.56343800
 H      5   3   2     2.069060827425   111.65296792   294.25222929
 H      6   3   2     2.071513061727   110.46878724   185.41350096
 H      6   3   2     2.069060080112   111.65192659    65.72464238
 H      6   3   2     2.072482321124   110.98341104   305.09380742

---------------------
BASIS SET INFORMATION
---------------------
There are 2 groups of distinct atoms

 Group   1 Type C   : 11s6p2d1f contracted to 5s3p2d1f pattern {62111/411/11/1}
 Group   2 Type H   : 5s1p contracted to 3s1p pattern {311/1}

Atom   0C    basis set group =>   1
Atom   1C    basis set group =>   1
Atom   2C    basis set group =>   1
Atom   3C    basis set group =>   1
Atom   4C    basis set group =>   1
Atom   5C    basis set group =>   1
Atom   6H    basis set group =>   2
Atom   7H    basis set group =>   2
Atom   8H    basis set group =>   2
Atom   9H    basis set group =>   2
Atom  10H    basis set group =>   2
Atom  11H    basis set group =>   2
Atom  12H    basis set group =>   2
Atom  13H    basis set group =>   2
Atom  14H    basis set group =>   2
Atom  15H    basis set group =>   2
Atom  16H    basis set group =>   2
Atom  17H    basis set group =>   2
Atom  18H    basis set group =>   2
Atom  19H    basis set group =>   2
---------------------------------
AUXILIARY/J BASIS SET INFORMATION
---------------------------------
There are 2 groups of distinct atoms

 Group   1 Type C   : 12s5p4d2f1g contracted to 6s4p3d1f1g pattern {711111/2111/211/2/1}
 Group   2 Type H   : 5s2p1d contracted to 3s1p1d pattern {311/2/1}

Atom   0C    basis set group =>   1
Atom   1C    basis set group =>   1
Atom   2C    basis set group =>   1
Atom   3C    basis set group =>   1
Atom   4C    basis set group =>   1
Atom   5C    basis set group =>   1
Atom   6H    basis set group =>   2
Atom   7H    basis set group =>   2
Atom   8H    basis set group =>   2
Atom   9H    basis set group =>   2
Atom  10H    basis set group =>   2
Atom  11H    basis set group =>   2
Atom  12H    basis set group =>   2
Atom  13H    basis set group =>   2
Atom  14H    basis set group =>   2
Atom  15H    basis set group =>   2
Atom  16H    basis set group =>   2
Atom  17H    basis set group =>   2
Atom  18H    basis set group =>   2
Atom  19H    basis set group =>   2

Checking for AutoStart:
The File: sp_gas.gbw exists
Trying to determine its content:
     ... Fine, the file contains calculation information
     ... Fine, the calculation information was read
     ... Fine, the file contains a basis set
     ... Fine, the basis set was read
     ... Fine, the file contains a geometry
     ... Fine, the geometry was read
     ... Fine, the file contains a set of orbitals
     ... Fine, the orbitals can be read
     => possible old guess file was deleted
     => GBW file was renamed to GES file
     => GES file is set as startup file
     => Guess is set to MORead
     ... now leaving AutoStart

------------------------------------------------------------------------------
                             ORCA STARTUP CALCULATIONS
                           -- RI-GTO INTEGRALS CHOSEN --
------------------------------------------------------------------------------
------------------------------------------------------------------------------
                   ___                                                        
                  /   \      - P O W E R E D   B Y -                         
                 /     \                                                     
                 |  |  |   _    _      __       _____    __    __             
                 |  |  |  | |  | |    /  \     |  _  \  |  |  /  |          
                  \  \/   | |  | |   /    \    | | | |  |  | /  /          
                 / \  \   | |__| |  /  /\  \   | |_| |  |  |/  /          
                |  |  |   |  __  | /  /__\  \  |    /   |      \           
                |  |  |   | |  | | |   __   |  |    \   |  |\   \          
                \     /   | |  | | |  |  |  |  | |\  \  |  | \   \       
                 \___/    |_|  |_| |__|  |__|  |_| \__\ |__|  \__/        
                                                                              
                      - O R C A' S   B I G   F R I E N D -                    
                                      &                                       
                       - I N T E G R A L  F E E D E R -                       
                                                                              
 v1 FN, 2020, v2 2021, v3 2022-2024                                           
------------------------------------------------------------------------------


----------------------
SHARK INTEGRAL PACKAGE
----------------------

Number of atoms                             ...     20
Number of basis functions                   ...    270
Number of shells                            ...    122
Maximum angular momentum                    ...      3
Integral batch strategy                     ... SHARK/LIBINT Hybrid
RI-J (if used) integral strategy            ... SPLIT-RIJ (Revised 2003 algorithm where possible)
Printlevel                                  ...      1
Contraction scheme used                     ... SEGMENTED contraction
Prescreening option                         ... SCHWARTZ
   Thresh                                   ... 3.000e-11
   Tcut                                     ... 1.000e-12
   Tpresel                                  ... 1.000e-12 
Coulomb Range Separation                    ... NOT USED
Exchange Range Separation                   ... Long Range
   Mu parameter                             ... 3.000e-01
   Scaling (regular/separated)              ... 1.670e-01 8.330e-01
Multipole approximations                    ... NOT USED
Finite Nucleus Model                        ... NOT USED
CABS basis                                  ... NOT available
Auxiliary Coulomb fitting basis             ... AVAILABLE
   # of basis functions in Aux-J            ...    448
   # of shells in Aux-J                     ...    160
   Maximum angular momentum in Aux-J        ...      4
Auxiliary J/K fitting basis                 ... NOT available
Auxiliary Correlation fitting basis         ... NOT available
Auxiliary 'external' fitting basis          ... NOT available

Checking pre-screening integrals            ... done (  0.0 sec) Dimension = 122
Check shell pair data                       ... done (  0.0 sec)
Shell pair information
Shell pair cut-off parameter TPreSel        ...   1.0e-12
Total number of shell pairs                 ...      7503
Shell pairs after pre-screening             ...      7202
Total number of primitive shell pairs       ...     21084
Primitive shell pairs kept                  ...     15953
          la=0 lb=0:   2451 shell pairs
          la=1 lb=0:   2216 shell pairs
          la=1 lb=1:    518 shell pairs
          la=2 lb=0:    846 shell pairs
          la=2 lb=1:    382 shell pairs
          la=2 lb=2:     78 shell pairs
          la=3 lb=0:    426 shell pairs
          la=3 lb=1:    192 shell pairs
          la=3 lb=2:     72 shell pairs
          la=3 lb=3:     21 shell pairs

Calculating one electron integrals          ... done (  0.0 sec)
Calculating RI/J V-Matrix + Cholesky decomp.... done (  0.1 sec)
Calculating Nuclear repulsion               ... done (  0.0 sec) ENN=    266.182688694416 Eh

Diagonalization of the overlap matrix:
Smallest eigenvalue                        ... 1.742e-04
Time for diagonalization                   ...    0.007 sec
Threshold for overlap eigenvalues          ... 1.000e-07
Number of eigenvalues below threshold      ... 0
Time for construction of square roots      ...    0.016 sec
Total time needed                          ...    0.030 sec

-------------------
DFT GRID GENERATION
-------------------

General Integration Accuracy     IntAcc      ... 4.388
Radial Grid Type                 RadialGrid  ... OptM3 with GC (2021)
Angular Grid (max. ang.)         AngularGrid ... 4 (Lebedev-302)
Angular grid pruning method      GridPruning ... 4 (adaptive)
Weight generation scheme         WeightScheme... mBecke (2022)
Basis function cutoff            BFCut       ... 1.0000e-11
Integration weight cutoff        WCut        ... 1.0000e-14
Partially contracted basis set               ... off
Rotationally invariant grid construction     ... off
Angular grids for H and He will be reduced by one unit

Total number of grid points                  ...    80633
Total number of batches                      ...     1270
Average number of points per batch           ...       63
Average number of grid points per atom       ...     4032

--------------------
COSX GRID GENERATION
--------------------

GRIDX 1
-------
General Integration Accuracy     IntAcc      ... 3.816
Radial Grid Type                 RadialGrid  ... OptM3 with GC (2021)
Angular Grid (max. ang.)         AngularGrid ... 1 (Lebedev-50)
Angular grid pruning method      GridPruning ... 4 (adaptive)
Weight generation scheme         WeightScheme... mBecke (2022)
Basis function cutoff            BFCut       ... 1.0000e-11
Integration weight cutoff        WCut        ... 1.0000e-14
Partially contracted basis set               ... on
Rotationally invariant grid construction     ... off
Angular grids for H and He will be reduced by one unit

Total number of grid points                  ...    10331
Total number of batches                      ...       90
Average number of points per batch           ...      114
Average number of grid points per atom       ...      517
UseSFitting                                  ... on

GRIDX 2
-------
General Integration Accuracy     IntAcc      ... 4.020
Radial Grid Type                 RadialGrid  ... OptM3 with GC (2021)
Angular Grid (max. ang.)         AngularGrid ... 2 (Lebedev-110)
Angular grid pruning method      GridPruning ... 4 (adaptive)
Weight generation scheme         WeightScheme... mBecke (2022)
Basis function cutoff            BFCut       ... 1.0000e-11
Integration weight cutoff        WCut        ... 1.0000e-14
Partially contracted basis set               ... on
Rotationally invariant grid construction     ... off
Angular grids for H and He will be reduced by one unit

Total number of grid points                  ...    21138
Total number of batches                      ...      178
Average number of points per batch           ...      118
Average number of grid points per atom       ...     1057
UseSFitting                                  ... on

GRIDX 3
-------
General Integration Accuracy     IntAcc      ... 4.338
Radial Grid Type                 RadialGrid  ... OptM3 with GC (2021)
Angular Grid (max. ang.)         AngularGrid ... 3 (Lebedev-194)
Angular grid pruning method      GridPruning ... 4 (adaptive)
Weight generation scheme         WeightScheme... mBecke (2022)
Basis function cutoff            BFCut       ... 1.0000e-11
Integration weight cutoff        WCut        ... 1.0000e-14
Partially contracted basis set               ... on
Rotationally invariant grid construction     ... off
Angular grids for H and He will be reduced by one unit

Total number of grid points                  ...    46021
Total number of batches                      ...      370
Average number of points per batch           ...      124
Average number of grid points per atom       ...     2301
UseSFitting                                  ... on
Initializing property integral containers    ... done (  0.0 sec)

SHARK setup successfully completed in   2.4 seconds

Maximum memory used throughout the entire STARTUP-calculation: 42.5 MB
-------------------------------------------------------------------------------
                                 ORCA GUESS
                   Start orbitals & Density for SCF / CASSCF
-------------------------------------------------------------------------------

------------
SCF SETTINGS
------------
Hamiltonian:
 Density Functional     Method          .... DFT(GTOs)
 Exchange Functional    Exchange        .... WB97X-V
 Correlation Functional Correlation     .... WB97X-V
 Gradients option       PostSCFGGA      .... off
 Hybrid DFT is turned on
   Fraction HF Exchange ScalHFX         ....  0.167000
   Scaling of DF-GGA-X  ScalDFX         ....  0.000000
   Scaling of DF-GGA-C  ScalDFC         ....  1.000000
   Scaling of DF-LDA-C  ScalLDAC        ....  1.000000
   Perturbative correction              ....  0.000000
 Long-range corrected/Screened/Range-Separated Hybrid DFT is turned on
   Amount of maximum screened exact exchange              ....  0.833000
   Range separation parameter mu (erf(mu*r12)/r12)        ....  0.300000
   NL short-range parameter             ....  6.000000
   NL long-range parameter              ....  0.010000
 RI-approximation to the Coulomb term is turned on
   Number of AuxJ basis functions       .... 448
   RIJ-COSX (HFX calculated with COS-X)).... on


General Settings:
 Integral files         IntName         .... sp_gas
 Hartree-Fock type      HFTyp           .... RHF
 Total Charge           Charge          ....    0
 Multiplicity           Mult            ....    1
 Number of Electrons    NEL             ....   50
 Basis Dimension        Dim             ....  270
 Nuclear Repulsion      ENuc            ....    266.1826886944 Eh

Convergence Acceleration:
 AO-DIIS                CNVDIIS         .... on
   Start iteration      DIISMaxIt       ....    12
   Startup error        DIISStart       ....  0.200000
   # of expansion vecs  DIISMaxEq       ....     5
   Bias factor          DIISBfac        ....   1.050
   Max. coefficient     DIISMaxC        ....  10.000
 MO-DIIS                CNVKDIIS        .... off
 Trust-Rad. Augm. Hess. CNVTRAH         .... auto
   Auto Start mean grad. ratio tolernc. ....  1.125000
   Auto Start start iteration           ....     1
   Auto Start num. interpolation iter.  ....    10
   Max. Number of Micro iterations      ....    24
   Max. Number of Macro iterations      .... Maxiter - #DIIS iter
   Number of Davidson start vectors     ....     2
   Converg. threshold    (grad. norm)   ....   1.000e-04
   Grad. Scal. Fac. for Micro threshold ....   0.100
   Minimum threshold for Micro iter.    ....   1.000e-02
   NR start threshold (gradient norm)   ....   1.000e-04
   Initial trust radius                 ....   0.400
   Minimum AH scaling param. (alpha)    ....   1.000
   Maximum AH scaling param. (alpha)    .... 1000.000
   Quad. conv. algorithm                .... NR
   White noise on init. David. guess    .... on
   Maximum white noise                  ....   0.010
   Pseudo random numbers                .... off
   Inactive MOs                         .... canonical
   Orbital update algorithm             .... Taylor
   Preconditioner                       .... Diag
   Full preconditioner red. dimension   ....   250
 SOSCF                  CNVSOSCF        .... on
   Start iteration      SOSCFMaxIt      ....   150
   Startup grad/error   SOSCFStart      ....  0.003300
   Hessian update       SOSCFHessUp     .... L-BFGS
 Level Shifting         CNVShift        .... on
   Level shift para.    LevelShift      ....    0.2500
   Turn off err/grad.   ShiftErr        ....    0.0010
 Zerner damping         CNVZerner       .... off
 Static damping         CNVDamp         .... on
   Fraction old density DampFac         ....    0.7000
   Max. Damping (<1)    DampMax         ....    0.9800
   Min. Damping (>=0)   DampMin         ....    0.0000
   Turn off err/grad.   DampErr         ....    0.1000

SCF Procedure:
 Maximum # iterations   MaxIter         ....   125
 SCF integral mode      SCFMode         .... Direct
   Integral package                     .... SHARK and LIBINT hybrid scheme
 Reset frequency        DirectResetFreq ....    20
 Integral Threshold     Thresh          ....  3.000e-11 Eh
 Primitive CutOff       TCut            ....  1.000e-12 Eh

Convergence Tolerance:
 Convergence Check Mode ConvCheckMode   .... Total+1el-Energy
 Convergence forced     ConvForced      .... 0
 Energy Change          TolE            ....  1.000e-07 Eh
 1-El. energy change                    ....  1.000e-04 Eh
 Orbital Gradient       TolG            ....  1.000e-04
 Orbital Rotation angle TolX            ....  1.000e-04
 DIIS Error             TolErr          ....  1.000e-07

---------------------
INITIAL GUESS: MOREAD
---------------------
Guess MOs are being read from file: sp_gas.ges
Input Geometry matches current geometry (good)
Atom 0: N(Shells)= 11 and 9 - projection required
Input basis set needs projection
NBasis(read)= 184
NBasis(calc)= 270
Basis set overlap was calculated
Using GuessMode=FMatrix for the initial guess
C*T matrix was formed
Effective Fockian was calculated
Effective Fockian was diagonalized
Initial density was built
                      ------------------
                      INITIAL GUESS DONE (   0.0 sec)
                      ------------------
             **** ENERGY FILE WAS UPDATED (sp_gas.en.tmp) ****
Finished Guess after   0.3 sec
Maximum memory used throughout the entire GUESS-calculation: 23.1 MB

-------------------------------------------------------------------------------------------
                                      ORCA LEAN-SCF
                              memory conserving SCF solver
-------------------------------------------------------------------------------------------

----------------------------------------D-I-I-S--------------------------------------------
Iteration    Energy (Eh)           Delta-E    RMSDP     MaxDP     DIISErr   Damp  Time(sec)
-------------------------------------------------------------------------------------------
               ***  Starting incremental Fock matrix formation  ***
    1    -237.2776490856188047     0.00e+00  7.43e-04  2.11e-02  3.28e-02  0.700  16.3
    2    -237.2804820423621095    -2.83e-03  6.49e-04  1.70e-02  2.28e-02  0.700   8.4
                               ***Turning on AO-DIIS***
    3    -237.2826543406666246    -2.17e-03  5.49e-04  1.33e-02  1.59e-02  0.700   8.3
    4    -237.2842678220998778    -1.61e-03  1.39e-03  3.20e-02  1.12e-02  0.000   8.3
                              *** Initializing SOSCF ***
---------------------------------------S-O-S-C-F--------------------------------------
Iteration    Energy (Eh)           Delta-E    RMSDP     MaxDP     MaxGrad    Time(sec)
--------------------------------------------------------------------------------------
    5    -237.2884486622881468    -4.18e-03  7.01e-05  2.01e-03  5.98e-04     8.6
               *** Restarting incremental Fock matrix formation ***
    6    -237.2884413888316999     7.27e-06  2.93e-05  8.91e-04  1.09e-04    16.0
    7    -237.2884426855731590    -1.30e-06  1.35e-05  4.00e-04  4.51e-05    12.0
    8    -237.2884427806169469    -9.50e-08  2.91e-06  9.56e-05  1.99e-05    11.3
                 **** Energy Check signals convergence ****

               *****************************************************
               *                     SUCCESS                       *
               *           SCF CONVERGED AFTER   8 CYCLES          *
               *****************************************************


------------------
NL GRID GENERATION
------------------

General Integration Accuracy     IntAcc      ... 4.004
Radial Grid Type                 RadialGrid  ... OptM3 with GC (2021)
Angular Grid (max. ang.)         AngularGrid ... 2 (Lebedev-110)
Angular grid pruning method      GridPruning ... 4 (adaptive)
Weight generation scheme         WeightScheme... mBecke (2022)
Basis function cutoff            BFCut       ... 1.0000e-10
Integration weight cutoff        WCut        ... 1.0000e-14
Partially contracted basis set               ... off
Rotationally invariant grid construction     ... off
Angular grids for H and He will be reduced by one unit

Total number of grid points                  ...    23316
Total number of batches                      ...      376
Average number of points per batch           ...       62
Average number of grid points per atom       ...     1166
Final grid set up in    0.2 sec

-------------------------------------------------------------------------------
                    post-SCF DFT-NL dispersion correction                      
-------------------------------------------------------------------------------

SCF Energy:     -237.288442781 
NL    Energy:      0.187567965 
SC+NL Energy:   -237.100874816 
NL done in  :              2.1 sec
-------------------------------------------------------------------------------
Recomputing exchange energy using gridx3       ... done (   28.693 sec)
Old exchange energy                            :    -12.497485982 Eh
New exchange energy                            :    -12.497470834 Eh
Exchange energy change after final integration :      0.000015147 Eh
Total energy after final integration           :   -237.100859669 Eh
             **** ENERGY FILE WAS UPDATED (sp_gas.en.tmp) ****

----------------
TOTAL SCF ENERGY
----------------

Total Energy       :       -237.10085966857196 Eh           -6451.84240 eV

Components:
Nuclear Repulsion  :        266.18268869441562 Eh            7243.19920 eV
Electronic Energy  :       -503.47113147503256 Eh          -13700.14599 eV
One Electron Energy:       -844.52813313813431 Eh          -22980.77882 eV
Two Electron Energy:        341.05700166310174 Eh            9280.63283 eV

Virial components:
Potential Energy   :       -473.05142909234985 Eh          -12872.38380 eV
Kinetic Energy     :        235.95056942377792 Eh            6420.54141 eV
Virial Ratio       :          2.00487513231099

DFT components:
N(Alpha)           :       25.000079368167 electrons
N(Beta)            :       25.000079368167 electrons
N(Total)           :       50.000158736333 electrons
E(X)               :      -23.533944046037 Eh       
E(C)               :       -1.965764661196 Eh       
NL Energy, E(C,NL) :        0.187567964819 Eh       
E(XC)              :      -25.312140742415 Eh       

---------------
SCF CONVERGENCE
---------------

  Last Energy change         ...    9.5044e-08  Tolerance :   1.0000e-07
  Last MAX-Density change    ...    9.5598e-05  Tolerance :   1.0000e-05
  Last RMS-Density change    ...    2.9147e-06  Tolerance :   1.0000e-06
  Last DIIS Error            ...    5.9766e-04  Tolerance :   1.0000e-07
  Last Orbital Gradient      ...    1.9892e-05  Tolerance :   1.0000e-04
  Last Orbital Rotation      ...    2.1848e-05  Tolerance :   1.0000e-04


----------------
ORBITAL ENERGIES
----------------

  NO   OCC          E(Eh)            E(eV) 
   0   2.0000     -12.053095      -327.9814 
   1   2.0000     -12.036754      -327.5367 
   2   2.0000     -12.030890      -327.3772 
   3   2.0000     -12.029348      -327.3352 
   4   2.0000     -12.029302      -327.3340 
   5   2.0000     -12.028821      -327.3209 
   6   2.0000      -1.332033       -36.2464 
   7   2.0000      -1.236976       -33.6598 
   8   2.0000      -1.173832       -31.9416 
   9   2.0000      -1.173522       -31.9331 
  10   2.0000      -1.106310       -30.1042 
  11   2.0000      -0.996085       -27.1048 
  12   2.0000      -0.889795       -24.2126 
  13   2.0000      -0.887045       -24.1377 
  14   2.0000      -0.874061       -23.7844 
  15   2.0000      -0.845401       -23.0045 
  16   2.0000      -0.825126       -22.4528 
  17   2.0000      -0.807153       -21.9638 
  18   2.0000      -0.804165       -21.8824 
  19   2.0000      -0.793400       -21.5895 
  20   2.0000      -0.790718       -21.5165 
  21   2.0000      -0.772399       -21.0181 
  22   2.0000      -0.761047       -20.7091 
  23   2.0000      -0.749589       -20.3973 
  24   2.0000      -0.745354       -20.2821 
  25   0.0000      -0.035998        -0.9796 
  26   0.0000      -0.028822        -0.7843 
  27   0.0000      -0.017280        -0.4702 
  28   0.0000      -0.017230        -0.4689 
  29   0.0000      -0.006109        -0.1662 
  30   0.0000       0.004986         0.1357 
  31   0.0000       0.015445         0.4203 
  32   0.0000       0.030558         0.8315 
  33   0.0000       0.043328         1.1790 
  34   0.0000       0.049327         1.3423 
  35   0.0000       0.052626         1.4320 
*Only the first 10 virtual orbitals were printed.

                    ********************************
                    * MULLIKEN POPULATION ANALYSIS *
                    ********************************

-----------------------
MULLIKEN ATOMIC CHARGES
-----------------------
   0 C :   -0.374218
   1 C :   -0.160743
   2 C :    0.108989
   3 C :   -0.341757
   4 C :   -0.378535
   5 C :   -0.378518
   6 H :    0.112307
   7 H :    0.116614
   8 H :    0.112300
   9 H :    0.091960
  10 H :    0.091966
  11 H :    0.108760
  12 H :    0.109444
  13 H :    0.108762
  14 H :    0.110569
  15 H :    0.110763
  16 H :    0.115004
  17 H :    0.110760
  18 H :    0.115009
  19 H :    0.110565
Sum of atomic charges:   -0.0000000

--------------------------------
MULLIKEN REDUCED ORBITAL CHARGES
--------------------------------
  0 C s       :     3.250577  s :     3.250577
      pz      :     1.051493  p :     3.062240
      px      :     0.984500
      py      :     1.026248
      dz2     :     0.005843  d :     0.058085
      dxz     :     0.007651
      dyz     :     0.017411
      dx2y2   :     0.013132
      dxy     :     0.014048
      f0      :     0.000322  f :     0.003315
      f+1     :     0.000058
      f-1     :     0.000951
      f+2     :     0.000019
      f-2     :     0.000441
      f+3     :     0.000824
      f-3     :     0.000701

  1 C s       :     3.176916  s :     3.176916
      pz      :     1.016590  p :     2.881658
      px      :     0.902370
      py      :     0.962698
      dz2     :     0.008775  d :     0.096774
      dxz     :     0.013652
      dyz     :     0.027649
      dx2y2   :     0.027202
      dxy     :     0.019496
      f0      :     0.000611  f :     0.005394
      f+1     :     0.000205
      f-1     :     0.001005
      f+2     :     0.000154
      f-2     :     0.000888
      f+3     :     0.001555
      f-3     :     0.000977

  2 C s       :     3.014894  s :     3.014894
      pz      :     0.901278  p :     2.690712
      px      :     0.903026
      py      :     0.886407
      dz2     :     0.036776  d :     0.175319
      dxz     :     0.028059
      dyz     :     0.040979
      dx2y2   :     0.030273
      dxy     :     0.039233
      f0      :     0.002076  f :     0.010086
      f+1     :     0.000800
      f-1     :     0.001451
      f+2     :     0.000662
      f-2     :     0.002130
      f+3     :     0.001839
      f-3     :     0.001129

  3 C s       :     3.238882  s :     3.238882
      pz      :     1.054342  p :     3.041505
      px      :     0.979936
      py      :     1.007227
      dz2     :     0.007462  d :     0.058022
      dxz     :     0.004763
      dyz     :     0.020248
      dx2y2   :     0.015682
      dxy     :     0.009867
      f0      :     0.000318  f :     0.003348
      f+1     :     0.000046
      f-1     :     0.000997
      f+2     :    -0.000023
      f-2     :     0.000495
      f+3     :     0.000650
      f-3     :     0.000864

  4 C s       :     3.255398  s :     3.255398
      pz      :     0.979166  p :     3.061939
      px      :     1.064952
      py      :     1.017822
      dz2     :     0.017956  d :     0.057899
      dxz     :     0.006487
      dyz     :     0.011929
      dx2y2   :     0.004484
      dxy     :     0.017043
      f0      :     0.000537  f :     0.003298
      f+1     :     0.000252
      f-1     :     0.001144
      f+2     :     0.000232
      f-2     :     0.000452
      f+3     :     0.000193
      f-3     :     0.000488

  5 C s       :     3.255381  s :     3.255381
      pz      :     0.979173  p :     3.061943
      px      :     1.064946
      py      :     1.017824
      dz2     :     0.017959  d :     0.057895
      dxz     :     0.006483
      dyz     :     0.011929
      dx2y2   :     0.004480
      dxy     :     0.017044
      f0      :     0.000537  f :     0.003298
      f+1     :     0.000251
      f-1     :     0.001144
      f+2     :     0.000232
      f-2     :     0.000452
      f+3     :     0.000193
      f-3     :     0.000489

  6 H s       :     0.866503  s :     0.866503
      pz      :     0.009640  p :     0.021191
      px      :     0.004376
      py      :     0.007175

  7 H s       :     0.862393  s :     0.862393
      pz      :     0.004214  p :     0.020993
      px      :     0.009789
      py      :     0.006990

  8 H s       :     0.866509  s :     0.866509
      pz      :     0.009637  p :     0.021191
      px      :     0.004375
      py      :     0.007179

  9 H s       :     0.887167  s :     0.887167
      pz      :     0.009257  p :     0.020873
      px      :     0.004079
      py      :     0.007537

 10 H s       :     0.887162  s :     0.887162
      pz      :     0.009256  p :     0.020873
      px      :     0.004079
      py      :     0.007537

 11 H s       :     0.870381  s :     0.870381
      pz      :     0.009429  p :     0.020859
      px      :     0.004155
      py      :     0.007275

 12 H s       :     0.869654  s :     0.869654
      pz      :     0.004203  p :     0.020903
      px      :     0.010906
      py      :     0.005794

 13 H s       :     0.870380  s :     0.870380
      pz      :     0.009430  p :     0.020858
      px      :     0.004155
      py      :     0.007274

 14 H s       :     0.868623  s :     0.868623
      pz      :     0.010284  p :     0.020808
      px      :     0.004224
      py      :     0.006299

 15 H s       :     0.868298  s :     0.868298
      pz      :     0.004243  p :     0.020940
      px      :     0.010560
      py      :     0.006136

 16 H s       :     0.863745  s :     0.863745
      pz      :     0.004194  p :     0.021250
      px      :     0.008438
      py      :     0.008618

 17 H s       :     0.868300  s :     0.868300
      pz      :     0.004243  p :     0.020940
      px      :     0.010558
      py      :     0.006139

 18 H s       :     0.863741  s :     0.863741
      pz      :     0.004194  p :     0.021250
      px      :     0.008441
      py      :     0.008615

 19 H s       :     0.868627  s :     0.868627
      pz      :     0.010285  p :     0.020808
      px      :     0.004224
      py      :     0.006299


------------------------
MULLIKEN OVERLAP CHARGES
------------------------
B(  0-C ,  1-C ) :   0.5957 B(  0-C ,  2-C ) :  -0.0756 B(  0-C ,  6-H ) :   0.8388 
B(  0-C ,  7-H ) :   0.8341 B(  0-C ,  8-H ) :   0.8388 B(  0-C ,  9-H ) :  -0.0700 
B(  0-C , 10-H ) :  -0.0700 B(  1-C ,  2-C ) :   0.6774 B(  1-C ,  3-C ) :  -0.1677 
B(  1-C ,  4-C ) :  -0.1157 B(  1-C ,  5-C ) :  -0.1157 B(  1-C ,  6-H ) :  -0.0885 
B(  1-C ,  7-H ) :  -0.0768 B(  1-C ,  8-H ) :  -0.0886 B(  1-C ,  9-H ) :   0.8273 
B(  1-C , 10-H ) :   0.8274 B(  2-C ,  3-C ) :   0.7001 B(  2-C ,  4-C ) :   0.6883 
B(  2-C ,  5-C ) :   0.6884 B(  2-C ,  9-H ) :  -0.0698 B(  2-C , 10-H ) :  -0.0699 
B(  2-C , 11-H ) :  -0.0633 B(  2-C , 12-H ) :  -0.0714 B(  2-C , 13-H ) :  -0.0633 
B(  2-C , 14-H ) :  -0.0726 B(  2-C , 15-H ) :  -0.0653 B(  2-C , 16-H ) :  -0.0655 
B(  2-C , 17-H ) :  -0.0654 B(  2-C , 18-H ) :  -0.0655 B(  2-C , 19-H ) :  -0.0726 
B(  3-C ,  4-C ) :  -0.1342 B(  3-C ,  5-C ) :  -0.1342 B(  3-C , 11-H ) :   0.8163 
B(  3-C , 12-H ) :   0.8251 B(  3-C , 13-H ) :   0.8163 B(  4-C ,  5-C ) :  -0.1648 
B(  4-C , 14-H ) :   0.8119 B(  4-C , 15-H ) :   0.8205 B(  4-C , 16-H ) :   0.8282 
B(  5-C , 17-H ) :   0.8205 B(  5-C , 18-H ) :   0.8282 B(  5-C , 19-H ) :   0.8119 
B(  6-H ,  8-H ) :  -0.0559 


                     *******************************
                     * LOEWDIN POPULATION ANALYSIS *
                     *******************************

----------------------
LOEWDIN ATOMIC CHARGES
----------------------
   0 C :   -0.305029
   1 C :   -0.249437
   2 C :   -0.365729
   3 C :   -0.260529
   4 C :   -0.259386
   5 C :   -0.259381
   6 H :    0.115914
   7 H :    0.117223
   8 H :    0.115917
   9 H :    0.135386
  10 H :    0.135385
  11 H :    0.119864
  12 H :    0.119213
  13 H :    0.119863
  14 H :    0.120985
  15 H :    0.120848
  16 H :    0.118529
  17 H :    0.120848
  18 H :    0.118532
  19 H :    0.120984

-------------------------------
LOEWDIN REDUCED ORBITAL CHARGES
-------------------------------
  0 C s       :     2.825010  s :     2.825010
      pz      :     1.069491  p :     3.189326
      px      :     1.049201
      py      :     1.070634
      dz2     :     0.035864  d :     0.265945
      dxz     :     0.031016
      dyz     :     0.075296
      dx2y2   :     0.053831
      dxy     :     0.069938
      f0      :     0.002244  f :     0.024749
      f+1     :     0.002786
      f-1     :     0.003692
      f+2     :     0.003586
      f-2     :     0.002680
      f+3     :     0.005485
      f-3     :     0.004276

  1 C s       :     2.772651  s :     2.772651
      pz      :     1.022723  p :     3.038724
      px      :     1.003514
      py      :     1.012488
      dz2     :     0.045356  d :     0.400666
      dxz     :     0.052658
      dyz     :     0.108873
      dx2y2   :     0.104388
      dxy     :     0.089391
      f0      :     0.004047  f :     0.037396
      f+1     :     0.003401
      f-1     :     0.004416
      f+2     :     0.004834
      f-2     :     0.005254
      f+3     :     0.010033
      f-3     :     0.005411

  2 C s       :     2.694858  s :     2.694858
      pz      :     0.991379  p :     2.962562
      px      :     0.980631
      py      :     0.990552
      dz2     :     0.136418  d :     0.639493
      dxz     :     0.093985
      dyz     :     0.153692
      dx2y2   :     0.104869
      dxy     :     0.150530
      f0      :     0.012989  f :     0.068815
      f+1     :     0.007925
      f-1     :     0.007434
      f+2     :     0.007513
      f-2     :     0.013424
      f+3     :     0.011711
      f-3     :     0.007820

  3 C s       :     2.822885  s :     2.822885
      pz      :     1.063337  p :     3.143774
      px      :     1.035410
      py      :     1.045026
      dz2     :     0.037986  d :     0.269413
      dxz     :     0.019755
      dyz     :     0.087775
      dx2y2   :     0.067323
      dxy     :     0.056574
      f0      :     0.002201  f :     0.024457
      f+1     :     0.002716
      f-1     :     0.003758
      f+2     :     0.002837
      f-2     :     0.003261
      f+3     :     0.004438
      f-3     :     0.005246

  4 C s       :     2.820853  s :     2.820853
      pz      :     1.033616  p :     3.146611
      px      :     1.062974
      py      :     1.050021
      dz2     :     0.082952  d :     0.267499
      dxz     :     0.025397
      dyz     :     0.062918
      dx2y2   :     0.019810
      dxy     :     0.076422
      f0      :     0.003549  f :     0.024423
      f+1     :     0.004519
      f-1     :     0.004767
      f+2     :     0.004043
      f-2     :     0.003022
      f+3     :     0.001535
      f-3     :     0.002989

  5 C s       :     2.820851  s :     2.820851
      pz      :     1.033619  p :     3.146608
      px      :     1.062969
      py      :     1.050019
      dz2     :     0.082961  d :     0.267499
      dxz     :     0.025383
      dyz     :     0.062918
      dx2y2   :     0.019792
      dxy     :     0.076446
      f0      :     0.003549  f :     0.024423
      f+1     :     0.004519
      f-1     :     0.004767
      f+2     :     0.004044
      f-2     :     0.003021
      f+3     :     0.001532
      f-3     :     0.002991

  6 H s       :     0.823520  s :     0.823520
      pz      :     0.027392  p :     0.060565
      px      :     0.012873
      py      :     0.020301

  7 H s       :     0.822707  s :     0.822707
      pz      :     0.013279  p :     0.060069
      px      :     0.025503
      py      :     0.021288

  8 H s       :     0.823517  s :     0.823517
      pz      :     0.027382  p :     0.060566
      px      :     0.012872
      py      :     0.020312

  9 H s       :     0.807283  s :     0.807283
      pz      :     0.025652  p :     0.057332
      px      :     0.012166
      py      :     0.019514

 10 H s       :     0.807283  s :     0.807283
      pz      :     0.025651  p :     0.057332
      px      :     0.012166
      py      :     0.019515

 11 H s       :     0.820301  s :     0.820301
      pz      :     0.027090  p :     0.059835
      px      :     0.012609
      py      :     0.020136

 12 H s       :     0.820946  s :     0.820946
      pz      :     0.013025  p :     0.059841
      px      :     0.028969
      py      :     0.017847

 13 H s       :     0.820302  s :     0.820302
      pz      :     0.027092  p :     0.059835
      px      :     0.012609
      py      :     0.020133

 14 H s       :     0.819216  s :     0.819216
      pz      :     0.027191  p :     0.059799
      px      :     0.013263
      py      :     0.019345

 15 H s       :     0.819240  s :     0.819240
      pz      :     0.012688  p :     0.059912
      px      :     0.029989
      py      :     0.017235

 16 H s       :     0.820905  s :     0.820905
      pz      :     0.012663  p :     0.060567
      px      :     0.024307
      py      :     0.023597

 17 H s       :     0.819240  s :     0.819240
      pz      :     0.012687  p :     0.059912
      px      :     0.029984
      py      :     0.017241

 18 H s       :     0.820902  s :     0.820902
      pz      :     0.012663  p :     0.060567
      px      :     0.024315
      py      :     0.023589

 19 H s       :     0.819217  s :     0.819217
      pz      :     0.027193  p :     0.059799
      px      :     0.013261
      py      :     0.019345


---------------------------------
LOEWDIN BOND ORDERS (THRESH 0.050000)
---------------------------------
B(  0-C ,  1-C ) :   1.2755 B(  0-C ,  2-C ) :   0.1238 B(  0-C ,  6-H ) :   0.9049 
B(  0-C ,  7-H ) :   0.9061 B(  0-C ,  8-H ) :   0.9049 B(  0-C ,  9-H ) :   0.0751 
B(  0-C , 10-H ) :   0.0751 B(  1-C ,  2-C ) :   1.0953 B(  1-C ,  3-C ) :   0.1498 
B(  1-C ,  4-C ) :   0.1324 B(  1-C ,  5-C ) :   0.1324 B(  1-C ,  6-H ) :   0.0750 
B(  1-C ,  7-H ) :   0.0819 B(  1-C ,  8-H ) :   0.0750 B(  1-C ,  9-H ) :   0.8388 
B(  1-C , 10-H ) :   0.8388 B(  2-C ,  3-C ) :   1.1568 B(  2-C ,  4-C ) :   1.1574 
B(  2-C ,  5-C ) :   1.1574 B(  2-C ,  9-H ) :   0.0738 B(  2-C , 10-H ) :   0.0738 
B(  2-C , 11-H ) :   0.0749 B(  2-C , 12-H ) :   0.0747 B(  2-C , 13-H ) :   0.0749 
B(  2-C , 14-H ) :   0.0750 B(  2-C , 15-H ) :   0.0762 B(  2-C , 16-H ) :   0.0739 
B(  2-C , 17-H ) :   0.0762 B(  2-C , 18-H ) :   0.0739 B(  2-C , 19-H ) :   0.0750 
B(  3-C ,  4-C ) :   0.1470 B(  3-C ,  5-C ) :   0.1470 B(  3-C , 11-H ) :   0.8969 
B(  3-C , 12-H ) :   0.8974 B(  3-C , 13-H ) :   0.8969 B(  4-C ,  5-C ) :   0.1453 
B(  4-C , 14-H ) :   0.8969 B(  4-C , 15-H ) :   0.8956 B(  4-C , 16-H ) :   0.8962 
B(  5-C , 17-H ) :   0.8956 B(  5-C , 18-H ) :   0.8962 B(  5-C , 19-H ) :   0.8969 


------------------------------------------
LOEWDIN REDUCED ORBITAL POPULATIONS PER MO
-------------------------------------------
THRESHOLD FOR PRINTING IS 0.1%%
                      0         1         2         3         4         5   
                 -12.05309 -12.03675 -12.03089 -12.02935 -12.02930 -12.02882
                   2.00000   2.00000   2.00000   2.00000   2.00000   2.00000
                  --------  --------  --------  --------  --------  --------
 0 C  s               0.0       1.0      97.8       0.0       0.7       0.0
 1 C  s               0.1      98.2       1.0       0.0       0.0       0.1
 2 C  s              98.9       0.1       0.0       0.0       0.0       0.2
 2 C  dyz             0.0       0.0       0.0       0.2       0.0       0.0
 3 C  s               0.1       0.0       0.5       0.0      61.6      37.4
 4 C  s               0.1       0.0       0.1      49.9      18.4      31.0
 5 C  s               0.1       0.0       0.1      49.6      18.8      31.0

                      6         7         8         9        10        11   
                  -1.33203  -1.23698  -1.17383  -1.17352  -1.10631  -0.99608
                   2.00000   2.00000   2.00000   2.00000   2.00000   2.00000
                  --------  --------  --------  --------  --------  --------
 0 C  s               2.9      23.2       0.0       0.0      14.2       0.8
 0 C  px              1.7       1.3       0.0       0.0       4.4       1.9
 0 C  py              0.3       0.8       0.0       0.1       1.6       3.1
 0 C  dz2             0.1       0.1       0.0       0.0       0.2       0.1
 0 C  dx2y2           0.1       0.0       0.0       0.0       0.2       0.0
 0 C  dxy             0.1       0.4       0.0       0.0       0.4       0.4
 1 C  s              10.8      14.8       0.0       0.2       9.0       3.0
 1 C  pz              0.0       0.0       0.7       0.0       0.0       0.0
 1 C  px              1.7       6.9       0.0       0.3       7.2       2.6
 1 C  py              1.7       0.3       0.0       0.7       1.9       6.0
 1 C  dz2             0.3       0.1       0.0       0.0       0.2       0.5
 1 C  dxz             0.0       0.0       0.2       0.0       0.0       0.0
 1 C  dyz             0.0       0.0       0.1       0.0       0.0       0.0
 1 C  dx2y2           0.2       0.0       0.0       0.3       0.2       0.3
 1 C  dxy             0.2       0.9       0.0       0.1       1.0       0.3
 2 C  s              23.9       1.6       0.0       0.0       1.2       8.6
 2 C  pz              0.0       0.0      17.3       0.0       0.0       0.0
 2 C  px              0.0       6.8       0.0       3.1       6.7       0.1
 2 C  py              0.0       1.3       0.0      14.3       2.4       0.2
 2 C  dz2             0.0       0.3       0.0       1.6       0.2       0.0
 2 C  dyz             0.0       0.0       2.8       0.0       0.0       0.0
 2 C  dx2y2           0.0       0.4       0.0       0.3       0.0       0.0
 2 C  dxy             0.0       0.7       0.0       0.9       1.4       0.0
 2 C  f-1             0.2       0.0       0.0       0.0       0.0       0.0
 2 C  f-3             0.1       0.0       0.0       0.0       0.0       0.0
 3 C  s               7.6       3.2       0.0      24.0       3.7       1.7
 3 C  pz              0.0       0.0       0.7       0.0       0.0       0.0
 3 C  px              2.6       0.0       0.0       0.1       1.8       4.1
 3 C  py              1.7       0.4       0.0       0.5       0.0       3.9
 3 C  dz2             0.2       0.0       0.0       0.0       0.1       0.2
 3 C  dxz             0.0       0.0       0.2       0.0       0.0       0.0
 3 C  dyz             0.0       0.0       0.2       0.0       0.0       0.0
 3 C  dx2y2           0.0       0.1       0.0       0.1       0.3       0.0
 3 C  dxy             0.5       0.1       0.0       0.0       0.0       0.7
 4 C  s               7.4       2.6      19.6       7.4       1.1       2.4
 4 C  pz              2.8       0.2       0.6       0.0       0.2       7.0
 4 C  px              0.0       0.3       0.0       0.1       0.3       0.0
 4 C  py              1.5       0.0       0.0       0.6       0.3       3.1
 4 C  dz2             0.2       0.1       0.1       0.1       0.0       0.3
 4 C  dxz             0.0       0.0       0.0       0.0       0.1       0.0
 4 C  dyz             0.5       0.0       0.0       0.1       0.1       0.7
 5 C  s               7.4       2.6      19.6       7.3       1.1       2.4
 5 C  pz              2.8       0.2       0.6       0.0       0.2       7.0
 5 C  px              0.0       0.3       0.0       0.1       0.3       0.0
 5 C  py              1.5       0.0       0.0       0.6       0.3       3.1
 5 C  dz2             0.2       0.1       0.1       0.1       0.0       0.3
 5 C  dxz             0.0       0.0       0.0       0.0       0.1       0.0
 5 C  dyz             0.5       0.0       0.0       0.1       0.1       0.7
 6 H  s               0.5       4.8       0.0       0.0       6.1       1.2
 6 H  pz              0.0       0.3       0.0       0.0       0.4       0.1
 6 H  py              0.0       0.2       0.0       0.0       0.1       0.0
 7 H  s               0.5       5.1       0.0       0.0       6.0       0.4
 7 H  px              0.0       0.4       0.0       0.0       0.2       0.0
 7 H  py              0.0       0.1       0.0       0.0       0.3       0.1
 8 H  s               0.5       4.8       0.0       0.0       6.1       1.2
 8 H  pz              0.0       0.3       0.0       0.0       0.4       0.1
 8 H  py              0.0       0.2       0.0       0.0       0.1       0.0
 9 H  s               1.8       3.1       0.0       0.1       3.8       3.6
 9 H  pz              0.1       0.2       0.0       0.0       0.3       0.2
 9 H  py              0.1       0.1       0.0       0.0       0.1       0.0
10 H  s               1.8       3.1       0.0       0.1       3.8       3.6
10 H  pz              0.1       0.2       0.0       0.0       0.3       0.2
10 H  py              0.1       0.1       0.0       0.0       0.1       0.0
11 H  s               1.2       0.6       0.0       6.8       1.3       2.1
11 H  pz              0.1       0.0       0.0       0.5       0.1       0.1
11 H  py              0.0       0.0       0.0       0.2       0.0       0.0
12 H  s               1.2       0.8       0.0       6.4       1.9       1.8
12 H  px              0.1       0.1       0.0       0.5       0.1       0.0
12 H  py              0.0       0.0       0.0       0.2       0.1       0.1
13 H  s               1.2       0.6       0.0       6.8       1.3       2.1
13 H  pz              0.1       0.0       0.0       0.5       0.1       0.1
13 H  py              0.0       0.0       0.0       0.2       0.0       0.0
14 H  s               1.2       0.5       5.8       1.9       0.4       2.7
14 H  pz              0.1       0.0       0.4       0.1       0.0       0.0
14 H  py              0.0       0.0       0.2       0.1       0.0       0.2
15 H  s               1.2       0.6       5.4       2.0       0.7       2.5
15 H  px              0.1       0.1       0.4       0.2       0.1       0.2
15 H  py              0.0       0.0       0.1       0.0       0.0       0.0
16 H  s               1.2       0.5       5.3       2.4       0.5       2.5
16 H  px              0.0       0.0       0.3       0.1       0.0       0.1
16 H  py              0.1       0.0       0.3       0.1       0.0       0.0
17 H  s               1.2       0.6       5.4       2.0       0.7       2.5
17 H  px              0.1       0.1       0.4       0.2       0.1       0.2
17 H  py              0.0       0.0       0.1       0.0       0.0       0.0
18 H  s               1.2       0.5       5.3       2.4       0.5       2.5
18 H  px              0.0       0.0       0.3       0.1       0.0       0.1
18 H  py              0.1       0.0       0.3       0.1       0.0       0.0
19 H  s               1.2       0.5       5.8       1.8       0.4       2.7
19 H  pz              0.1       0.0       0.4       0.1       0.0       0.0
19 H  py              0.0       0.0       0.2       0.1       0.0       0.2

                     12        13        14        15        16        17   
                  -0.88980  -0.88704  -0.87406  -0.84540  -0.82513  -0.80715
                   2.00000   2.00000   2.00000   2.00000   2.00000   2.00000
                  --------  --------  --------  --------  --------  --------
 0 C  s               0.0       0.0       0.1       0.0       0.1       0.0
 0 C  pz              0.0       7.7       0.0      21.0       0.0       0.0
 0 C  px              1.0       0.0       7.9       0.0      17.8       4.8
 0 C  py              7.9       0.0       1.4       0.0       0.6      22.2
 0 C  dz2             0.1       0.0       0.1       0.0       0.0       0.5
 0 C  dxz             0.0       0.3       0.0       0.1       0.0       0.0
 0 C  dyz             0.0       0.0       0.0       0.3       0.0       0.0
 0 C  dx2y2           0.2       0.0       0.0       0.0       0.0       0.3
 0 C  dxy             0.0       0.0       0.2       0.0       0.5       0.6
 1 C  s               0.2       0.0       0.2       0.0       0.2       0.2
 1 C  pz              0.0      19.2       0.0       8.9       0.0       0.0
 1 C  px              5.6       0.0       5.9       0.0       3.0       1.2
 1 C  py              9.7       0.0       1.8       0.0       9.2       0.0
 1 C  dz2             0.1       0.0       0.0       0.0       0.0       0.0
 1 C  dxz             0.0       0.1       0.0       1.1       0.0       0.0
 1 C  dx2y2           0.1       0.0       0.5       0.0       0.0       0.5
 1 C  dxy             0.1       0.0       0.0       0.0       0.3       0.7
 1 C  f+3             0.0       0.0       0.0       0.0       0.1       0.2
 2 C  s               0.0       0.0       0.0       0.0       0.0       0.1
 2 C  pz              0.0      12.8       0.0       3.7       0.0       0.0
 2 C  px             15.2       0.0       0.7       0.0       0.1       0.2
 2 C  py              0.7       0.0      15.0       0.0       0.2       1.3
 2 C  dz2             0.0       0.0       0.4       0.0       0.5       1.3
 2 C  dxz             0.0       0.1       0.0       2.1       0.0       0.0
 2 C  dyz             0.0       0.5       0.0       0.0       0.0       0.0
 2 C  dx2y2           0.0       0.0       0.0       0.0       3.3       0.1
 2 C  dxy             0.3       0.0       0.0       0.0       0.0       0.5
 3 C  s               0.2       0.0       0.2       0.0       0.0       0.0
 3 C  pz              0.0       7.7       0.0      12.7       0.0       0.0
 3 C  px              0.2       0.0      14.3       0.0       3.4       1.7
 3 C  py             11.5       0.0       0.2       0.0       7.7       0.1
 3 C  dz2             0.2       0.0       0.0       0.0       0.1       0.0
 3 C  dxz             0.0       0.3       0.0       0.0       0.0       0.0
 3 C  dx2y2           0.1       0.0       0.1       0.0       0.1       0.0
 3 C  dxy             0.1       0.0       0.3       0.0       0.0       0.0
 4 C  s               0.0       0.3       0.1       0.0       0.0       0.1
 4 C  pz              1.1       1.8      11.1       0.3       4.1       0.5
 4 C  px              9.3       0.3       0.6       2.8       0.7       6.1
 4 C  py              0.1       9.0       1.6       4.5       5.4       4.7
 4 C  dz2             0.0       0.0       0.1       0.0       0.0       0.4
 4 C  dxz             0.3       0.0       0.1       0.0       0.0       0.0
 4 C  dyz             0.0       0.1       0.1       0.0       0.1       0.0
 4 C  dx2y2           0.0       0.1       0.1       0.0       0.0       0.1
 4 C  dxy             0.0       0.0       0.0       0.0       0.1       0.2
 5 C  s               0.0       0.3       0.1       0.0       0.0       0.1
 5 C  pz              1.1       1.8      11.1       0.3       4.1       0.5
 5 C  px              9.3       0.3       0.6       2.8       0.7       6.1
 5 C  py              0.1       9.0       1.6       4.5       5.4       4.7
 5 C  dz2             0.0       0.0       0.1       0.0       0.0       0.4
 5 C  dxz             0.3       0.0       0.1       0.0       0.0       0.0
 5 C  dyz             0.0       0.1       0.1       0.0       0.1       0.0
 5 C  dx2y2           0.0       0.1       0.1       0.0       0.0       0.1
 5 C  dxy             0.0       0.0       0.0       0.0       0.1       0.2
 6 H  s               0.9       1.7       0.7       6.4       0.0       3.8
 6 H  pz              0.1       0.0       0.0       0.0       0.0       0.2
 6 H  px              0.0       0.0       0.1       0.0       0.2       0.1
 6 H  py              0.0       0.1       0.0       0.2       0.0       0.0
 7 H  s               2.0       0.0       1.5       0.0       7.7      11.9
 7 H  pz              0.0       0.1       0.0       0.2       0.0       0.0
 7 H  px              0.1       0.0       0.0       0.0       0.0       0.3
 7 H  py              0.0       0.0       0.1       0.0       0.2       0.0
 8 H  s               0.9       1.7       0.7       6.4       0.0       3.8
 8 H  pz              0.1       0.0       0.0       0.0       0.0       0.2
 8 H  px              0.0       0.0       0.1       0.0       0.2       0.1
 8 H  py              0.0       0.1       0.0       0.2       0.0       0.0
 9 H  s               1.9       4.9       0.1       2.5       1.3       0.1
 9 H  pz              0.1       0.0       0.0       0.0       0.1       0.0
 9 H  py              0.0       0.2       0.0       0.1       0.0       0.0
10 H  s               1.9       4.9       0.1       2.5       1.3       0.1
10 H  pz              0.1       0.0       0.0       0.0       0.1       0.0
10 H  py              0.0       0.2       0.0       0.1       0.0       0.0
11 H  s               2.4       2.0       0.1       3.6       1.4       0.0
11 H  pz              0.2       0.0       0.0       0.0       0.1       0.0
11 H  px              0.0       0.0       0.2       0.0       0.0       0.0
11 H  py              0.0       0.1       0.0       0.1       0.0       0.0
12 H  s               0.2       0.0       5.4       0.0       4.0       0.8
12 H  pz              0.0       0.1       0.0       0.1       0.0       0.0
12 H  px              0.1       0.0       0.1       0.0       0.1       0.0
12 H  py              0.1       0.0       0.2       0.0       0.0       0.0
13 H  s               2.4       2.0       0.1       3.6       1.4       0.0
13 H  pz              0.2       0.0       0.0       0.0       0.1       0.0
13 H  px              0.0       0.0       0.2       0.0       0.0       0.0
13 H  py              0.0       0.1       0.0       0.1       0.0       0.0
14 H  s               0.5       0.0       5.5       0.1       3.8       2.4
14 H  py              0.0       0.1       0.1       0.0       0.0       0.0
15 H  s               2.2       2.3       0.1       0.0       0.0       5.7
15 H  pz              0.0       0.0       0.1       0.0       0.0       0.0
15 H  px              0.0       0.1       0.0       0.0       0.0       0.1
16 H  s               2.4       2.0       0.4       3.5       2.5       0.1
16 H  pz              0.0       0.0       0.1       0.0       0.1       0.0
16 H  px              0.0       0.2       0.0       0.0       0.1       0.0
16 H  py              0.1       0.0       0.0       0.0       0.0       0.1
17 H  s               2.2       2.3       0.1       0.0       0.0       5.7
17 H  pz              0.0       0.0       0.1       0.0       0.0       0.0
17 H  px              0.0       0.1       0.0       0.0       0.0       0.1
18 H  s               2.4       2.0       0.4       3.5       2.5       0.1
18 H  pz              0.0       0.0       0.1       0.0       0.1       0.0
18 H  px              0.0       0.2       0.0       0.0       0.1       0.0
18 H  py              0.1       0.0       0.0       0.0       0.0       0.1
19 H  s               0.5       0.0       5.5       0.1       3.8       2.4
19 H  py              0.0       0.1       0.1       0.0       0.0       0.0

                     18        19        20        21        22        23   
                  -0.80416  -0.79340  -0.79072  -0.77240  -0.76105  -0.74959
                   2.00000   2.00000   2.00000   2.00000   2.00000   2.00000
                  --------  --------  --------  --------  --------  --------
 0 C  s               0.0       0.3       0.0       0.0       0.0       0.0
 0 C  pz              6.4       0.0       0.0       9.8       0.0       8.5
 0 C  px              0.0       5.6       0.0       0.0       4.0       0.0
 0 C  py              0.0       8.8       0.0       0.0       1.3       0.0
 0 C  dz2             0.0       0.2       0.0       0.0       0.0       0.0
 0 C  dxz             0.0       0.0       0.0       0.5       0.0       0.7
 0 C  dyz             0.1       0.0       0.0       1.3       0.0       1.9
 0 C  dx2y2           0.0       0.2       0.0       0.0       0.0       0.0
 1 C  pz              0.5       0.0       0.4       6.6       0.0      14.9
 1 C  px              0.0       6.3       0.0       0.0       3.4       0.0
 1 C  py              0.0       7.3       0.0       0.0       0.4       0.0
 1 C  dz2             0.0       0.4       0.0       0.0       0.1       0.0
 1 C  dxz             0.5       0.0       0.0       0.7       0.0       0.0
 1 C  dyz             0.1       0.0       0.0       0.7       0.0       4.4
 1 C  dx2y2           0.0       0.9       0.0       0.0       0.8       0.0
 1 C  dxy             0.0       0.2       0.0       0.0       0.4       0.0
 1 C  f0              0.0       0.0       0.0       0.0       0.0       0.1
 1 C  f+2             0.0       0.0       0.0       0.0       0.0       0.2
 1 C  f+3             0.0       0.0       0.0       0.0       0.1       0.0
 2 C  pz              0.9       0.0       0.0       6.0       0.0       8.8
 2 C  px              0.0       0.1       0.0       0.0       7.9       0.0
 2 C  py              0.0       0.1       0.0       0.0       7.1       0.0
 2 C  dz2             0.0       0.0       0.0       0.0       1.1       0.0
 2 C  dxz             1.9       0.0       0.0       0.3       0.0       0.3
 2 C  dyz             0.1       0.0       0.0       1.1       0.0       2.9
 2 C  dx2y2           0.0       0.1       0.0       0.0       0.1       0.0
 2 C  dxy             0.0       0.1       0.0       0.0       2.6       0.0
 2 C  f0              0.2       0.0       0.3       0.1       0.0       0.1
 2 C  f+1             0.0       0.0       0.0       0.0       0.2       0.0
 2 C  f+2             0.0       0.0       0.1       0.1       0.0       0.1
 2 C  f-2             0.2       0.0       0.3       0.2       0.0       0.0
 2 C  f+3             0.0       0.5       0.0       0.0       0.0       0.0
 3 C  s               0.0       0.0       0.0       0.0       0.8       0.0
 3 C  pz              3.4       0.0      18.6       7.8       0.0       2.3
 3 C  px              0.0      12.0       0.0       0.0       9.2       0.0
 3 C  py              0.0      14.0       0.0       0.0      10.5       0.0
 3 C  dz2             0.0       0.8       0.0       0.0       0.1       0.0
 3 C  dxz             0.0       0.0       0.0       0.2       0.0       0.1
 3 C  dyz             0.1       0.0       1.8       1.2       0.0       1.1
 3 C  dx2y2           0.0       1.2       0.0       0.0       0.1       0.0
 3 C  dxy             0.0       0.6       0.0       0.0       0.1       0.0
 4 C  s               0.0       0.0       0.0       0.2       0.1       0.3
 4 C  pz              0.4       0.0       3.2      10.3       0.3       7.2
 4 C  px             18.2       2.0       5.1       0.3       4.7       0.0
 4 C  py              3.0       0.1       7.6       0.7       5.0       1.4
 4 C  dz2             0.3       0.0       0.6       0.6       0.5       0.1
 4 C  dxz             0.1       0.0       0.0       0.0       0.3       0.0
 4 C  dyz             0.1       0.0       0.3       0.5       0.1       0.2
 4 C  dx2y2           0.2       0.0       0.0       0.0       0.1       0.0
 4 C  dxy             0.5       0.2       0.7       0.1       1.4       0.0
 5 C  s               0.0       0.0       0.0       0.2       0.1       0.3
 5 C  pz              0.4       0.0       3.2      10.3       0.3       7.2
 5 C  px             18.2       2.0       5.1       0.3       4.7       0.0
 5 C  py              3.0       0.1       7.6       0.7       5.0       1.4
 5 C  dz2             0.3       0.0       0.6       0.6       0.5       0.1
 5 C  dxz             0.1       0.0       0.0       0.0       0.3       0.0
 5 C  dyz             0.1       0.0       0.3       0.5       0.1       0.2
 5 C  dx2y2           0.2       0.0       0.0       0.0       0.1       0.0
 5 C  dxy             0.5       0.2       0.7       0.1       1.4       0.0
 6 H  s               2.1       2.1       0.0       4.6       0.2       4.6
 7 H  s               0.0       0.0       0.0       0.0       0.4       0.0
 7 H  pz              0.1       0.0       0.0       0.1       0.0       0.1
 7 H  px              0.0       0.1       0.0       0.0       0.0       0.0
 7 H  py              0.0       0.1       0.0       0.0       0.1       0.0
 8 H  s               2.1       2.1       0.0       4.6       0.2       4.6
 9 H  s               0.2       2.2       0.1       2.8       0.4       8.6
 9 H  pz              0.0       0.1       0.0       0.0       0.0       0.0
 9 H  py              0.0       0.0       0.0       0.1       0.0       0.1
10 H  s               0.2       2.2       0.1       2.8       0.4       8.6
10 H  pz              0.0       0.1       0.0       0.0       0.0       0.0
10 H  py              0.0       0.0       0.0       0.1       0.0       0.1
11 H  s               1.1       3.3       7.6       3.5       1.7       1.5
11 H  pz              0.0       0.2       0.0       0.0       0.0       0.0
11 H  px              0.0       0.1       0.0       0.0       0.2       0.0
11 H  py              0.0       0.0       0.2       0.1       0.1       0.0
12 H  s               0.0      14.7       0.0       0.0       0.6       0.0
12 H  pz              0.1       0.0       0.3       0.1       0.0       0.0
12 H  px              0.0       0.3       0.0       0.0       0.1       0.0
12 H  py              0.0       0.0       0.0       0.0       0.2       0.0
13 H  s               1.1       3.3       7.6       3.5       1.7       1.5
13 H  pz              0.0       0.2       0.0       0.0       0.0       0.0
13 H  px              0.0       0.1       0.0       0.0       0.2       0.0
13 H  py              0.0       0.0       0.2       0.1       0.1       0.0
14 H  s               2.2       0.0       4.8       6.2       0.4       1.8
14 H  px              0.2       0.0       0.1       0.0       0.1       0.0
15 H  s              11.6       0.7       0.4       0.6       0.9       0.2
15 H  pz              0.0       0.0       0.0       0.2       0.0       0.1
[...]
 3 C  dx2y2           1.0       0.0       0.0       0.0       0.1       0.2
 3 C  dxy             2.5       0.0       0.0       1.6       0.0       4.6
 3 C  f0              0.0       0.1       0.2       0.0       0.0       0.0
 3 C  f+1             0.8       0.0       0.0       0.1       0.2       0.4
 3 C  f-1             4.4       0.0       0.0       1.5       0.1       0.9
 3 C  f+2             0.0       0.5       0.0       0.0       0.0       0.0
 3 C  f-2             0.0       0.5       0.6       0.0       0.0       0.0
 3 C  f+3             2.0       0.0       0.0       1.4       0.0       0.0
 3 C  f-3             0.0       0.0       0.0       2.8       0.7       1.9
 4 C  s               0.3       0.1      11.1       5.8       0.3       0.7
 4 C  pz              0.1       0.1       2.7       1.8       0.4       0.6
 4 C  py              0.1       0.0       1.4       0.7       0.3       0.3
 4 C  dz2             0.1       1.3       1.2       0.6       0.4       0.4
 4 C  dxz             0.3       0.9       0.0       0.0       0.0       0.0
 4 C  dyz             0.3       0.6       2.8       2.0       1.1       1.0
 4 C  dx2y2           0.1       0.0       0.3       0.5       0.1       0.1
 4 C  dxy             0.7       1.4       0.0       0.0       0.1       0.1
 4 C  f0              0.0       0.2       0.4       0.1       0.0       0.0
 4 C  f+1             1.5       2.5       0.0       0.1       0.0       0.0
 4 C  f-1             0.0       0.7       7.1       3.4       0.0       0.2
 4 C  f+2             0.0       1.4       0.8       0.6       0.0       0.0
 4 C  f-2             0.2       1.4       0.0       0.0       0.1       0.1
 4 C  f+3             0.2       0.0       0.3       0.1       0.0       0.0
 4 C  f-3             0.1       1.8       1.0       0.5       0.0       0.0
 5 C  s               0.3       0.1      11.1       5.8       0.3       0.7
 5 C  pz              0.1       0.1       2.7       1.8       0.4       0.6
 5 C  py              0.1       0.0       1.4       0.7       0.3       0.3
 5 C  dz2             0.1       1.3       1.2       0.6       0.4       0.4
 5 C  dxz             0.3       0.9       0.0       0.0       0.0       0.0
 5 C  dyz             0.3       0.6       2.8       2.0       1.1       1.0
 5 C  dx2y2           0.1       0.0       0.3       0.5       0.1       0.1
 5 C  dxy             0.7       1.4       0.0       0.0       0.1       0.1
 5 C  f0              0.0       0.2       0.4       0.1       0.0       0.0
 5 C  f+1             1.5       2.5       0.0       0.1       0.0       0.0
 5 C  f-1             0.0       0.7       7.1       3.4       0.0       0.2
 5 C  f+2             0.0       1.4       0.8       0.6       0.0       0.0
 5 C  f-2             0.2       1.4       0.0       0.0       0.1       0.1
 5 C  f+3             0.2       0.0       0.3       0.1       0.0       0.0
 5 C  f-3             0.1       1.8       1.0       0.5       0.0       0.0
 6 H  s               0.5       0.0       0.0       0.0       0.1       0.0
 7 H  s               1.4       0.0       0.0       0.1       0.1       0.2
 8 H  s               0.5       0.0       0.0       0.0       0.1       0.0
 9 H  s               0.3       3.4       0.0       0.2       0.3       0.2
 9 H  pz              0.1       0.6       0.0       0.0       0.0       0.0
 9 H  py              0.1       0.0       0.0       0.0       0.0       0.0
10 H  s               0.3       3.4       0.0       0.2       0.3       0.2
10 H  pz              0.1       0.6       0.0       0.0       0.0       0.0
10 H  py              0.1       0.0       0.0       0.0       0.0       0.0
11 H  s               0.7       0.1       0.1       0.3       0.0       0.1
12 H  s               0.2       0.0       0.0       0.3       0.2       0.1
12 H  px              0.1       0.0       0.0       0.0       0.1       0.0
13 H  s               0.7       0.1       0.1       0.3       0.0       0.1
14 H  s               0.0       0.8       0.6       0.2       0.0       0.0
15 H  s               0.5       1.6       0.2       0.3       0.1       0.0
15 H  px              0.0       0.2       0.0       0.0       0.0       0.0
16 H  s               0.1       0.1       0.7       0.3       0.0       0.1
16 H  px              0.0       0.1       0.0       0.0       0.0       0.0
17 H  s               0.5       1.6       0.2       0.3       0.1       0.0
17 H  px              0.0       0.2       0.0       0.0       0.0       0.0
18 H  s               0.1       0.1       0.7       0.3       0.0       0.1
18 H  px              0.0       0.1       0.0       0.0       0.0       0.0
19 H  s               0.0       0.8       0.6       0.2       0.0       0.0

                    264       265       266       267       268       269   
                  20.72776  20.81340  20.84709  20.84982  20.92627  21.08578
                   0.00000   0.00000   0.00000   0.00000   0.00000   0.00000
                  --------  --------  --------  --------  --------  --------
 0 C  s              86.9       3.2       8.0       0.0       0.2       0.2
 1 C  s               0.1       4.6       0.2       0.0      93.5       0.2
 2 C  s               0.1       0.3       0.3       0.0       0.2      98.5
 2 C  pz              0.0       0.0       0.0       0.2       0.0       0.0
 2 C  py              0.0       0.0       0.1       0.0       0.0       0.0
 2 C  dyz             0.0       0.0       0.0       0.2       0.0       0.0
 2 C  dxy             0.0       0.0       0.0       0.0       0.1       0.0
 3 C  s               0.1      57.1      37.2       0.0       3.8       0.1
 4 C  s               5.7      16.5      26.5      49.0       0.5       0.1
 5 C  s               5.7      16.5      26.2      49.3       0.5       0.1
 6 H  s               0.2       0.0       0.0       0.0       0.0       0.0
 7 H  s               0.2       0.0       0.0       0.0       0.0       0.0
 8 H  s               0.2       0.0       0.0       0.0       0.0       0.0
 9 H  s               0.0       0.0       0.0       0.0       0.2       0.0
10 H  s               0.0       0.0       0.0       0.0       0.2       0.0
11 H  s               0.0       0.1       0.1       0.0       0.0       0.0
12 H  s               0.0       0.1       0.1       0.0       0.0       0.0
13 H  s               0.0       0.1       0.1       0.0       0.0       0.0
15 H  s               0.0       0.0       0.1       0.1       0.0       0.0
16 H  s               0.0       0.1       0.1       0.1       0.0       0.0
17 H  s               0.0       0.0       0.1       0.1       0.0       0.0
18 H  s               0.0       0.1       0.1       0.1       0.0       0.0



                      *****************************
                      * MAYER POPULATION ANALYSIS *
                      *****************************

  NA   - Mulliken gross atomic population
  ZA   - Total nuclear charge
  QA   - Mulliken gross atomic charge
  VA   - Mayer's total valence
  BVA  - Mayer's bonded valence
  FA   - Mayer's free valence

  ATOM       NA         ZA         QA         VA         BVA        FA
  0 C      6.3742     6.0000    -0.3742     3.9380     3.9380    -0.0000
  1 C      6.1607     6.0000    -0.1607     3.8101     3.8101     0.0000
  2 C      5.8910     6.0000     0.1090     3.8770     3.8770     0.0000
  3 C      6.3418     6.0000    -0.3418     3.8613     3.8613     0.0000
  4 C      6.3785     6.0000    -0.3785     3.8854     3.8854     0.0000
  5 C      6.3785     6.0000    -0.3785     3.8854     3.8854    -0.0000
  6 H      0.8877     1.0000     0.1123     0.9696     0.9696    -0.0000
  7 H      0.8834     1.0000     0.1166     0.9730     0.9730    -0.0000
  8 H      0.8877     1.0000     0.1123     0.9696     0.9696    -0.0000
  9 H      0.9080     1.0000     0.0920     0.9782     0.9782     0.0000
 10 H      0.9080     1.0000     0.0920     0.9782     0.9782     0.0000
 11 H      0.8912     1.0000     0.1088     0.9790     0.9790    -0.0000
 12 H      0.8906     1.0000     0.1094     0.9802     0.9802     0.0000
 13 H      0.8912     1.0000     0.1088     0.9790     0.9790    -0.0000
 14 H      0.8894     1.0000     0.1106     0.9774     0.9774     0.0000
 15 H      0.8892     1.0000     0.1108     0.9804     0.9804    -0.0000
 16 H      0.8850     1.0000     0.1150     0.9718     0.9718    -0.0000
 17 H      0.8892     1.0000     0.1108     0.9804     0.9804     0.0000
 18 H      0.8850     1.0000     0.1150     0.9718     0.9718    -0.0000
 19 H      0.8894     1.0000     0.1106     0.9774     0.9774    -0.0000

  Mayer bond orders larger than 0.100000
B(  0-C ,  1-C ) :   0.9664 B(  0-C ,  6-H ) :   0.9834 B(  0-C ,  7-H ) :   0.9843 
B(  0-C ,  8-H ) :   0.9835 B(  1-C ,  2-C ) :   0.9588 B(  1-C ,  9-H ) :   0.9750 
B(  1-C , 10-H ) :   0.9750 B(  2-C ,  3-C ) :   0.9768 B(  2-C ,  4-C ) :   0.9705 
B(  2-C ,  5-C ) :   0.9705 B(  3-C , 11-H ) :   0.9775 B(  3-C , 12-H ) :   0.9808 
B(  3-C , 13-H ) :   0.9775 B(  4-C , 14-H ) :   0.9775 B(  4-C , 15-H ) :   0.9794 
B(  4-C , 16-H ) :   0.9810 B(  5-C , 17-H ) :   0.9794 B(  5-C , 18-H ) :   0.9810 
B(  5-C , 19-H ) :   0.9775 

-------
TIMINGS
-------

Total SCF time: 0 days 0 hours 2 min 0 sec 

Total time                  ....     120.775 sec
Sum of individual times     ....     118.206 sec  ( 97.9%)

SCF preparation             ....       0.226 sec  (  0.2%)
Fock matrix formation       ....     116.861 sec  ( 96.8%)
  Startup                   ....       0.050 sec  (  0.0% of F)
  Split-RI-J                ....       4.421 sec  (  3.8% of F)
  Chain of spheres X        ....      99.756 sec  ( 85.4% of F)
  XC integration            ....      14.288 sec  ( 12.2% of F)
    XC Preparation          ....       0.000 sec  (  0.0% of XC)
    Basis function eval.    ....       3.264 sec  ( 22.8% of XC)
    Density eval.           ....       2.815 sec  ( 19.7% of XC)
    XC-Functional eval.     ....       3.017 sec  ( 21.1% of XC)
    XC-Potential eval.      ....       4.435 sec  ( 31.0% of XC)
Diagonalization             ....       0.000 sec  (  0.0%)
Density matrix formation    ....       0.166 sec  (  0.1%)
Total Energy calculation    ....       0.036 sec  (  0.0%)
Population analysis         ....       0.167 sec  (  0.1%)
Orbital Transformation      ....       0.065 sec  (  0.1%)
Orbital Orthonormalization  ....       0.000 sec  (  0.0%)
DIIS solution               ....       0.327 sec  (  0.3%)
  MO trafo                  ....       0.000 sec  (  0.0 % of DIIS)
  Orb grad                  ....       0.000 sec  (  0.0 % of DIIS)
  Energy W gradient         ....       0.000 sec  (  0.0 % of DIIS)
  DIIS error                ....       0.010 sec  (  3.2 % of DIIS)
  DIIS work                 ....       0.272 sec  ( 83.2 % of DIIS)
  Form Q                    ....       0.000 sec  (  0.0 % of DIIS)
  Form QpQm                 ....       0.000 sec  (  0.0 % of DIIS)
  Exp/Cayley                ....       0.000 sec  (  0.0 % of DIIS)
  Orb update                ....       0.000 sec  (  0.0 % of DIIS)
  Wake-sleep                ....       0.012 sec  (  3.5 % of DIIS)
SOSCF solution              ....       0.155 sec  (  0.1%)
  MO trafo                  ....       0.065 sec  ( 42.1 % of SOSCF)
  Orb grad                  ....       0.002 sec  (  1.3 % of SOSCF)
  Rot update                ....       0.048 sec  ( 30.8 % of SOSCF)
  Step                      ....       0.040 sec  ( 25.8 % of SOSCF)
Grid generation             ....       0.204 sec  (  0.2%)
Finished LeanSCF after 120.8 sec

Maximum memory used throughout the entire LEANSCF-calculation: 36.1 MB
------------------   -----------------
gCP correction             0.014666655
------------------   -----------------

-------------------------   --------------------
FINAL SINGLE POINT ENERGY      -237.086193013272
-------------------------   --------------------


------------------------------------------------------------------------------
                              ORCA PROPERTY CALCULATIONS
------------------------------------------------------------------------------

GBWName                                 ... sp_gas.gbw
Number of atoms                         ...     20
Number of basis functions               ...    270
Max core memory                         ...   1024 MB

Electric properties:
Dipole moment                           ... YES
Quadrupole moment                       ...  NO
Static polarizability (Dipole/Dipole)   ...  NO
Static polarizability (Dipole/Quad.)    ...  NO
Static polarizability (Quad./Quad.)     ...  NO
Static polarizability (Velocity)        ...  NO

Atomic electric properties:
Dipole moment                           ...  NO
Quadrupole moment                       ...  NO
Static polarizability                   ...  NO

Choice of electric origin               ... Center of mass
Position of electric origin             ...     0.001012     0.001272    -0.000006

General magnetic properties:
Magnetizability                         ...  NO

EPR properties:
g-Tensor (aka g-matrix)                 ...  NO
Zero-Field splitting spin-orbit         ...  NO
Zero-field splitting spin-spin          ...  NO
Hyperfine couplings                     ...  NO (   0 nuclei)
Quadrupole couplings                    ...  NO (   0 nuclei)
Contact density                         ...  NO (   0 nuclei)

NMR properties:
Chemical shifts                         ...  NO (   0 nuclei)
Spin-rotation constants                 ...  NO (   0 nuclei)
Spin-spin couplings                     ...  NO (   0 nuclei,    0 pairs)

Choice of magnetic origin               ... GIAO
Position of magnetic origin             ...     0.000000     0.000000     0.000000

Properties with geometric perturbations:
SCF Hessian                             ...  NO
IR spectrum                             ...  NO
VCD spectrum                            ...  NO
X-ray spectroscopy properties:
SCF XES/XAS/RIXS spectra                ...  NO


-------------
DIPOLE MOMENT
-------------

Method             : SCF
Type of density    : Electron Density
Multiplicity       :   1
Irrep              :   0
Energy             :  -237.1008596685719567 Eh
Relativity type    : 
Basis              : AO
                                X                 Y                 Z
Electronic contribution:      0.246582219       0.541886838       0.000064470
Nuclear contribution   :     -0.261724813      -0.525712653      -0.000064800
                        -----------------------------------------
Total Dipole Moment    :     -0.015142594       0.016174185      -0.000000330
                        -----------------------------------------
Magnitude (a.u.)       :      0.022156318
Magnitude (Debye)      :      0.056316884



--------------------
Rotational spectrum 
--------------------
 
Rotational constants in cm-1:             0.143447             0.083474             0.083166 
Rotational constants in MHz :          4300.441918          2502.493943          2493.256870 

Dipole components along the rotational axes: 
x,y,z [a.u.] :    -0.015101    -0.016213     0.000002 
x,y,z [Debye]:    -0.038383    -0.041211     0.000004 

 

Dipole moment calculation done in   0.0 sec 

Maximum memory used throughout the entire PROP-calculation: 21.1 MB

--------------------------------
SUGGESTED CITATIONS FOR THIS RUN
--------------------------------

Below you find a list of papers that are relevant to this ORCA run
We neither can nor want to force you to cite these papers, but we appreciate if you do
You receive ORCA, which is the product of decades of hard work by many enthusiastic individuals, for free
The only thing we kindly ask in return is that you cite our papers,
We deeply appreciate it, if you show your appreciation for ORCA by not just citing the generic ORCA reference.

Please note that relegating all ORCA citations to the supporting information does *not* help us.
SI sections are not indexed - citations you put there will not count into any citation statistics
But we need these citations in order to attract the funding resources that allow us to do what we are doing

Therefore, if you are a happy ORCA user, please consider citing a few of the papers listed below in the main body of your paper

In addition to the list printed below, the program has created the file sp_gas.bibtex that contains the list in bibtex format
You can import this file easily into all common literature databanks and citation aid programs


List of essential papers. We consider these as the minimum necessary citations

  1. Neese,F.
     Software update: the ORCA program system, version 5.0
     WIRES Comput. Molec. Sci., 2022 12(1)e1606
     doi.org/10.1002/wcms.1606

List of papers to cite with high priority. The work reported in these papers was absolutely
necessary for this run to complete.
Our perspective: the developers of density functionals and basis sets usually get cited in chemistry papers
Good! But without the algorithms to do something with them, the functionals or basis sets would not do anything.
Hence, in our opinion, the algorithm design and method developments papers are equally worthy of getting cited

  1. Neese,F.
     An improvement of the resolution of the identity approximation for the formation of the Coulomb matrix
     J. Comp. Chem., 2003 24(14)1740-1747
     doi.org/10.1002/jcc.10318
  2. Neese,F.; Wennmohs,F.; Hansen,A.; Becker,U.
     Efficient, approximate and parallel Hartree-Fock and hybrid DFT calculations. A 'chain-of-spheres' algorithm for the Hartree-Fock exchange
     Chem. Phys., 2009 356(1-3)98-109
     doi.org/10.1016/j.chemphys.2008.10.036
  3. Helmich-Paris,B.; de Souza,B.; Neese,F.; Izsák,R.
     An improved chain of spheres for exchange algorithm
     J. Chem. Phys., 2021 155 104109
     doi.org/doi: 10.1063/5.0058766.
  4. Neese,F.
     The SHARK Integral Generation and Digestion System
     J. Comp. Chem., 2022  1-16
     doi.org/10.1002/jcc.26942

List of suggested additional citations. These are papers that are important in the 'surrounding' of 
of this run, or papers that preceded the highly important papers. If you like your results we are grateful for a citation.

  1. Izsak,R.; Neese,F.
     An overlap fitted chain of spheres exchange method
     J. Chem. Phys., 2011 135 144105
     doi.org/10.1063/1.3646921
  2. Izsak,R.; Hansen,A.; Neese,F.
     The resolution of identity and chain of spheres approximations for the LPNO-CCSD singles Fock term
     Molec. Phys., 2012 110 2413-2417
     doi.org/10.1080/00268976.2012.687466
  3. Neese,F.
     The ORCA program system
     WIRES Comput. Molec. Sci., 2012 2(1)73-78
     doi.org/10.1002/wcms.81
  4. Izsak,R.; Neese,F.; Klopper,W.
     Robust fitting techniques in the chain of spheres approximation to the Fock exchange: The role of the complementary space
     J. Chem. Phys., 2013 139 
     doi.org/10.1063/1.4819264
  5. Neese,F.
     Software update: the ORCA program system, version 4.0
     WIRES Comput. Molec. Sci., 2018 8(1)1-6
     doi.org/10.1002/wcms.1327
  6. Neese,F.; Wennmohs,F.; Becker,U.; Riplinger,C.
     The ORCA quantum chemistry program package
     J. Chem. Phys., 2020 152 Art. No. L224108
     doi.org/10.1063/5.0004608

List of optional additional citations

  1. Neese,F.
     Approximate second-order SCF convergence for spin unrestricted wavefunctions
     Chem. Phys. Lett., 2000 325(1-3)93-98
     doi.org/10.1016/s0009-2614(00)00662-x

Timings for individual modules:

Sum of individual times          ...      123.693 sec (=   2.062 min)
Startup calculation              ...        2.414 sec (=   0.040 min)   2.0 %
SCF iterations                   ...      121.175 sec (=   2.020 min)  98.0 %
Property calculations            ...        0.104 sec (=   0.002 min)   0.1 %
                             ****ORCA TERMINATED NORMALLY****
TOTAL RUN TIME: 0 days 0 hours 2 minutes 4 seconds 325 msec
