22
 energy: -1841.914040238715 gnorm: 0.030348353793 xtb: 6.7.1 (edcfbbe)
C           -4.39167438374607       -0.00070158410031        0.00052579690023
C           -3.69767573513854       -0.56751303725148        1.05667168266824
C           -2.31441706162558       -0.57063592325286        1.05735974606854
C           -1.61508338331569        0.00065009690029        0.00001481580001
C           -2.31531927942598        0.57155472085327       -1.05691721026835
C           -3.69861248153895        0.56701750985126       -1.05572189936782
C           -0.13766871146100        0.00052516480023       -0.00022141840010
C            0.59144471916208        1.18788656562638        0.06151083142726
C            1.97618025157570        1.20543396973416        0.06399346862836
C            2.65481477757642       -0.00049400040022       -0.00001308080001
C            1.97531113177531       -1.20594519893439       -0.06411049922841
C            0.59060639456171       -1.18740489272617       -0.06191159962743
Cl          -0.25623391461354       -2.69193571519287       -0.17020172527542
Cl           4.38233726224193       -0.00114880570051        0.00030361790013
Cl          -0.25442633271274        2.69301531879335        0.16943727117508
H           -5.47090882932430       -0.00153763290068        0.00057081340025
H           -4.23414757557626       -1.00905990164714        1.88262637593424
H           -1.77031618638447       -1.00598611314578        1.88219312563405
H           -1.77199991878522        1.00751204284646       -1.88191659213393
H           -4.23583318907701        1.00795595494665       -1.88150454823374
H            2.51001852231226        2.13929448834798        0.11706243225187
H            2.50842178611155       -2.14019429754838       -0.11689108345180
22
 energy: -1841.915625115746 gnorm: 0.016672069366 xtb: 6.7.1 (edcfbbe)
C           -4.40868904794252       -0.00065292711800        0.00052547746779
C           -3.71170546787004       -0.56323095772776        1.06526819658222
C           -2.32287148782032       -0.56156616288347        1.06767271971544
C           -1.62179532471438        0.00064500582302        0.00009137051903
C           -2.32367302511239        0.56246932553909       -1.06714367829560
C           -3.71254133987867        0.56277888218439       -1.06429996760964
C           -0.14223878838379        0.00044026024944       -0.00020594629363
C            0.59784792869389        1.18886422802186        0.06341245944306
C            1.98564281397897        1.20956280803926        0.06391589383900
C            2.66081874432031       -0.00046500522332        0.00004972816840
C            1.98488178388216       -1.21006043784758       -0.06405249998946
C            0.59711886281005       -1.18848844152852       -0.06385438241239
Cl          -0.22748136472577       -2.71517288741838       -0.19553854888463
Cl           4.39795229240814       -0.00105595547857        0.00028220741758
Cl          -0.22596408487091        2.71601773114798        0.19468761848256
H           -5.49246339987657       -0.00132681980363        0.00061099601476
H           -4.24932044344823       -1.00543223296617        1.89614842324867
H           -1.77655943074131       -0.99857139054378        1.89610236559859
H           -1.77807170604604        0.99993304093940       -1.89579402208349
H           -4.25084527957083        1.00445329781221       -1.89501396750530
H            2.52307835087558        2.14680376452734        0.12075770316860
H            2.52169290775419       -2.14765763624562       -0.12075972877394
22
 energy: -1841.915987353010 gnorm: 0.006700580035 xtb: 6.7.1 (edcfbbe)
C           -4.41918202500642       -0.00050618543290        0.00055633016776
C           -3.72055562884312       -0.55678604321893        1.07095712583483
C           -2.32875237106977       -0.55729802981919        1.07214226416860
C           -1.62551073597962        0.00048926301853        0.00011263134588
C           -2.32944138826648        0.55794117793781       -1.07162192500845
C           -3.72126602605360        0.55641119989593       -1.06997505744064
C           -0.14405383207520        0.00034509756904       -0.00016961430448
C            0.60430022017343        1.18557154545779        0.07233668934187
C            1.99374566976712        1.21112602529335        0.06833771585044
C            2.66636405358067       -0.00040735695473       -0.00000033876761
C            1.99311059414095       -1.21157712550780       -0.06853223213200
C            0.60369555523653       -1.18528742571555       -0.07273951829846
Cl          -0.21679367363827       -2.72340545891359       -0.21721806328259
Cl           4.41289249271777       -0.00090880155428        0.00024689324333
Cl          -0.21546034802817        2.72411108137803        0.21646935026710
H           -5.50509380883982       -0.00103178432809        0.00065520456783
H           -4.25910259666424       -0.99247175233353        1.90733903893776
H           -1.78265785576168       -0.98593382480288        1.90752606927780
H           -1.78395634709995        0.98697528235515       -1.90720390106444
H           -4.26040299384510        0.99168112985215       -1.90619499445332
H            2.53203875705111        2.14963678483394        0.12788797837477
H            2.53088999698735       -2.15038882517799       -0.12804657417648
22
 energy: -1841.916052665661 gnorm: 0.002597810273 xtb: 6.7.1 (edcfbbe)
C           -4.42050180419615       -0.00040579470134        0.00056439450466
C           -3.72172682257112       -0.55087257522826        1.07364044916663
C           -2.32979398884678       -0.55147321692708        1.07505340845154
C           -1.62588277008077        0.00038772292233        0.00012568778379
C           -2.33040444198832        0.55199128237233       -1.07452007249639
C           -3.72235299838534        0.55057157257019       -1.07265906848022
C           -0.14390672427077        0.00026218362940       -0.00014490455625
C            0.60635181991051        1.18335635540242        0.07699717126188
C            1.99561060722451        1.21117495227776        0.07367560054942
C            2.66695519567524       -0.00036763161429       -0.00003324424785
C            1.99508014887773       -1.21160539545754       -0.07391588330414
C            0.60584813437142       -1.18316802091773       -0.07737782103356
Cl          -0.21804922050669       -2.72298047771113       -0.22882657441179
Cl           4.41747645212060       -0.00078790107395        0.00017975326039
Cl          -0.21692731026433        2.72352342299704        0.22818090108829
H           -5.50637592331087       -0.00081037327268        0.00068242907687
H           -4.26042700523295       -0.98147092165192        1.91245644886803
H           -1.78464256596905       -0.97790619290219        1.91193542965849
H           -1.78578842949677        0.97870943503654       -1.91160872577589
H           -4.26157173729355        0.98083652587209       -1.91131283339308
H            2.53339610800460        2.14941171993226        0.13601845874547
H            2.53243667671585       -2.15009175975388       -0.13624407927552
22
 energy: -1841.916102893033 gnorm: 0.002699858644 xtb: 6.7.1 (edcfbbe)
C           -4.41951423082837       -0.00024169427376        0.00057891676217
C           -3.72091360015983       -0.54114474959678        1.07778755482597
C           -2.32943122829586       -0.54304405640522        1.07886387625488
C           -1.62553121026190        0.00022749245474        0.00013663567004
C           -2.32992735249791        0.54334862377383       -1.07833244665524
C           -3.72141671166706        0.54096325494419       -1.07681016198744
C           -0.14358226953006        0.00013526728855       -0.00010640646459
C            0.60710306775241        1.18101805015745        0.08577347138733
C            1.99578339441340        1.21110045255068        0.08299836033970
C            2.66581977781233       -0.00030625698631       -0.00009617362761
C            1.99541042615510       -1.21149955388887       -0.08329231359984
C            0.60674949344141       -1.18097926703128       -0.08609538797746
Cl          -0.22261142464549       -2.72093438274119       -0.24419012817507
Cl           4.42003640078761       -0.00060306698251        0.00004804919868
Cl          -0.22180867466936        2.72122675961461        0.24371837003971
H           -5.50495676111894       -0.00048950332796        0.00071480451842
H           -4.25956971562900       -0.96394014801687        1.92007302943775
H           -1.78525421862793       -0.96405793303191        1.91856676656280
H           -1.78617308449016        0.96452506054667       -1.91822839318603
H           -4.26048601398256        0.96355030487082       -1.91893225600719
H            2.53287284551721        2.14864345460995        0.15158032563650
H            2.53219747051480       -2.14921487092733       -0.15188660922443
22
 energy: -1841.916133285217 gnorm: 0.003620316737 xtb: 6.7.1 (edcfbbe)
C           -4.41782207794609       -0.00011837381666        0.00058373218602
C           -3.71942652180405       -0.53297156653718        1.08155931587650
C           -2.32829580102079       -0.53535128073348        1.08251819375119
C           -1.62499853756620        0.00010144401378        0.00014580274183
C           -2.32870147949048        0.53549135100084       -1.08198769945028
C           -3.71983513491687        0.53288234237289       -1.08059021287980
C           -0.14316119562722        0.00003305002272       -0.00007404057458
C            0.60656211676410        1.18007893081442        0.09288198262785
C            1.99476893156904        1.21064918447668        0.09136204589112
C            2.66410755573411       -0.00025696192716       -0.00014531599799
C            1.99451946526552       -1.21102284549765       -0.09168873299986
C            0.60632472258735       -1.18016262905704       -0.09315031858597
Cl          -0.22638999624894       -2.71854885033423       -0.25750498010696
Cl           4.41914931383583       -0.00045480383169       -0.00008330466764
Cl          -0.22584165179668        2.71863686120239        0.25718991918362
H           -5.50300610706842       -0.00023392210621        0.00073745033836
H           -4.25800263922886       -0.94873285469122        1.92710673373181
H           -1.78421892243374       -0.95089641411567        1.92473408782145
H           -1.78495766231040        0.95110054203918       -1.92438823301060
H           -4.25874166822000        0.94854351191440       -1.92597136037861
H            2.53160375762605        2.14746837323022        0.16676670418456
H            2.53115352123127       -2.14795335276762       -0.16712923734060
22
 energy: -1841.916193912823 gnorm: 0.004897433426 xtb: 6.7.1 (edcfbbe)
C           -4.41416566038946        0.00022849311205        0.00059593122322
C           -3.71625767824033       -0.50805131268615        1.09369974139681
C           -2.32562297087403       -0.51186763596413        1.09415588563300
C           -1.62408212645138       -0.00024598670210        0.00017356747163
C           -2.32577679375211        0.51154620877738       -1.09362961294335
C           -3.71640332079638        0.50821589440059       -1.09275622253626
C           -0.14249555359658       -0.00024844870456        0.00002498543285
C            0.60474512296594        1.17821062545026        0.11500631229113
C            1.99230852801276        1.20919295149815        0.11657063664871
C            2.66055305480698       -0.00012180838988       -0.00028816828801
C            1.99239608124849       -1.20949552915089       -0.11698484852645
C            0.60482587237646       -1.17863317699144       -0.11510433254060
Cl          -0.23432382150516       -2.71220896023987       -0.29890419557403
Cl           4.41630649793634       -0.00004462978583       -0.00047152315842
Cl          -0.23446810175877        2.71173401091893        0.29903940207831
H           -5.49904187852784        0.00046309287417        0.00078912468685
H           -4.25482421789455       -0.90368850993228        1.94884175154572
H           -1.78085690555416       -0.90996696992242        1.94437647811740
H           -1.78109976406335        0.90946035670068       -1.94400070148651
H           -4.25507392216613        0.90404573758308       -1.94773031340543
H            2.52898190997497        2.14407345091723        0.21248930729248
H            2.52914619800533       -2.14432069167655       -0.21301259805491
22
 energy: -1841.916235437930 gnorm: 0.003469282950 xtb: 6.7.1 (edcfbbe)
C           -4.41276324572890        0.00045811980593        0.00058856222310
C           -3.71518168906021       -0.48778059847225        1.10335078273027
C           -2.32436535719884       -0.49184272922336        1.10397162585055
C           -1.62367424670985       -0.00048011945259        0.00020789031243
C           -2.32434504166785        0.49121836438610       -1.10342393724189
C           -3.71514987725910        0.48812365394872       -1.10242812011506
C           -0.14204941211721       -0.00044303077528        0.00010943905337
C            0.60343339917813        1.17700695853337        0.13322220407536
C            1.99111416870603        1.20741176689743        0.13693736821261
C            2.65956347021111       -0.00002785868164       -0.00039065859707
C            1.99142637325943       -1.20766665800978       -0.13741275998039
C            0.60372417437859       -1.17767086542336       -0.13318239776993
Cl          -0.23752726104608       -2.70642573342274       -0.33499536050587
Cl           4.41403248917689        0.00024396207513       -0.00077504092718
Cl          -0.23814320704598        2.70554689829595        0.33545627569303
H           -5.49763982626384        0.00093353095578        0.00079621436196
H           -4.25387639845551       -0.86687589000045        1.96613160464825
H           -1.77841594075495       -0.87416417108307        1.96114596156314
H           -1.77832377262594        0.87318838643501       -1.96072043929625
H           -4.25379761527347        0.86760642392802       -1.96505513546400
H            2.52806952804632        2.14060137350194        0.24953884756504
H            2.52864368266433       -2.14068842960897       -0.25018561194226
22
 energy: -1841.916264539595 gnorm: 0.001067495306 xtb: 6.7.1 (edcfbbe)
C           -4.41335865009739        0.00059203384133        0.00056399674959
C           -3.71585894746725       -0.46904406459112        1.11169129767765
C           -2.32451126971717       -0.47291972013930        1.11255598028496
C           -1.62389467557900       -0.00061674337066        0.00025099751918
C           -2.32438144470814        0.47212431068697       -1.11196224280689
C           -3.71571747038436        0.46949015392707       -1.11079191012903
C           -0.14185083751124       -0.00056371144491        0.00018285262051
C            0.60298986564218        1.17563071914242        0.14999186815952
C            1.99127775459177        1.20504896313044        0.15440483639944
C            2.66079215743811        0.00002917152044       -0.00046586761767
C            1.99171369034466       -1.20527874937720       -0.15492430398657
C            0.60339732704067       -1.17645185975105       -0.14984352091946
Cl          -0.23677177531221       -2.70051581868662       -0.37074728382095
Cl           4.41308674503225        0.00043295821172       -0.00101224022904
Cl          -0.23766283282792        2.69936895793507        0.37144737735730
H           -5.49855251082920        0.00120119564144        0.00075377582572
H           -4.25489963551480       -0.83376840854723        1.98053874186606
H           -1.77743894674238       -0.83980613680633        1.97612539744096
H           -1.77714861996993        0.83858781089536       -1.97561256616624
H           -4.25462299822222        0.83472322221403       -1.97950775264312
H            2.52867791266184        2.13648605372431        0.28068836423331
H            2.52947489646056       -2.13648046081702       -0.28143441052370
22
 energy: -1841.916271758689 gnorm: 0.000952146165 xtb: 6.7.1 (edcfbbe)
C           -4.41517100785224        0.00053597192625        0.00053753691876
C           -3.71751662083195       -0.46077135387726        1.11465906458455
C           -2.32576233447623       -0.46403467849855        1.11580949328597
C           -1.62444596505230       -0.00056142457778        0.00027910567581
C           -2.32564847550330        0.46332084828938       -1.11517018308333
C           -3.71739430749666        0.46117197053335       -1.11376906659328
C           -0.14181216354472       -0.00052422692427        0.00020162150243
C            0.60384366249837        1.17439537023806        0.15748811933048
C            1.99265958365742        1.20348485820286        0.16074035917504
C            2.66310025556319        0.00001129956601       -0.00047168450171
C            1.99303075999474       -1.20372765609440       -0.16126087693575
C            0.60419170889700       -1.17517346787762       -0.15731962313393
Cl          -0.23389139130192       -2.69691205081207       -0.38958353858468
Cl           4.41433761433927        0.00039290674968       -0.00104976370711
Cl          -0.23466178873944        2.69582520962061        0.39031047994489
H           -5.50064913964754        0.00107705505958        0.00068545385137
H           -4.25689114951178       -0.81923659444485        1.98571391205778
H           -1.77860535507726       -0.82380478182504        1.98196976462997
H           -1.77836435234892        0.82272189580001       -1.98139570315746
H           -4.25665548744958        0.82010967837104       -1.98471029464101
H            2.53018241130412        2.13414919658597        0.29086550033415
H            2.53085698281247       -2.13418166789614       -0.29163370863638
22
 energy: -1841.916273833915 gnorm: 0.000511733113 xtb: 6.7.1 (edcfbbe)
C           -4.41505417185042        0.00049865454027        0.00053278860760
C           -3.71736162131950       -0.45543392639947        1.11709839257489
C           -2.32568143094022       -0.45890614078301        1.11810310480830
C           -1.62440237531990       -0.00052549713423        0.00028204103940
C           -2.32557420761010        0.45824750327779       -1.11745564034622
C           -3.71724535699336        0.45580584663416       -1.11620986596344
C           -0.14162001669319       -0.00049387336497        0.00020200078743
C            0.60412506884214        1.17362268431046        0.16225513788288
C            1.99284283054522        1.20322042959435        0.16514275858807
C            2.66302457450605       -0.00000189135054       -0.00047916613403
C            1.99317879472038       -1.20346989120906       -0.16566846057172
C            0.60444063240055       -1.17436005124423       -0.16208396719599
Cl          -0.23490319407576       -2.69500908925180       -0.40042475179148
Cl           4.41492565012492        0.00034912059816       -0.00105293628507
Cl          -0.23559707822424        2.69398107080713        0.40118336834186
H           -5.50049348834362        0.00099664447069        0.00067132721139
H           -4.25678242555552       -0.80989429871450        1.98998815357510
H           -1.77887140595728       -0.81499268775681        1.98610166757559
H           -1.77864575935657        0.81398359423005       -1.98552218734413
H           -4.25655869964102        0.81070558524353       -1.98899075346950
H            2.53018685100433        2.13373591359629        0.29821160176656
H            2.53079624344326       -2.13379230296641       -0.29898700271305
22
 energy: -1841.916273833915 gnorm: 0.000511733113 xtb: 6.7.1 (edcfbbe)
C           -4.41505417185042        0.00049865454027        0.00053278860760
C           -3.71736162131950       -0.45543392639947        1.11709839257489
C           -2.32568143094022       -0.45890614078301        1.11810310480830
C           -1.62440237531990       -0.00052549713423        0.00028204103940
C           -2.32557420761010        0.45824750327779       -1.11745564034622
C           -3.71724535699336        0.45580584663416       -1.11620986596344
C           -0.14162001669319       -0.00049387336497        0.00020200078743
C            0.60412506884214        1.17362268431046        0.16225513788288
C            1.99284283054522        1.20322042959435        0.16514275858807
C            2.66302457450605       -0.00000189135054       -0.00047916613403
C            1.99317879472038       -1.20346989120906       -0.16566846057172
C            0.60444063240055       -1.17436005124423       -0.16208396719599
Cl          -0.23490319407576       -2.69500908925180       -0.40042475179148
Cl           4.41492565012492        0.00034912059816       -0.00105293628507
Cl          -0.23559707822424        2.69398107080713        0.40118336834186
H           -5.50049348834362        0.00099664447069        0.00067132721139
H           -4.25678242555552       -0.80989429871450        1.98998815357510
H           -1.77887140595728       -0.81499268775681        1.98610166757559
H           -1.77864575935657        0.81398359423005       -1.98552218734413
H           -4.25655869964102        0.81070558524353       -1.98899075346950
H            2.53018685100433        2.13373591359629        0.29821160176656
H            2.53079624344326       -2.13379230296641       -0.29898700271305
