
                                 *****************
                                 * O   R   C   A *
                                 *****************

                                            #,                                       
                                            ###                                      
                                            ####                                     
                                            #####                                    
                                            ######                                   
                                           ########,                                 
                                     ,,################,,,,,                         
                               ,,#################################,,                 
                          ,,##########################################,,             
                       ,#########################################, ''#####,          
                    ,#############################################,,   '####,        
                  ,##################################################,,,,####,       
                ,###########''''           ''''###############################       
              ,#####''   ,,,,##########,,,,          '''####'''          '####       
            ,##' ,,,,###########################,,,                        '##       
           ' ,,###''''                  '''############,,,                           
         ,,##''                                '''############,,,,        ,,,,,,###''
      ,#''                                            '''#######################'''  
     '                                                          ''''####''''         
             ,#######,   #######,   ,#######,      ##                                
            ,#'     '#,  ##    ##  ,#'     '#,    #''#        ,####,   ,####,        
            ##       ##  ##   ,#'  ##            #'  '#       #'       #'  '#        
            ##       ##  #######   ##           ,######,      #####,   #    #        
            '#,     ,#'  ##    ##  '#,     ,#' ,#      #,     #,   #   #,  ,#        
             '#######'   ##     ##  '#######'  #'      '#     '####' # '####'        



                #########################################################
                #                        -***-                          #
                #          Department of theory and spectroscopy        #
                #                                                       #
                #                      Frank Neese                      #
                #                                                       #
                #     Directorship, Architecture, Infrastructure        #
                #                    SHARK, DRIVERS                     #
                #        Core code/Algorithms in most modules           #
                #                                                       #
                #        Max Planck Institute fuer Kohlenforschung      #
                #                Kaiser Wilhelm Platz 1                 #
                #                 D-45470 Muelheim/Ruhr                 #
                #                      Germany                          #
                #                                                       #
                #                  All rights reserved                  #
                #                        -***-                          #
                #########################################################


                         Program Version 6.0.0  -   RELEASE  -


 With contributions from (in alphabetic order):
   Daniel Aravena         : Magnetic Suceptibility
   Michael Atanasov       : Ab Initio Ligand Field Theory (pilot matlab implementation)
   Alexander A. Auer      : GIAO ZORA, VPT2 properties, NMR spectrum
   Ute Becker             : All parallelization in ORCA, NUMFREQ, NUMCALC
   Giovanni Bistoni       : ED, misc. LED, open-shell LED, HFLD
   Martin Brehm           : Molecular dynamics
   Dmytro Bykov           : pre 5.0 version of the SCF Hessian
   Marcos Casanova-Páez   : Triplet and SCS-CIS(D). UHF-(DLPNO)-IP/EA/STEOM-CCSD. UHF-CVS-IP/STEOM-CCSD
   Vijay G. Chilkuri      : MRCI spin determinant printing, contributions to CSF-ICE
   Pauline Colinet        : FMM embedding
   Dipayan Datta          : RHF DLPNO-CCSD density
   Achintya Kumar Dutta   : EOM-CC, STEOM-CC
   Nicolas Foglia         : Exact transition moments, OPA infrastructure, MCD improvements
   Dmitry Ganyushin       : Spin-Orbit,Spin-Spin,Magnetic field MRCI
   Miquel Garcia          : C-PCM and meta-GGA Hessian, CCSD/C-PCM, Gaussian charge scheme
   Tiago L. C. Gouveia    : GS-ROHF, GS-ROCIS
   Yang Guo               : DLPNO-NEVPT2, F12-NEVPT2, CIM, IAO-localization
   Andreas Hansen         : Spin unrestricted coupled pair/coupled cluster methods
   Ingolf Harden          : AUTO-CI MPn and infrastructure 
   Benjamin Helmich-Paris : MC-RPA, TRAH-(SCF,CASSCF), AVAS, COSX integrals, SCF dyn. polar.
   Lee Huntington         : MR-EOM, pCC
   Robert Izsak           : Overlap fitted RIJCOSX, COSX-SCS-MP3, EOM
   Riya Kayal             : Wick's Theorem for AUTO-CI, AUTO-CI UHF-CCSDT
   Emily Kempfer          : AUTO-CI, RHF CISDT and CCSDT
   Christian Kollmar      : KDIIS, OOCD, Brueckner-CCSD(T), CCSD density, CASPT2, CASPT2-K, improved NEVPT2
   Axel Koslowski         : Symmetry handling
   Simone Kossmann        : Meta GGA functionals, TD-DFT gradient, OOMP2, (MP2 Hessian; deprecated post 5.0)
   Lucas Lang             : DCDCAS
   Marvin Lechner         : AUTO-CI (C++ implementation), FIC-MRCC
   Spencer Leger          : CASSCF response
   Dagmar Lenk            : GEPOL surface, SMD, ORCA-2-JSON
   Dimitrios Liakos       : Extrapolation schemes; Compound Job, initial MDCI parallelization
   Dimitrios Manganas     : Further ROCIS development; embedding schemes. LFT, Crystal Embedding
   Dimitrios Pantazis     : SARC Basis sets
   Anastasios Papadopoulos: AUTO-CI, single reference methods and gradients
   Taras Petrenko         : pre 6.0 DFT Hessian and TD-DFT gradient, (ASA, deprecated), ECA, 1-Electron XAS/XES, NRVS
   Peter Pinski           : DLPNO-MP2, DLPNO-MP2 Gradient
   Christoph Reimann      : Effective Core Potentials
   Marius Retegan         : Local ZFS, SOC
   Christoph Riplinger    : Optimizer, TS searches, QM/MM, DLPNO-CCSD(T), (RO)-DLPNO pert. Triples
   Michael Roemelt        : Original ROCIS implementation
   Masaaki Saitow         : Open-shell DLPNO-CCSD energy and density
   Barbara Sandhoefer     : DKH picture change effects
   Kantharuban Sivalingam : CASSCF convergence/infrastructure, NEVPT2 and variants, FIC-MRCI
   Bernardo de Souza      : ESD, SOC TD-DFT
   Georgi Stoychev        : AutoAux, RI-MP2 NMR, DLPNO-MP2 response, X2C
   Van Anh Tran           : RI-MP2 g-tensors
   Willem Van den Heuvel  : Paramagnetic NMR
   Zikuan Wang            : NOTCH, Electric field optimization 
   Frank Wennmohs         : Technical directorship and infrastructure
   Hang Xu                : AUTO-CI-Response properties 


 We gratefully acknowledge several colleagues who have allowed us to
 interface, adapt or use parts of their codes:
   Stefan Grimme, W. Hujo, H. Kruse, P. Pracht,  : VdW corrections, initial TS optimization,
                  C. Bannwarth, S. Ehlert,         DFT functionals, gCP, sTDA/sTD-DF
                  L. Wittmann, M. Mueller
   Ed Valeev, F. Pavosevic, A. Kumar             : LibInt (2-el integral package), F12 methods
   Garnet Chan, S. Sharma, J. Yang, R. Olivares  : DMRG
   Ulf Ekstrom                                   : XCFun DFT Library
   Mihaly Kallay                                 : mrcc  (arbitrary order and MRCC methods)
   Frank Weinhold                                : gennbo (NPA and NBO analysis)
   Simon Mueller                                 : openCOSMO-RS
   Christopher J. Cramer and Donald G. Truhlar   : smd solvation model
   Lars Goerigk                                  : TD-DFT with DH, B97 family of functionals
   V. Asgeirsson, H. Jonsson                     : NEB implementation
   FAccTs GmbH                                   : IRC, NEB, NEB-TS, DLPNO-Multilevel, CI-OPT
                                                   MM, QMMM, 2- and 3-layer-ONIOM, Crystal-QMMM,
                                                   LR-CPCM, SF, NACMEs, symmetry and pop. for TD-DFT,
                                                   nearIR, NL-DFT gradient (VV10), updates on ESD,
                                                   ML-optimized integration grids, MBIS, APM,
                                                   GOAT, DOCKER, SOLVATOR, interface openCOSMO-RS
   S Lehtola, MJT Oliveira, MAL Marques          : LibXC Library
   Liviu Ungur et al                             : ANISO software


 Your calculation uses the libint2 library for the computation of 2-el integrals
 For citations please refer to: http://libint.valeyev.net

 Your ORCA version has been built with support for libXC version: 6.2.2
 For citations please refer to: https://libxc.gitlab.io

 This ORCA versions uses:
   CBLAS   interface :  Fast vector & matrix operations
   LAPACKE interface :  Fast linear algebra routines
   SCALAPACK package :  Parallel linear algebra routines
   Shared memory     :  Shared parallel matrices
   BLAS/LAPACK       :  OpenBLAS 0.3.27  USE64BITINT DYNAMIC_ARCH NO_AFFINITY SkylakeX SINGLE_THREADED
        Core in use  :  SkylakeX
   Copyright (c) 2011-2014, The OpenBLAS Project


Your calculation utilizes the geometrical counterpoise correction gCP
Please cite in your paper:
H.Kruse, S. Grimme J.Chem.Phys., 136, (2012), 154101 
   

Your calculation utilizes the atom-pairwise dispersion correction
based on EEQ partial charges (D4)


================================================================================

----- Orbital basis set information -----
Your calculation utilizes the basis: def2-mTZVPP
   Stefan Grimme, Andreas Hansen, Sebastian Ehlert, and Jan-Michael Mewes 
   J. Chem. Phys. 154, 064103 (2021). DOI: 10.1063/5.0040021

----- AuxJ basis set information -----
Your calculation utilizes the auxiliary basis: def2/J
   F. Weigend, Phys. Chem. Chem. Phys. 8, 1057 (2006).

================================================================================
                                        WARNINGS
                       Please study these warnings very carefully!
================================================================================

Using LibXC functional ID 497 : Re-regularized SCAN exchange by Furness et al
[ 1]  J. W. Furness, A. D. Kaplan, J. Ning, J. P. Perdew, and J. Sun.,  J. Phys. Chem. Lett. 11, 8208-8215 (2020)
[ 2]  J. W. Furness, A. D. Kaplan, J. Ning, J. P. Perdew, and J. Sun.,  J. Phys. Chem. Lett. 11, 9248-9248 (2020)
Using LibXC functional ID 498 : Re-regularized SCAN correlation by Furness et al
[ 1]  J. W. Furness, A. D. Kaplan, J. Ning, J. P. Perdew, and J. Sun.,  J. Phys. Chem. Lett. 11, 8208-8215 (2020)
[ 2]  J. W. Furness, A. D. Kaplan, J. Ning, J. P. Perdew, and J. Sun.,  J. Phys. Chem. Lett. 11, 9248-9248 (2020)
Using LibXC functional ID 497 : Re-regularized SCAN exchange by Furness et al
[ 1]  J. W. Furness, A. D. Kaplan, J. Ning, J. P. Perdew, and J. Sun.,  J. Phys. Chem. Lett. 11, 8208-8215 (2020)
[ 2]  J. W. Furness, A. D. Kaplan, J. Ning, J. P. Perdew, and J. Sun.,  J. Phys. Chem. Lett. 11, 9248-9248 (2020)
Using LibXC functional ID 498 : Re-regularized SCAN correlation by Furness et al
[ 1]  J. W. Furness, A. D. Kaplan, J. Ning, J. P. Perdew, and J. Sun.,  J. Phys. Chem. Lett. 11, 8208-8215 (2020)
[ 2]  J. W. Furness, A. D. Kaplan, J. Ning, J. P. Perdew, and J. Sun.,  J. Phys. Chem. Lett. 11, 9248-9248 (2020)

================================================================================
                                       INPUT FILE
================================================================================
NAME = sp_gas.inp
|  1> ! r2scan-3c def2/J RI DEFGRID2 scfconv6 printgap
|  2> %output
|  3>     printlevel normal
|  4> end
|  5> * xyz 0 1
|  6> C -2.5522675706 -0.884783973 0.3236379777
|  7> C -1.121851023 -0.4230179572 0.6375816682
|  8> H -0.9978308545 -0.3268973324 1.7264675149
|  9> C -0.8332457534 0.9397026922 -0.0046109094
| 10> H -1.0806652325 0.8742387539 -1.0769424808
| 11> C 0.6507860047 1.2932528262 0.16067528
| 12> H 0.8459220974 1.4916541826 1.2217231261
| 13> C 1.564426413 0.1456111172 -0.2925221414
| 14> H 1.5003275344 0.0186453666 -1.3851401616
| 15> C 1.117729641 -1.1773086588 0.3461562288
| 16> H 1.3163929491 -1.1165455943 1.4357781867
| 17> O -0.2545916211 -1.4192046687 0.1305118688
| 18> O 1.8180389636 -2.2051746214 -0.2445454447
| 19> O 2.8916354877 0.3795034038 0.099071085
| 20> O 0.9735966837 2.492792975 -0.5031844674
| 21> O -1.6499248897 1.8923174366 0.6287259805
| 22> O -2.7444888863 -1.1022854953 -1.0488796443
| 23> H -3.2456734057 -0.0968302709 0.6200467675
| 24> H -2.7625784302 -1.796798274 0.8943416394
| 25> H 1.5102248142 -3.0576933504 0.1025157212
| 26> H 3.1400259682 1.2787535347 -0.1699280633
| 27> H 0.8171198632 2.3940112569 -1.4548851688
| 28> H -1.3567705434 2.778730306 0.3651990988
| 29> H -2.1090020958 -1.7740022671 -1.3382597922
| 30> *
| 31> 
| 32>                          ****END OF INPUT****
================================================================================

                       ****************************
                       * Single Point Calculation *
                       ****************************

---------------------------------
CARTESIAN COORDINATES (ANGSTROEM)
---------------------------------
  C     -2.552268   -0.884784    0.323638
  C     -1.121851   -0.423018    0.637582
  H     -0.997831   -0.326897    1.726468
  C     -0.833246    0.939703   -0.004611
  H     -1.080665    0.874239   -1.076942
  C      0.650786    1.293253    0.160675
  H      0.845922    1.491654    1.221723
  C      1.564426    0.145611   -0.292522
  H      1.500328    0.018645   -1.385140
  C      1.117730   -1.177309    0.346156
  H      1.316393   -1.116546    1.435778
  O     -0.254592   -1.419205    0.130512
  O      1.818039   -2.205175   -0.244545
  O      2.891635    0.379503    0.099071
  O      0.973597    2.492793   -0.503184
  O     -1.649925    1.892317    0.628726
  O     -2.744489   -1.102285   -1.048880
  H     -3.245673   -0.096830    0.620047
  H     -2.762578   -1.796798    0.894342
  H      1.510225   -3.057693    0.102516
  H      3.140026    1.278754   -0.169928
  H      0.817120    2.394011   -1.454885
  H     -1.356771    2.778730    0.365199
  H     -2.109002   -1.774002   -1.338260

----------------------------
CARTESIAN COORDINATES (A.U.)
----------------------------
  NO LB      ZA    FRAG     MASS         X           Y           Z
   0 C     6.0000    0    12.011   -4.823087   -1.671999    0.611587
   1 C     6.0000    0    12.011   -2.119991   -0.799388    1.204855
   2 H     1.0000    0     1.008   -1.885627   -0.617746    3.262551
   3 C     6.0000    0    12.011   -1.574606    1.775781   -0.008713
   4 H     1.0000    0     1.008   -2.042161    1.652072   -2.035126
   5 C     6.0000    0    12.011    1.229807    2.443894    0.303632
   6 H     1.0000    0     1.008    1.598561    2.818818    2.308722
   7 C     6.0000    0    12.011    2.956337    0.275165   -0.552787
   8 H     1.0000    0     1.008    2.835208    0.035235   -2.617536
   9 C     6.0000    0    12.011    2.112203   -2.224791    0.654140
  10 H     1.0000    0     1.008    2.487622   -2.109965    2.713228
  11 O     8.0000    0    15.999   -0.481108   -2.681908    0.246632
  12 O     8.0000    0    15.999    3.435596   -4.167176   -0.462124
  13 O     8.0000    0    15.999    5.464399    0.717158    0.187217
  14 O     8.0000    0    15.999    1.839831    4.710696   -0.950881
  15 O     8.0000    0    15.999   -3.117906    3.575962    1.188120
  16 O     8.0000    0    15.999   -5.186332   -2.083018   -1.982095
  17 H     1.0000    0     1.008   -6.133434   -0.182983    1.171719
  18 H     1.0000    0     1.008   -5.220517   -3.395457    1.690061
  19 H     1.0000    0     1.008    2.853911   -5.778203    0.193727
  20 H     1.0000    0     1.008    5.933789    2.416494   -0.321118
  21 H     1.0000    0     1.008    1.544133    4.524026   -2.749335
  22 H     1.0000    0     1.008   -2.563925    5.251039    0.690126
  23 H     1.0000    0     1.008   -3.985436   -3.352378   -2.528945

--------------------------------
INTERNAL COORDINATES (ANGSTROEM)
--------------------------------
 C      0   0   0     0.000000000000     0.00000000     0.00000000
 C      1   0   0     1.535538991299     0.00000000     0.00000000
 H      2   1   0     1.100132975531   109.49048798     0.00000000
 C      2   1   3     1.533855233282   110.90647038   240.42673769
 H      4   2   1     1.102450418330   108.19534934   307.25345127
 C      4   2   1     1.534492580858   109.97240499   187.56968838
 H      6   4   2     1.096933783147   108.53628114   291.00450106
 C      6   4   2     1.535320224148   111.80774857    50.46680759
 H      8   6   4     1.101836242882   110.13463562    68.63949344
 C      8   6   4     1.535436355050   110.37280754   310.42556720
 H     10   8   6     1.109249868664   108.01693314   291.86476035
 O     10   8   6     1.410064472291   111.55104691    52.26192805
 O     10   8   6     1.376905970453   108.46741868   170.52097979
 O      8   6   4     1.403401148873   110.84437783   191.29124143
 O      6   4   2     1.408478990712   111.53740754   175.63902430
 O      4   2   1     1.405544477782   107.70725952    66.56951571
 O      1   2   3     1.402875820988   111.98044088   183.57954256
 H      1   2   3     1.090660744446   108.62799533    65.74169242
 H      1   2   3     1.096222337107   108.81198168   306.32251472
 H     13  10   8     0.970561274079   109.93769871   183.70055245
 H     14   8   6     0.970932114266   108.60174178   310.20802617
 H     15   6   4     0.969524134939   109.81006581   297.91563263
 H     16   4   2     0.970110129403   108.74122894   168.70649140
 H     17   1   2     0.968910600838   108.04830978    58.74982948

---------------------------
INTERNAL COORDINATES (A.U.)
---------------------------
 C      0   0   0     0.000000000000     0.00000000     0.00000000
 C      1   0   0     2.901748161513     0.00000000     0.00000000
 H      2   1   0     2.078950034649   109.49048798     0.00000000
 C      2   1   3     2.898566319985   110.90647038   240.42673769
 H      4   2   1     2.083329366872   108.19534934   307.25345127
 C      4   2   1     2.899770732355   109.97240499   187.56968838
 H      6   4   2     2.072904437194   108.53628114   291.00450106
 C      6   4   2     2.901334751511   111.80774857    50.46680759
 H      8   6   4     2.082168743476   110.13463562    68.63949344
 C      8   6   4     2.901554207110   110.37280754   310.42556720
 H     10   8   6     2.096178465863   108.01693314   291.86476035
 O     10   8   6     2.664635683802   111.55104691    52.26192805
 O     10   8   6     2.601975196316   108.46741868   170.52097979
 O      8   6   4     2.652043827401   110.84437783   191.29124143
 O      6   4   2     2.661639557828   111.53740754   175.63902430
 O      4   2   1     2.656094132054   107.70725952    66.56951571
 O      1   2   3     2.651051101567   111.98044088   183.57954256
 H      1   2   3     2.061050112021   108.62799533    65.74169242
 H      1   2   3     2.071559999019   108.81198168   306.32251472
 H     13  10   8     1.834095004200   109.93769871   183.70055245
 H     14   8   6     1.834795790592   108.60174178   310.20802617
 H     15   6   4     1.832135095262   109.81006581   297.91563263
 H     16   4   2     1.833242464315   108.74122894   168.70649140
 H     17   1   2     1.830975683837   108.04830978    58.74982948

---------------------
BASIS SET INFORMATION
---------------------
There are 3 groups of distinct atoms

 Group   1 Type C   : 11s6p1d contracted to 5s3p1d pattern {62111/411/1}
 Group   2 Type H   : 4s1p contracted to 2s1p pattern {31/1}
 Group   3 Type O   : 11s6p2d contracted to 5s3p2d pattern {62111/411/11}

Atom   0C    basis set group =>   1
Atom   1C    basis set group =>   1
Atom   2H    basis set group =>   2
Atom   3C    basis set group =>   1
Atom   4H    basis set group =>   2
Atom   5C    basis set group =>   1
Atom   6H    basis set group =>   2
Atom   7C    basis set group =>   1
Atom   8H    basis set group =>   2
Atom   9C    basis set group =>   1
Atom  10H    basis set group =>   2
Atom  11O    basis set group =>   3
Atom  12O    basis set group =>   3
Atom  13O    basis set group =>   3
Atom  14O    basis set group =>   3
Atom  15O    basis set group =>   3
Atom  16O    basis set group =>   3
Atom  17H    basis set group =>   2
Atom  18H    basis set group =>   2
Atom  19H    basis set group =>   2
Atom  20H    basis set group =>   2
Atom  21H    basis set group =>   2
Atom  22H    basis set group =>   2
Atom  23H    basis set group =>   2
---------------------------------
AUXILIARY/J BASIS SET INFORMATION
---------------------------------
There are 3 groups of distinct atoms

 Group   1 Type C   : 12s5p4d2f1g contracted to 6s4p3d1f1g pattern {711111/2111/211/2/1}
 Group   2 Type H   : 5s2p1d contracted to 3s1p1d pattern {311/2/1}
 Group   3 Type O   : 12s5p4d2f1g contracted to 6s4p3d1f1g pattern {711111/2111/211/2/1}

Atom   0C    basis set group =>   1
Atom   1C    basis set group =>   1
Atom   2H    basis set group =>   2
Atom   3C    basis set group =>   1
Atom   4H    basis set group =>   2
Atom   5C    basis set group =>   1
Atom   6H    basis set group =>   2
Atom   7C    basis set group =>   1
Atom   8H    basis set group =>   2
Atom   9C    basis set group =>   1
Atom  10H    basis set group =>   2
Atom  11O    basis set group =>   3
Atom  12O    basis set group =>   3
Atom  13O    basis set group =>   3
Atom  14O    basis set group =>   3
Atom  15O    basis set group =>   3
Atom  16O    basis set group =>   3
Atom  17H    basis set group =>   2
Atom  18H    basis set group =>   2
Atom  19H    basis set group =>   2
Atom  20H    basis set group =>   2
Atom  21H    basis set group =>   2
Atom  22H    basis set group =>   2
Atom  23H    basis set group =>   2

Checking for AutoStart:
The File: sp_gas.gbw exists
Trying to determine its content:
     ... Fine, the file contains calculation information
     ... Fine, the calculation information was read
     ... Fine, the file contains a basis set
     ... Fine, the basis set was read
     ... Fine, the file contains a geometry
     ... Fine, the geometry was read
     ... Fine, the file contains a set of orbitals
     ... Fine, the orbitals can be read
     => possible old guess file was deleted
     => GBW file was renamed to GES file
     => GES file is set as startup file
     => Guess is set to MORead
     ... now leaving AutoStart

------------------------------------------------------------------------------
                             ORCA STARTUP CALCULATIONS
                           -- RI-GTO INTEGRALS CHOSEN --
------------------------------------------------------------------------------
------------------------------------------------------------------------------
                   ___                                                        
                  /   \      - P O W E R E D   B Y -                         
                 /     \                                                     
                 |  |  |   _    _      __       _____    __    __             
                 |  |  |  | |  | |    /  \     |  _  \  |  |  /  |          
                  \  \/   | |  | |   /    \    | | | |  |  | /  /          
                 / \  \   | |__| |  /  /\  \   | |_| |  |  |/  /          
                |  |  |   |  __  | /  /__\  \  |    /   |      \           
                |  |  |   | |  | | |   __   |  |    \   |  |\   \          
                \     /   | |  | | |  |  |  |  | |\  \  |  | \   \       
                 \___/    |_|  |_| |__|  |__|  |_| \__\ |__|  \__/        
                                                                              
                      - O R C A' S   B I G   F R I E N D -                    
                                      &                                       
                       - I N T E G R A L  F E E D E R -                       
                                                                              
 v1 FN, 2020, v2 2021, v3 2022-2024                                           
------------------------------------------------------------------------------


----------------------
SHARK INTEGRAL PACKAGE
----------------------

Number of atoms                             ...     24
Number of basis functions                   ...    318
Number of shells                            ...    150
Maximum angular momentum                    ...      2
Integral batch strategy                     ... SHARK/LIBINT Hybrid
RI-J (if used) integral strategy            ... SPLIT-RIJ (Revised 2003 algorithm where possible)
Printlevel                                  ...      1
Contraction scheme used                     ... SEGMENTED contraction
Prescreening option                         ... SCHWARTZ
   Thresh                                   ... 1.000e-10
   Tcut                                     ... 1.000e-11
   Tpresel                                  ... 1.000e-11 
Coulomb Range Separation                    ... NOT USED
Exchange Range Separation                   ... NOT USED
Multipole approximations                    ... NOT USED
Finite Nucleus Model                        ... NOT USED
CABS basis                                  ... NOT available
Auxiliary Coulomb fitting basis             ... AVAILABLE
   # of basis functions in Aux-J            ...    720
   # of shells in Aux-J                     ...    240
   Maximum angular momentum in Aux-J        ...      4
Auxiliary J/K fitting basis                 ... NOT available
Auxiliary Correlation fitting basis         ... NOT available
Auxiliary 'external' fitting basis          ... NOT available

Checking pre-screening integrals            ... done (  0.0 sec) Dimension = 150
Check shell pair data                       ... done (  0.0 sec)
Shell pair information
Shell pair cut-off parameter TPreSel        ...   1.0e-11
Total number of shell pairs                 ...     11325
Shell pairs after pre-screening             ...      9676
Total number of primitive shell pairs       ...     40203
Primitive shell pairs kept                  ...     23476
          la=0 lb=0:   2926 shell pairs
          la=1 lb=0:   3453 shell pairs
          la=1 lb=1:   1040 shell pairs
          la=2 lb=0:   1324 shell pairs
          la=2 lb=1:    774 shell pairs
          la=2 lb=2:    159 shell pairs

Calculating one electron integrals          ... done (  0.0 sec)
Calculating RI/J V-Matrix + Cholesky decomp.... done (  0.1 sec)
Calculating Nuclear repulsion               ... done (  0.0 sec) ENN=    831.859676165106 Eh

Diagonalization of the overlap matrix:
Smallest eigenvalue                        ... 2.714e-05
Time for diagonalization                   ...    0.009 sec
Threshold for overlap eigenvalues          ... 1.000e-07
Number of eigenvalues below threshold      ... 0
Time for construction of square roots      ...    0.019 sec
Total time needed                          ...    0.039 sec

-------------------
DFT GRID GENERATION
-------------------

General Integration Accuracy     IntAcc      ... 4.388
Radial Grid Type                 RadialGrid  ... OptM3 with GC (2021)
Angular Grid (max. ang.)         AngularGrid ... 4 (Lebedev-302)
Angular grid pruning method      GridPruning ... 4 (adaptive)
Weight generation scheme         WeightScheme... mBecke (2022)
Basis function cutoff            BFCut       ... 1.0000e-10
Integration weight cutoff        WCut        ... 1.0000e-14
Partially contracted basis set               ... off
Rotationally invariant grid construction     ... off
Angular grids for H and He will be reduced by one unit
Diffuse basis detected: some atoms will have their outermost
                        angular grid increased by 1.

Total number of grid points                  ...   112055
Total number of batches                      ...     1763
Average number of points per batch           ...       63
Average number of grid points per atom       ...     4669
Initializing property integral containers    ... done (  0.0 sec)

SHARK setup successfully completed in   1.6 seconds

Maximum memory used throughout the entire STARTUP-calculation: 54.8 MB
-------------------------------------------------------------------------------
                                 ORCA GUESS
                   Start orbitals & Density for SCF / CASSCF
-------------------------------------------------------------------------------

------------
SCF SETTINGS
------------
Hamiltonian:
 Density Functional     Method          .... DFT(GTOs)
  Functional kind                       .... Exchange
  Functional name                       .... Re-regularized SCAN exchange by Furness et al
  Functional family                     .... MGGA
  Functional refs                              
    [ 0] J. W. Furness, A. D. Kaplan, J. Ning, J. P. Perdew, and J. Sun.,  J. Phys. Chem. Lett. 11, 8208-8215 (2020), doi: 10.1021/acs.jpclett.0c02405
    [ 1] J. W. Furness, A. D. Kaplan, J. Ning, J. P. Perdew, and J. Sun.,  J. Phys. Chem. Lett. 11, 9248-9248 (2020), doi: 10.1021/acs.jpclett.0c03077
  Functional external parameters        .... 6
    Parameter  0 _c1        =  6.670000e-01 : c1 parameter        
    Parameter  1 _c2        =  8.000000e-01 : c2 parameter        
    Parameter  2 _d         =  1.240000e+00 : d parameter         
    Parameter  3 _k1        =  6.500000e-02 : k1 parameter        
    Parameter  4 _eta       =  1.000000e-03 : eta parameter       
    Parameter  5 _dp2       =  3.610000e-01 : dp2 parameter       
  Functional kind                       .... Correlation
  Functional name                       .... Re-regularized SCAN correlation by Furness et al
  Functional family                     .... MGGA
  Functional refs                              
    [ 0] J. W. Furness, A. D. Kaplan, J. Ning, J. P. Perdew, and J. Sun.,  J. Phys. Chem. Lett. 11, 8208-8215 (2020), doi: 10.1021/acs.jpclett.0c02405
    [ 1] J. W. Furness, A. D. Kaplan, J. Ning, J. P. Perdew, and J. Sun.,  J. Phys. Chem. Lett. 11, 9248-9248 (2020), doi: 10.1021/acs.jpclett.0c03077
  Functional external parameters        .... 1
    Parameter  0 _eta       =  1.000000e-03 : Regularization parameter
 Gradients option       PostSCFGGA      .... off
 RI-approximation to the Coulomb term is turned on
   Number of AuxJ basis functions       .... 720


General Settings:
 Integral files         IntName         .... sp_gas
 Hartree-Fock type      HFTyp           .... RHF
 Total Charge           Charge          ....    0
 Multiplicity           Mult            ....    1
 Number of Electrons    NEL             ....   96
 Basis Dimension        Dim             ....  318
 Nuclear Repulsion      ENuc            ....    831.8596761651 Eh

Convergence Acceleration:
 AO-DIIS                CNVDIIS         .... on
   Start iteration      DIISMaxIt       ....    12
   Startup error        DIISStart       ....  0.200000
   # of expansion vecs  DIISMaxEq       ....     5
   Bias factor          DIISBfac        ....   1.050
   Max. coefficient     DIISMaxC        ....  10.000
 MO-DIIS                CNVKDIIS        .... off
 Trust-Rad. Augm. Hess. CNVTRAH         .... auto
   Auto Start mean grad. ratio tolernc. ....  1.125000
   Auto Start start iteration           ....     1
   Auto Start num. interpolation iter.  ....    10
   Max. Number of Micro iterations      ....    24
   Max. Number of Macro iterations      .... Maxiter - #DIIS iter
   Number of Davidson start vectors     ....     2
   Converg. threshold    (grad. norm)   ....   3.330e-04
   Grad. Scal. Fac. for Micro threshold ....   0.100
   Minimum threshold for Micro iter.    ....   1.000e-02
   NR start threshold (gradient norm)   ....   1.000e-04
   Initial trust radius                 ....   0.400
   Minimum AH scaling param. (alpha)    ....   1.000
   Maximum AH scaling param. (alpha)    .... 1000.000
   Quad. conv. algorithm                .... NR
   White noise on init. David. guess    .... on
   Maximum white noise                  ....   0.010
   Pseudo random numbers                .... off
   Inactive MOs                         .... canonical
   Orbital update algorithm             .... Taylor
   Preconditioner                       .... Diag
   Full preconditioner red. dimension   ....   250
   COSX micro iterations for RIJONX calc.... off
 SOSCF                  CNVSOSCF        .... on
   Start iteration      SOSCFMaxIt      ....   150
   Startup grad/error   SOSCFStart      ....  0.003300
   Hessian update       SOSCFHessUp     .... L-BFGS
 Level Shifting         CNVShift        .... on
   Level shift para.    LevelShift      ....    0.2500
   Turn off err/grad.   ShiftErr        ....    0.0010
 Zerner damping         CNVZerner       .... off
 Static damping         CNVDamp         .... on
   Fraction old density DampFac         ....    0.7000
   Max. Damping (<1)    DampMax         ....    0.9800
   Min. Damping (>=0)   DampMin         ....    0.0000
   Turn off err/grad.   DampErr         ....    0.1000

SCF Procedure:
 Maximum # iterations   MaxIter         ....   125
 SCF integral mode      SCFMode         .... Direct
   Integral package                     .... SHARK and LIBINT hybrid scheme
 Reset frequency        DirectResetFreq ....    20
 Integral Threshold     Thresh          ....  1.000e-10 Eh
 Primitive CutOff       TCut            ....  1.000e-11 Eh

Convergence Tolerance:
 Convergence Check Mode ConvCheckMode   .... Total+1el-Energy
 Convergence forced     ConvForced      .... 0
 Energy Change          TolE            ....  1.000e-06 Eh
 1-El. energy change                    ....  1.000e-03 Eh
 Orbital Gradient       TolG            ....  3.330e-04
 Orbital Rotation angle TolX            ....  3.330e-04
 DIIS Error             TolErr          ....  1.000e-06

---------------------
INITIAL GUESS: MOREAD
---------------------
Guess MOs are being read from file: sp_gas.ges
Input Geometry matches current geometry (good)
Atom 0: N(Shells)= 9 and 6 - projection required
Input basis set needs projection
NBasis(read)= 192
NBasis(calc)= 318
Basis set overlap was calculated
Using GuessMode=FMatrix for the initial guess
C*T matrix was formed
Effective Fockian was calculated
Effective Fockian was diagonalized
Initial density was built
                      ------------------
                      INITIAL GUESS DONE (   0.1 sec)
                      ------------------
             **** ENERGY FILE WAS UPDATED (sp_gas.en.tmp) ****
Finished Guess after   0.3 sec
Maximum memory used throughout the entire GUESS-calculation: 26.8 MB

-------------------------------------------------------------------------------------------
                                      ORCA LEAN-SCF
                              memory conserving SCF solver
-------------------------------------------------------------------------------------------

----------------------------------------D-I-I-S--------------------------------------------
Iteration    Energy (Eh)           Delta-E    RMSDP     MaxDP     DIISErr   Damp  Time(sec)
-------------------------------------------------------------------------------------------
               ***  Starting incremental Fock matrix formation  ***
    1    -686.6857889361269827     0.00e+00  1.28e-02  9.74e-01  6.28e-01  0.700   5.2
    2    -686.8047202418463257    -1.19e-01  8.47e-03  5.55e-01  4.41e-01  0.700   4.5
    3    -686.8890071340945269    -8.43e-02  5.76e-03  3.39e-01  3.09e-01  0.700   4.5
    4    -686.9482179944245672    -5.92e-02  4.00e-03  2.21e-01  2.16e-01  0.700   4.4
                               ***Turning on AO-DIIS***
    5    -686.9897718659810835    -4.16e-02  2.79e-03  1.44e-01  1.52e-01  0.700   4.3
    6    -687.0189135358307340    -2.91e-02  1.95e-03  9.79e-02  1.06e-01  0.700   4.2
    7    -687.0393522735946590    -2.04e-02  1.37e-03  6.72e-02  7.42e-02  0.700   4.1
    8    -687.0536786819291137    -1.43e-02  3.19e-03  1.54e-01  5.20e-02  0.000   4.0
                              *** Initializing SOSCF ***
---------------------------------------S-O-S-C-F--------------------------------------
Iteration    Energy (Eh)           Delta-E    RMSDP     MaxDP     MaxGrad    Time(sec)
--------------------------------------------------------------------------------------
    9    -687.0871678184839766    -3.35e-02  1.48e-05  1.00e-03  1.92e-04     4.3
               *** Restarting incremental Fock matrix formation ***
   10    -687.0871679671374750    -1.49e-07  2.90e-05  2.38e-03  2.36e-05     5.1
                  *** Gradient check signals convergence ***

               *****************************************************
               *                     SUCCESS                       *
               *           SCF CONVERGED AFTER  10 CYCLES          *
               *****************************************************

             **** ENERGY FILE WAS UPDATED (sp_gas.en.tmp) ****

----------------
TOTAL SCF ENERGY
----------------

Total Energy       :       -687.08716796713747 Eh          -18696.59236 eV

Components:
Nuclear Repulsion  :        831.85967616510629 Eh           22636.05258 eV
Electronic Energy  :      -1518.94684413224377 Eh          -41332.64494 eV
One Electron Energy:      -2593.69591914887542 Eh          -70578.05408 eV
Two Electron Energy:       1074.74907501663165 Eh           29245.40914 eV

Virial components:
Potential Energy   :      -1371.48808895396951 Eh          -37320.08822 eV
Kinetic Energy     :        684.40092098683215 Eh           18623.49586 eV
Virial Ratio       :          2.00392496108338

DFT components:
N(Alpha)           :       47.999926613895 electrons
N(Beta)            :       47.999926613895 electrons
N(Total)           :       95.999853227790 electrons
E(X)               :      -85.271955540128 Eh       
E(C)               :       -3.192870329113 Eh       
E(XC)              :      -88.464825869241 Eh       

---------------
SCF CONVERGENCE
---------------

  Last Energy change         ...    1.4865e-07  Tolerance :   1.0000e-06
  Last MAX-Density change    ...    2.3763e-03  Tolerance :   1.0000e-05
  Last RMS-Density change    ...    2.8958e-05  Tolerance :   1.0000e-06
  Last DIIS Error            ...    1.9162e-04  Tolerance :   1.0000e-06
  Last Orbital Gradient      ...    2.3616e-05  Tolerance :   3.3300e-04
  Last Orbital Rotation      ...    3.6559e-05  Tolerance :   3.3300e-04


----------------
ORBITAL ENERGIES
----------------

  NO   OCC          E(Eh)            E(eV) 
   0   2.0000     -18.980672      -516.4904 
   1   2.0000     -18.978535      -516.4322 
   2   2.0000     -18.969958      -516.1988 
   3   2.0000     -18.962576      -515.9979 
   4   2.0000     -18.959595      -515.9168 
   5   2.0000     -18.952044      -515.7113 
   6   2.0000     -10.145885      -276.0836 
   7   2.0000     -10.098580      -274.7963 
   8   2.0000     -10.097387      -274.7639 
   9   2.0000     -10.095736      -274.7190 
  10   2.0000     -10.093838      -274.6673 
  11   2.0000     -10.080754      -274.3113 
  12   2.0000      -1.058014       -28.7900 
  13   2.0000      -1.026197       -27.9242 
  14   2.0000      -1.005984       -27.3742 
  15   2.0000      -0.994320       -27.0568 
  16   2.0000      -0.992150       -26.9978 
  17   2.0000      -0.981666       -26.7125 
  18   2.0000      -0.755472       -20.5574 
  19   2.0000      -0.741716       -20.1831 
  20   2.0000      -0.664650       -18.0861 
  21   2.0000      -0.623213       -16.9585 
  22   2.0000      -0.599129       -16.3031 
  23   2.0000      -0.565050       -15.3758 
  24   2.0000      -0.529124       -14.3982 
  25   2.0000      -0.513116       -13.9626 
  26   2.0000      -0.505614       -13.7585 
  27   2.0000      -0.480267       -13.0687 
  28   2.0000      -0.472483       -12.8569 
  29   2.0000      -0.460458       -12.5297 
  30   2.0000      -0.449588       -12.2339 
  31   2.0000      -0.440847       -11.9961 
  32   2.0000      -0.405140       -11.0244 
  33   2.0000      -0.395112       -10.7516 
  34   2.0000      -0.390088       -10.6148 
  35   2.0000      -0.384511       -10.4631 
  36   2.0000      -0.348406        -9.4806 
  37   2.0000      -0.342887        -9.3304 
  38   2.0000      -0.329764        -8.9733 
  39   2.0000      -0.320200        -8.7131 
  40   2.0000      -0.311802        -8.4846 
  41   2.0000      -0.299474        -8.1491 
  42   2.0000      -0.282072        -7.6756 
  43   2.0000      -0.275147        -7.4871 
  44   2.0000      -0.262994        -7.1564 
  45   2.0000      -0.246951        -6.7199 
  46   2.0000      -0.238445        -6.4884 
  47   2.0000      -0.232998        -6.3402 
  48   0.0000       0.024014         0.6535 
  49   0.0000       0.050947         1.3863 
  50   0.0000       0.053981         1.4689 
  51   0.0000       0.066740         1.8161 
  52   0.0000       0.078090         2.1250 
  53   0.0000       0.085960         2.3391 
  54   0.0000       0.095405         2.5961 
  55   0.0000       0.112101         3.0504 
  56   0.0000       0.123742         3.3672 
  57   0.0000       0.128103         3.4859 
  58   0.0000       0.144746         3.9387 
*Only the first 10 virtual orbitals were printed.

                    ********************************
                    * MULLIKEN POPULATION ANALYSIS *
                    ********************************

-----------------------
MULLIKEN ATOMIC CHARGES
-----------------------
   0 C :   -0.248292
   1 C :    0.049269
   2 H :    0.168836
   3 C :   -0.045391
   4 H :    0.191016
   5 C :   -0.128818
   6 H :    0.180462
   7 C :    0.080743
   8 H :    0.165676
   9 C :   -0.093040
  10 H :    0.144210
  11 O :   -0.222540
  12 O :   -0.380221
  13 O :   -0.415358
  14 O :   -0.428426
  15 O :   -0.432909
  16 O :   -0.426445
  17 H :    0.159797
  18 H :    0.139313
  19 H :    0.307903
  20 H :    0.310098
  21 H :    0.304059
  22 H :    0.308903
  23 H :    0.311157
Sum of atomic charges:   -0.0000000

--------------------------------
MULLIKEN REDUCED ORBITAL CHARGES
--------------------------------
  0 C s       :     3.348026  s :     3.348026
      pz      :     0.756972  p :     2.841239
      px      :     0.990144
      py      :     1.094123
      dz2     :     0.017206  d :     0.059026
      dxz     :     0.012868
      dyz     :     0.015292
      dx2y2   :     0.006156
      dxy     :     0.007503

  1 C s       :     3.110268  s :     3.110268
      pz      :     1.029606  p :     2.775463
      px      :     0.877063
      py      :     0.868793
      dz2     :     0.015370  d :     0.065000
      dxz     :     0.007745
      dyz     :     0.010963
      dx2y2   :     0.014966
      dxy     :     0.015956

  2 H s       :     0.814277  s :     0.814277
      pz      :     0.011400  p :     0.016887
      px      :     0.002813
      py      :     0.002674

  3 C s       :     3.210392  s :     3.210392
      pz      :     1.036612  p :     2.767572
      px      :     0.839964
      py      :     0.890996
      dz2     :     0.016671  d :     0.067427
      dxz     :     0.008449
      dyz     :     0.012201
      dx2y2   :     0.016278
      dxy     :     0.013828

  4 H s       :     0.791857  s :     0.791857
      pz      :     0.010919  p :     0.017127
      px      :     0.003372
      py      :     0.002837

  5 C s       :     3.232012  s :     3.232012
      pz      :     1.025999  p :     2.830227
      px      :     1.003942
      py      :     0.800286
      dz2     :     0.014220  d :     0.066579
      dxz     :     0.006760
      dyz     :     0.012441
      dx2y2   :     0.016159
      dxy     :     0.016998

  6 H s       :     0.802634  s :     0.802634
      pz      :     0.011028  p :     0.016905
      px      :     0.003327
      py      :     0.002550

  7 C s       :     3.080020  s :     3.080020
      pz      :     1.057511  p :     2.772252
      px      :     0.774630
      py      :     0.940111
      dz2     :     0.014923  d :     0.066985
      dxz     :     0.013559
      dyz     :     0.007181
      dx2y2   :     0.015670
      dxy     :     0.015652

  8 H s       :     0.817385  s :     0.817385
      pz      :     0.011389  p :     0.016939
      px      :     0.002312
      py      :     0.003239

  9 C s       :     3.366385  s :     3.366385
      pz      :     1.018539  p :     2.631644
      px      :     0.747128
      py      :     0.865978
      dz2     :     0.020216  d :     0.095011
      dxz     :     0.015710
      dyz     :     0.014268
      dx2y2   :     0.024003
      dxy     :     0.020813

 10 H s       :     0.839490  s :     0.839490
      pz      :     0.011523  p :     0.016301
      px      :     0.002327
      py      :     0.002451

 11 O s       :     3.730485  s :     3.730485
      pz      :     1.777827  p :     4.462046
      px      :     1.106189
      py      :     1.578031
      dz2     :     0.008209  d :     0.030009
      dxz     :     0.000279
      dyz     :     0.006185
      dx2y2   :     0.007389
      dxy     :     0.007947

 12 O s       :     3.745415  s :     3.745415
      pz      :     1.724811  p :     4.608996
      px      :     1.705890
      py      :     1.178295
      dz2     :     0.002581  d :     0.025811
      dxz     :     0.007117
      dyz     :     0.006711
      dx2y2   :     0.002082
      dxy     :     0.007320

 13 O s       :     3.775383  s :     3.775383
      pz      :     1.817476  p :     4.626356
      px      :     1.348189
      py      :     1.460691
      dz2     :     0.002496  d :     0.013620
      dxz     :     0.000034
      dyz     :     0.005510
      dx2y2   :     0.004532
      dxy     :     0.001048

 14 O s       :     3.750872  s :     3.750872
      pz      :     1.291135  p :     4.656063
      px      :     1.855205
      py      :     1.509724
      dz2     :     0.002798  d :     0.021491
      dxz     :     0.003867
      dyz     :     0.003570
      dx2y2   :     0.005272
      dxy     :     0.005985

 15 O s       :     3.772565  s :     3.772565
      pz      :     1.751685  p :     4.645504
      px      :     1.686744
      py      :     1.207076
      dz2     :     0.002234  d :     0.014840
      dxz     :     0.003296
      dyz     :     0.004645
      dx2y2   :     0.002089
      dxy     :     0.002577

 16 O s       :     3.757689  s :     3.757689
      pz      :     1.303598  p :     4.654519
      px      :     1.698001
      py      :     1.652919
      dz2     :     0.002371  d :     0.014238
      dxz     :     0.000901
      dyz     :    -0.000748
      dx2y2   :     0.003883
      dxy     :     0.007831

 17 H s       :     0.822720  s :     0.822720
      pz      :     0.002857  p :     0.017482
      px      :     0.006611
      py      :     0.008015

 18 H s       :     0.843543  s :     0.843543
      pz      :     0.004760  p :     0.017144
      px      :     0.003719
      py      :     0.008665

 19 H s       :     0.649614  s :     0.649614
      pz      :     0.012090  p :     0.042483
      px      :     0.011679
      py      :     0.018714

 20 H s       :     0.647006  s :     0.647006
      pz      :     0.012588  p :     0.042896
      px      :     0.009081
      py      :     0.021227

 21 H s       :     0.653606  s :     0.653606
      pz      :     0.021482  p :     0.042335
      px      :     0.012175
      py      :     0.008678

 22 H s       :     0.648013  s :     0.648013
      pz      :     0.011954  p :     0.043084
      px      :     0.011397
      py      :     0.019733

 23 H s       :     0.646176  s :     0.646176
      pz      :     0.009143  p :     0.042667
      px      :     0.016569
      py      :     0.016954


------------------------
MULLIKEN OVERLAP CHARGES
------------------------
B(  0-C ,  3-C ) :   0.2477 B(  0-C , 11-O ) :  -0.0522 B(  0-C , 16-O ) :   0.5833 
B(  0-C , 17-H ) :   0.8154 B(  0-C , 18-H ) :   0.9363 B(  0-C , 23-H ) :  -0.0655 
B(  1-C ,  2-H ) :   0.7046 B(  1-C ,  3-C ) :  -2.0334 B(  1-C ,  5-C ) :   0.4293 
B(  1-C ,  7-C ) :   0.6779 B(  1-C ,  9-C ) :  -1.0216 B(  1-C , 11-O ) :   0.1092 
B(  1-C , 16-O ) :  -0.3307 B(  1-C , 17-H ) :  -0.0517 B(  1-C , 18-H ) :  -0.2001 
B(  1-C , 22-H ) :   0.0528 B(  1-C , 23-H ) :  -0.0726 B(  2-H , 11-O ) :  -0.0778 
B(  3-C ,  4-H ) :   0.8995 B(  3-C ,  5-C ) :  -0.9312 B(  3-C ,  6-H ) :  -0.0546 
B(  3-C ,  7-C ) :  -0.9175 B(  3-C ,  8-H ) :   0.0599 B(  3-C ,  9-C ) :   0.7612 
B(  3-C , 13-O ) :   0.0778 B(  3-C , 14-O ) :  -0.2201 B(  3-C , 15-O ) :   0.1305 
B(  3-C , 16-O ) :   0.1206 B(  3-C , 22-H ) :  -0.1862 B(  4-H ,  5-C ) :  -0.1516 
B(  4-H , 15-O ) :  -0.0977 B(  5-C ,  6-H ) :   0.8036 B(  5-C ,  7-C ) :  -0.2353 
B(  5-C ,  8-H ) :  -0.1749 B(  5-C ,  9-C ) :  -0.0661 B(  5-C , 13-O ) :  -0.0767 
B(  5-C , 14-O ) :   0.6308 B(  5-C , 21-H ) :  -0.1751 B(  6-H ,  7-C ) :  -0.0599 
B(  6-H , 14-O ) :  -0.0980 B(  7-C ,  8-H ) :   0.8574 B(  7-C ,  9-C ) :  -1.2192 
B(  7-C , 10-H ) :  -0.1899 B(  7-C , 11-O ) :  -0.0629 B(  7-C , 13-O ) :   0.1691 
B(  7-C , 14-O ) :  -0.2013 B(  7-C , 20-H ) :  -0.1305 B(  8-H , 13-O ) :  -0.1026 
B(  9-C , 10-H ) :   1.0194 B(  9-C , 11-O ) :   0.2579 B(  9-C , 12-O ) :   0.4542 
B(  9-C , 13-O ) :   0.0546 B(  9-C , 19-H ) :  -0.0559 B( 10-H , 11-O ) :  -0.1584 
B( 10-H , 12-O ) :  -0.1102 B( 11-O , 12-O ) :  -0.1944 B( 12-O , 19-H ) :   0.5876 
B( 13-O , 20-H ) :   0.5956 B( 14-O , 21-H ) :   0.6030 B( 15-O , 22-H ) :   0.6016 
B( 16-O , 17-H ) :  -0.0988 B( 16-O , 18-H ) :  -0.0969 B( 16-O , 23-H ) :   0.5957 
B( 17-H , 18-H ) :  -0.0572 


                     *******************************
                     * LOEWDIN POPULATION ANALYSIS *
                     *******************************

----------------------
LOEWDIN ATOMIC CHARGES
----------------------
   0 C :    0.044572
   1 C :    0.116290
   2 H :    0.187704
   3 C :    0.101777
   4 H :    0.186517
   5 C :    0.092931
   6 H :    0.204652
   7 C :    0.117196
   8 H :    0.184023
   9 C :    0.309140
  10 H :    0.182281
  11 O :   -0.689305
  12 O :   -0.479187
  13 O :   -0.562142
  14 O :   -0.579765
  15 O :   -0.582810
  16 O :   -0.591111
  17 H :    0.196442
  18 H :    0.165034
  19 H :    0.283352
  20 H :    0.281918
  21 H :    0.273531
  22 H :    0.281598
  23 H :    0.275360

-------------------------------
LOEWDIN REDUCED ORBITAL CHARGES
-------------------------------
  0 C s       :     2.862281  s :     2.862281
      pz      :     0.868648  p :     2.961172
      px      :     1.014581
      py      :     1.077944
      dz2     :     0.039042  d :     0.131974
      dxz     :     0.027539
      dyz     :     0.034606
      dx2y2   :     0.013326
      dxy     :     0.017461

  1 C s       :     2.822328  s :     2.822328
      pz      :     1.033758  p :     2.920690
      px      :     0.967233
      py      :     0.919699
      dz2     :     0.035222  d :     0.140692
      dxz     :     0.014776
      dyz     :     0.023583
      dx2y2   :     0.033311
      dxy     :     0.033800

  2 H s       :     0.770880  s :     0.770880
      pz      :     0.027186  p :     0.041416
      px      :     0.007868
      py      :     0.006362

  3 C s       :     2.827577  s :     2.827577
      pz      :     1.042751  p :     2.925325
      px      :     0.963820
      py      :     0.918754
      dz2     :     0.037676  d :     0.145320
      dxz     :     0.016866
      dyz     :     0.025891
      dx2y2   :     0.036381
      dxy     :     0.028506

  4 H s       :     0.771758  s :     0.771758
      pz      :     0.026331  p :     0.041725
      px      :     0.008602
      py      :     0.006792

  5 C s       :     2.830539  s :     2.830539
      pz      :     1.020429  p :     2.932086
      px      :     1.001758
      py      :     0.909900
      dz2     :     0.033184  d :     0.144444
      dxz     :     0.011793
      dyz     :     0.026482
      dx2y2   :     0.035629
      dxy     :     0.037356

  6 H s       :     0.755889  s :     0.755889
      pz      :     0.025355  p :     0.039459
      px      :     0.007424
      py      :     0.006680

  7 C s       :     2.832962  s :     2.832962
      pz      :     1.051394  p :     2.906367
      px      :     0.871199
      py      :     0.983774
      dz2     :     0.034150  d :     0.143475
      dxz     :     0.028364
      dyz     :     0.013428
      dx2y2   :     0.033679
      dxy     :     0.033854

  8 H s       :     0.775499  s :     0.775499
      pz      :     0.027183  p :     0.040477
      px      :     0.005904
      py      :     0.007391

  9 C s       :     2.769746  s :     2.769746
      pz      :     0.996835  p :     2.715103
      px      :     0.816294
      py      :     0.901974
      dz2     :     0.046724  d :     0.206011
      dxz     :     0.031972
      dyz     :     0.029676
      dx2y2   :     0.053214
      dxy     :     0.044425

 10 H s       :     0.779746  s :     0.779746
      pz      :     0.026284  p :     0.037973
      px      :     0.005837
      py      :     0.005851

 11 O s       :     3.473311  s :     3.473311
      pz      :     1.786471  p :     4.706607
      px      :     1.309415
      py      :     1.610721
      dz2     :     0.082873  d :     0.509387
      dxz     :     0.108419
      dyz     :     0.058641
      dx2y2   :     0.133168
      dxy     :     0.126286

 12 O s       :     3.489089  s :     3.489089
      pz      :     1.740652  p :     4.723217
      px      :     1.686471
      py      :     1.296093
      dz2     :     0.053326  d :     0.266881
      dxz     :     0.026529
      dyz     :     0.058480
      dx2y2   :     0.075266
      dxy     :     0.053280

 13 O s       :     3.502990  s :     3.502990
      pz      :     1.818971  p :     4.778391
      px      :     1.461601
      py      :     1.497818
      dz2     :     0.042557  d :     0.280761
      dxz     :     0.063442
      dyz     :     0.018210
      dx2y2   :     0.081730
      dxy     :     0.074822

 14 O s       :     3.509297  s :     3.509297
      pz      :     1.387030  p :     4.780694
      px      :     1.814640
      py      :     1.579023
      dz2     :     0.088991  d :     0.289774
      dxz     :     0.020441
      dyz     :     0.058182
      dx2y2   :     0.060736
      dxy     :     0.061424

 15 O s       :     3.501465  s :     3.501465
      pz      :     1.771669  p :     4.791413
      px      :     1.696252
      py      :     1.323492
      dz2     :     0.055373  d :     0.289932
      dxz     :     0.032782
      dyz     :     0.052328
      dx2y2   :     0.083001
      dxy     :     0.066448

 16 O s       :     3.513304  s :     3.513304
      pz      :     1.439157  p :     4.799450
      px      :     1.686817
      py      :     1.673476
      dz2     :     0.085609  d :     0.278358
      dxz     :     0.069545
      dyz     :     0.081072
      dx2y2   :     0.011269
      dxy     :     0.030862

 17 H s       :     0.762979  s :     0.762979
      pz      :     0.005775  p :     0.040579
      px      :     0.015895
      py      :     0.018909

 18 H s       :     0.794449  s :     0.794449
      pz      :     0.010959  p :     0.040517
      px      :     0.008363
      py      :     0.021196

 19 H s       :     0.596460  s :     0.596460
      pz      :     0.033792  p :     0.120188
      px      :     0.031859
      py      :     0.054537

 20 H s       :     0.596238  s :     0.596238
      pz      :     0.033926  p :     0.121844
      px      :     0.023733
      py      :     0.064184

 21 H s       :     0.604589  s :     0.604589
      pz      :     0.065297  p :     0.121879
      px      :     0.032710
      py      :     0.023872

 22 H s       :     0.596232  s :     0.596232
      pz      :     0.032332  p :     0.122170
      px      :     0.031399
      py      :     0.058439

 23 H s       :     0.602526  s :     0.602526
      pz      :     0.024026  p :     0.122114
      px      :     0.048477
      py      :     0.049611


---------------------------------
LOEWDIN BOND ORDERS (THRESH 0.050000)
---------------------------------
B(  0-C ,  1-C ) :   0.9343 B(  0-C ,  3-C ) :   0.0631 B(  0-C , 11-O ) :   0.1523 
B(  0-C , 16-O ) :   1.4539 B(  0-C , 17-H ) :   0.8075 B(  0-C , 18-H ) :   0.8244 
B(  1-C ,  2-H ) :   0.7734 B(  1-C ,  3-C ) :   0.8765 B(  1-C ,  5-C ) :   0.0658 
B(  1-C ,  9-C ) :   0.0801 B(  1-C , 11-O ) :   1.3207 B(  1-C , 15-O ) :   0.1637 
B(  1-C , 16-O ) :   0.1549 B(  2-H , 11-O ) :   0.0965 B(  3-C ,  4-H ) :   0.7733 
B(  3-C ,  5-C ) :   0.8936 B(  3-C ,  7-C ) :   0.0672 B(  3-C , 11-O ) :   0.1469 
B(  3-C , 14-O ) :   0.1585 B(  3-C , 15-O ) :   1.4057 B(  4-H , 15-O ) :   0.0943 
B(  5-C ,  6-H ) :   0.7665 B(  5-C ,  7-C ) :   0.8876 B(  5-C ,  9-C ) :   0.0645 
B(  5-C , 13-O ) :   0.1586 B(  5-C , 14-O ) :   1.4203 B(  5-C , 15-O ) :   0.1574 
B(  6-H , 14-O ) :   0.0913 B(  7-C ,  8-H ) :   0.7777 B(  7-C ,  9-C ) :   0.8326 
B(  7-C , 11-O ) :   0.1383 B(  7-C , 12-O ) :   0.1565 B(  7-C , 13-O ) :   1.4046 
B(  7-C , 14-O ) :   0.1580 B(  8-H , 13-O ) :   0.0945 B(  9-C , 10-H ) :   0.7298 
B(  9-C , 11-O ) :   1.2505 B(  9-C , 12-O ) :   1.3824 B(  9-C , 13-O ) :   0.1544 
B(  9-C , 19-H ) :   0.0511 B( 10-H , 11-O ) :   0.0956 B( 10-H , 12-O ) :   0.0935 
B( 11-O , 12-O ) :   0.3246 B( 11-O , 16-O ) :   0.0756 B( 12-O , 13-O ) :   0.0500 
B( 12-O , 19-H ) :   0.9423 B( 13-O , 14-O ) :   0.0549 B( 13-O , 20-H ) :   0.9467 
B( 14-O , 15-O ) :   0.0542 B( 14-O , 21-H ) :   0.9605 B( 15-O , 22-H ) :   0.9482 
B( 16-O , 17-H ) :   0.0971 B( 16-O , 18-H ) :   0.1046 B( 16-O , 23-H ) :   0.9588 


------------------------------------------
LOEWDIN REDUCED ORBITAL POPULATIONS PER MO
-------------------------------------------
THRESHOLD FOR PRINTING IS 0.1%%
                      0         1         2         3         4         5   
                 -18.98067 -18.97853 -18.96996 -18.96258 -18.95959 -18.95204
                   2.00000   2.00000   2.00000   2.00000   2.00000   2.00000
                  --------  --------  --------  --------  --------  --------
11 O  s               0.0      99.9       0.0       0.0       0.0       0.0
12 O  s               0.0       0.0      99.9       0.0       0.0       0.0
13 O  s               0.0       0.0       0.0       0.0      99.9       0.0
14 O  s              99.9       0.0       0.0       0.0       0.0       0.0
15 O  s               0.0       0.0       0.0      99.9       0.0       0.0
16 O  s               0.0       0.0       0.0       0.0       0.0      99.9

                      6         7         8         9        10        11   
                 -10.14589 -10.09858 -10.09739 -10.09574 -10.09384 -10.08075
                   2.00000   2.00000   2.00000   2.00000   2.00000   2.00000
                  --------  --------  --------  --------  --------  --------
 0 C  s               0.0       0.0       0.0       0.0       0.0      99.4
 1 C  s               0.0       0.0      99.3       0.0       0.0       0.0
 3 C  s               0.0       0.0       0.0       0.0      99.3       0.0
 5 C  s               0.0      99.3       0.0       0.1       0.0       0.0
 7 C  s               0.0       0.1       0.0      99.3       0.0       0.0
 9 C  s              99.0       0.0       0.0       0.0       0.0       0.0
11 O  px              0.1       0.0       0.0       0.0       0.0       0.0
11 O  dx2y2           0.2       0.0       0.0       0.0       0.0       0.0
11 O  dxy             0.0       0.0       0.2       0.0       0.0       0.0
12 O  dxy             0.1       0.0       0.0       0.0       0.0       0.0
13 O  px              0.0       0.0       0.0       0.1       0.0       0.0
13 O  dx2y2           0.0       0.0       0.0       0.2       0.0       0.0
14 O  dyz             0.0       0.1       0.0       0.0       0.0       0.0
15 O  dxy             0.0       0.0       0.0       0.0       0.1       0.0
16 O  pz              0.0       0.0       0.0       0.0       0.0       0.1
16 O  dz2             0.0       0.0       0.0       0.0       0.0       0.3

                     12        13        14        15        16        17   
                  -1.05801  -1.02620  -1.00598  -0.99432  -0.99215  -0.98167
                   2.00000   2.00000   2.00000   2.00000   2.00000   2.00000
                  --------  --------  --------  --------  --------  --------
 0 C  s               0.6       0.0       2.4       4.3       0.3       2.7
 0 C  pz              0.0       0.0       1.0       3.4       0.2       3.9
 0 C  px              0.6       0.0       0.3       0.0       0.0       0.6
 0 C  py              0.0       0.0       0.0       0.3       0.0       0.1
 0 C  dz2             0.0       0.0       0.1       0.3       0.0       0.4
 1 C  s               4.4       0.0       2.8       0.8       0.1       1.3
 1 C  pz              0.6       0.0       0.5       0.3       0.0       0.1
 1 C  px              2.0       0.0       0.2       0.1       0.2       2.6
 1 C  py              1.5       0.8       0.1       1.7       0.4       0.8
 1 C  dxy             0.2       0.0       0.0       0.0       0.0       0.2
 2 H  s               0.3       0.0       0.2       0.0       0.0       0.1
 3 C  s               0.9       2.9       3.9       1.7       1.3       0.0
 3 C  pz              0.1       0.2       0.8       0.5       0.4       0.0
 3 C  px              0.1       0.3       1.6       0.9       1.3       0.1
 3 C  py              0.5       1.8       0.6       2.7       0.6       0.3
 3 C  dxy             0.0       0.0       0.1       0.1       0.1       0.0
 4 H  s               0.0       0.2       0.3       0.1       0.1       0.0
 5 C  s               0.8       9.0       0.0       0.0       0.5       0.0
 5 C  pz              0.1       1.9       0.1       0.1       0.5       0.0
 5 C  px              0.0       0.1       2.4       0.9       0.0       0.0
 5 C  py              0.3       3.8       0.0       0.0       2.9       0.2
 5 C  dyz             0.0       0.3       0.0       0.0       0.1       0.0
 5 C  dx2y2           0.0       0.1       0.0       0.0       0.1       0.0
 6 H  s               0.0       0.6       0.0       0.0       0.0       0.0
 7 C  s               2.3       1.9       2.7       0.4       3.6       0.2
 7 C  pz              0.3       0.1       0.2       0.0       0.3       0.0
 7 C  px              0.1       0.2       2.8       0.4       5.4       0.1
 7 C  py              1.0       2.2       0.0       0.3       0.1       0.1
 7 C  dx2y2           0.0       0.0       0.1       0.0       0.3       0.0
 8 H  s               0.1       0.1       0.2       0.0       0.2       0.0
 9 C  s              13.5       0.2       0.5       0.3       0.1       0.0
 9 C  pz              1.1       0.0       0.3       0.2       0.0       0.3
 9 C  px              1.2       0.1       3.4       1.5       0.4       6.0
 9 C  py              1.7       0.9       0.2       1.5       0.9       2.1
 9 C  dz2             0.2       0.0       0.0       0.0       0.0       0.0
 9 C  dyz             0.1       0.0       0.0       0.1       0.0       0.1
 9 C  dx2y2           0.1       0.0       0.1       0.1       0.0       0.3
 9 C  dxy             0.0       0.0       0.1       0.1       0.0       0.3
10 H  s               0.8       0.0       0.0       0.0       0.0       0.0
11 O  s              30.3       1.0       4.7       3.0       0.7      15.9
11 O  pz              0.3       0.0       0.1       0.0       0.0       0.2
11 O  px              0.9       0.1       0.5       0.4       0.0       0.1
11 O  py              0.7       0.0       0.4       0.2       0.0       0.7
11 O  dz2             0.5       0.0       0.0       0.0       0.0       0.1
11 O  dx2y2           0.5       0.1       0.1       0.0       0.0       0.4
11 O  dxy             0.1       0.0       0.0       0.0       0.0       0.1
12 O  s              19.5       1.5       7.5      10.2       0.7      19.6
12 O  pz              0.7       0.0       0.1       0.2       0.0       0.3
12 O  px              1.1       0.1       0.1       0.2       0.0       0.2
12 O  py              0.4       0.0       0.0       0.0       0.0       0.1
12 O  dz2             0.2       0.0       0.0       0.0       0.0       0.0
12 O  dxz             0.2       0.0       0.0       0.0       0.0       0.0
12 O  dyz             0.1       0.0       0.0       0.0       0.0       0.0
12 O  dx2y2           0.0       0.0       0.1       0.0       0.1       0.1
12 O  dxy             0.4       0.0       0.0       0.0       0.0       0.1
13 O  s               1.4       4.5      15.6       3.4      32.6       1.3
13 O  pz              0.0       0.1       0.2       0.0       0.3       0.0
13 O  px              0.2       0.2       0.5       0.1       0.7       0.0
13 O  py              0.0       0.1       0.2       0.1       0.4       0.0
14 O  s               0.7      41.9       0.7       0.9      15.5       0.3
14 O  pz              0.0       0.1       0.0       0.0       0.1       0.0
14 O  px              0.0       0.2       0.0       0.0       0.1       0.0
14 O  py              0.1       1.7       0.0       0.0       0.3       0.0
14 O  dyz             0.0       0.1       0.0       0.0       0.0       0.0
15 O  s               0.5       7.4      19.8      18.9      12.1       0.3
15 O  pz              0.0       0.2       0.4       0.3       0.2       0.0
15 O  px              0.0       0.4       0.5       0.5       0.3       0.0
16 O  s               0.5       0.0       8.1      24.0       1.7      25.6
16 O  pz              0.0       0.0       0.3       0.6       0.0       0.5
16 O  px              0.0       0.0       0.2       0.4       0.0       0.4
16 O  py              0.0       0.0       0.0       0.1       0.0       0.1
17 H  s               0.0       0.0       0.2       0.3       0.0       0.2
18 H  s               0.0       0.0       0.2       0.3       0.0       0.2
19 H  s               3.2       0.3       1.2       1.7       0.1       3.3
19 H  py              0.5       0.0       0.2       0.3       0.0       0.7
20 H  s               0.2       0.9       2.5       0.6       5.4       0.2
20 H  px              0.0       0.0       0.1       0.0       0.1       0.0
20 H  py              0.0       0.1       0.5       0.1       1.0       0.0
21 H  s               0.1       7.0       0.1       0.2       2.8       0.1
21 H  pz              0.0       1.5       0.0       0.0       0.6       0.0
22 H  s               0.1       1.4       3.2       3.2       2.0       0.0
22 H  py              0.0       0.2       0.7       0.6       0.4       0.0
23 H  s               0.1       0.0       1.4       4.2       0.3       4.3
23 H  pz              0.0       0.0       0.0       0.1       0.0       0.1
23 H  px              0.0       0.0       0.1       0.4       0.0       0.4
23 H  py              0.0       0.0       0.1       0.4       0.0       0.5

                     18        19        20        21        22        23   
                  -0.75547  -0.74172  -0.66465  -0.62321  -0.59913  -0.56505
                   2.00000   2.00000   2.00000   2.00000   2.00000   2.00000
                  --------  --------  --------  --------  --------  --------
 0 C  s               1.7       5.5      11.9       3.7       5.3       1.3
 0 C  pz              0.3       1.3       1.7       0.4       0.2       0.4
 0 C  px              0.6       1.9       0.1       0.2       3.3       2.0
 0 C  py              0.5       0.3       0.2       0.5       0.1       0.0
 1 C  s               6.3      11.5       1.2       0.3       2.6       4.3
 1 C  pz              0.1       0.0       0.5       0.1       0.0       5.4
 1 C  px              0.2       2.0       5.0       0.7       1.6       0.4
 1 C  py              3.6       0.1       0.5       6.6       1.1       0.0
 1 C  dyz             0.1       0.0       0.0       0.1       0.1       0.0
 1 C  dx2y2           0.0       0.0       0.1       0.1       0.0       0.0
 1 C  dxy             0.1       0.0       0.0       0.0       0.1       0.0
 2 H  s               1.1       1.9       0.4       0.1       0.5       4.8
 2 H  pz              0.1       0.2       0.0       0.0       0.1       0.3
 3 C  s              11.3       0.7       3.1       7.5       1.0       1.8
 3 C  pz              0.0       0.1       0.1       0.3       0.0       5.4
 3 C  px              2.5       1.6       2.4       1.6       0.2       0.0
 3 C  py              2.5       2.0       0.3       1.3       0.9       0.2
 4 H  s               1.7       0.1       0.7       2.6       0.2       2.8
 4 H  pz              0.2       0.0       0.1       0.2       0.0       0.2
 5 C  s              11.5       2.3       4.1       6.4       1.2       0.3
 5 C  pz              0.1       0.0       0.3       0.7       1.0       5.4
 5 C  px              0.9       0.7       1.7       4.1       1.3       0.3
 5 C  py              3.9       1.3       0.2       0.2       1.8       2.3
 6 H  s               2.0       0.4       1.2       2.9       0.9       1.9
 6 H  pz              0.2       0.0       0.1       0.3       0.1       0.1
 7 C  s               5.4       7.9       3.4       0.9       5.8       2.1
 7 C  pz              0.1       0.2       0.0       0.0       1.1       5.6
 7 C  px              3.2       2.2       0.1       0.4       0.1       0.2
 7 C  py              0.3       0.7       4.0       4.2       0.0       0.4
 8 H  s               0.8       1.4       0.9       0.1       2.6       3.1
 8 H  pz              0.1       0.1       0.1       0.0       0.2       0.2
 9 C  s               0.2       7.4       4.6       2.7       2.6       2.4
 9 C  pz              0.0       0.1       0.0       0.1       0.9       5.6
 9 C  px              1.3       0.2       1.6       0.1       2.1       2.1
 9 C  py              2.5       2.5       1.7       0.0       2.5       0.0
 9 C  dx2y2           0.2       0.0       0.0       0.0       0.1       0.0
10 H  s               0.0       1.2       1.3       0.8       1.0       4.0
10 H  pz              0.0       0.1       0.1       0.1       0.1       0.2
11 O  s               4.3       0.0       1.4       1.0       0.0       1.8
11 O  pz              0.1       0.2       0.1       0.0       0.0       3.8
11 O  px              0.7       9.6       0.2       2.3      12.9       0.5
11 O  py              1.4       0.4       0.1       0.3       2.4       0.8
11 O  dz2             0.3       0.0       0.1       0.0       0.0       0.0
11 O  dxz             0.1       0.4       0.0       0.1       0.3       0.1
11 O  dyz             0.1       0.2       0.0       0.0       0.0       0.7
11 O  dx2y2           0.2       0.1       1.0       0.0       0.3       0.2
11 O  dxy             0.1       2.4       0.1       0.0       0.1       0.1
12 O  s               0.0       2.5       0.8       0.5       1.0       0.1
12 O  pz              0.0       0.1       0.1       0.1       0.5       1.1
12 O  px              0.1       0.4       0.0       0.1       1.6       0.1
12 O  py              0.1       3.5       5.6       4.0       1.4       3.3
12 O  dz2             0.0       0.1       0.0       0.0       0.0       0.2
12 O  dxz             0.0       0.0       0.0       0.0       0.2       0.1
12 O  dyz             0.0       0.2       0.2       0.2       0.2       0.5
12 O  dx2y2           0.2       0.0       0.3       0.0       0.5       0.0
12 O  dxy             0.0       0.4       0.2       0.1       0.2       0.0
13 O  s               1.7       2.3       0.6       0.5       0.8       0.1
13 O  pz              0.0       0.0       0.0       0.0       0.3       0.8
13 O  px              1.3       2.2       1.9       0.7       4.7       0.2
13 O  py              0.3       0.9       2.1       0.1       2.4       0.0
13 O  dz2             0.1       0.1       0.0       0.0       0.0       0.0
13 O  dxz             0.0       0.1       0.1       0.0       0.3       0.5
13 O  dx2y2           0.4       0.6       0.1       0.2       0.4       0.1
13 O  dxy             0.0       0.1       0.4       0.3       0.0       0.0
14 O  s               2.7       0.6       0.8       0.8       0.0       0.3
14 O  pz              1.6       0.4       2.4       8.3       3.3       5.3
14 O  px              0.1       0.0       0.2       0.0       0.2       0.0
14 O  py              1.7       0.4       1.1       3.4       0.4       0.1
14 O  dz2             0.1       0.0       0.0       0.1       0.0       0.1
14 O  dyz             0.4       0.1       0.3       0.5       0.2       0.2
14 O  dx2y2           0.4       0.2       0.0       0.4       0.0       0.0
14 O  dxy             0.2       0.0       0.2       0.0       0.1       0.0
15 O  s               3.6       0.3       0.7       0.8       0.5       0.1
15 O  pz              0.2       0.0       0.1       0.5       0.1       0.9
15 O  px              0.6       0.0       0.7       0.3       0.4       0.0
15 O  py              3.4       0.8       0.5       8.3       1.4       0.5
15 O  dz2             0.1       0.0       0.0       0.0       0.0       0.1
15 O  dxz             0.1       0.0       0.1       0.1       0.0       0.1
15 O  dyz             0.3       0.0       0.1       0.3       0.1       0.3
15 O  dx2y2           0.0       0.2       0.2       0.1       0.1       0.0
15 O  dxy             0.7       0.0       0.3       0.5       0.0       0.0
16 O  s               0.5       2.0       1.7       0.5       0.3       0.2
16 O  pz              0.4       1.4       4.8       2.3       4.7       3.4
16 O  px              0.0       0.0       0.2       0.1       1.2       0.5
16 O  py              0.1       0.3       1.0       0.2       1.5       1.4
16 O  dz2             0.1       0.3       1.1       0.4       0.6       0.1
16 O  dxz             0.0       0.2       0.1       0.0       0.1       0.0
17 H  s               0.3       1.0       3.5       0.9       3.1       1.0
17 H  px              0.0       0.0       0.1       0.0       0.1       0.0
17 H  py              0.0       0.0       0.2       0.1       0.1       0.0
18 H  s               0.2       0.9       3.0       1.6       1.6       0.3
18 H  py              0.0       0.1       0.2       0.1       0.1       0.0
19 H  s               0.0       1.3       1.5       1.1       0.4       0.7
19 H  py              0.0       0.2       0.1       0.1       0.0       0.0
20 H  s               0.6       1.1       1.1       0.1       1.7       0.0
20 H  py              0.1       0.2       0.1       0.0       0.2       0.0
21 H  s               1.0       0.3       1.0       2.8       0.9       1.0
21 H  pz              0.2       0.0       0.1       0.3       0.1       0.0
22 H  s               1.5       0.3       0.2       2.2       0.5       0.1
22 H  py              0.2       0.0       0.0       0.2       0.0       0.0
23 H  s               0.2       0.6       1.5       0.5       1.7       1.2
23 H  px              0.0       0.1       0.1       0.0       0.1       0.1
23 H  py              0.0       0.1       0.1       0.0       0.1       0.1

                     24        25        26        27        28        29   
                  -0.52912  -0.51312  -0.50561  -0.48027  -0.47248  -0.46046
                   2.00000   2.00000   2.00000   2.00000   2.00000   2.00000
                  --------  --------  --------  --------  --------  --------
 0 C  s               0.0       0.1       0.0       1.1       0.1       0.0
 0 C  pz              0.1       0.1       1.2      12.2       0.2       0.3
 0 C  px              1.0       0.0       0.5       1.0       2.4       0.2
 0 C  py              0.2       0.7       0.2       6.5       1.7       1.2
 0 C  dz2             0.0       0.0       0.0       0.2       0.0       0.0
 1 C  s               0.1       0.0       1.2       0.4       0.2       1.2
 1 C  pz              3.4       0.6       2.7       2.5       2.6       3.9
 1 C  px              0.4       1.3       0.6       2.9       1.5       0.0
 1 C  py              1.7       1.1       1.4       2.4       0.0       2.5
 2 H  s               1.3       0.1       2.3       0.2       0.5       3.9
 2 H  pz              0.1       0.0       0.1       0.0       0.0       0.2
 3 C  s               0.3       0.1       0.8       0.4       0.1       0.1
 3 C  pz              1.9       4.5       1.7       1.1      11.1       0.7
 3 C  px              0.0       9.9       0.0       0.4       5.3       1.7
 3 C  py              0.4       0.4       1.2       4.0       1.4       0.9
 3 C  dxz             0.0       0.2       0.0       0.0       0.0       0.0
 3 C  dyz             0.0       0.0       0.0       0.0       0.0       0.1
 3 C  dxy             0.0       0.1       0.0       0.0       0.0       0.2
 4 H  s               0.8       0.8       1.2       0.6       4.9       0.4
 4 H  pz              0.0       0.0       0.1       0.0       0.2       0.0
 5 C  s               0.1       0.2       0.1       0.1       0.4       0.5
 5 C  pz              0.1       0.5       0.7       1.3       6.8       1.2
 5 C  px              0.5       4.7       1.3       1.3       5.5       3.8
 5 C  py              5.1       2.8       0.7       0.1       0.9       4.2
 5 C  dx2y2           0.0       0.0       0.0       0.1       0.1       0.0
 5 C  dxy             0.0       0.0       0.0       0.0       0.0       0.1
 6 H  s               0.0       0.1       0.1       0.3       2.4       1.2
 7 C  s               0.3       0.8       0.2       0.1       0.1       0.0
 7 C  pz              1.2       0.3       7.8       0.2       0.1       2.8
 7 C  px              1.4       2.8       5.7       0.2       0.4       3.1
 7 C  py              1.6       0.2       0.9       0.3       1.1       2.6
 7 C  dx2y2           0.0       0.0       0.2       0.0       0.1       0.2
 8 H  s               0.1       0.4       3.0       0.1       0.1       0.8
 8 H  pz              0.0       0.0       0.1       0.0       0.0       0.0
 9 C  s               0.2       0.4       0.1       0.1       1.1       0.0
 9 C  pz              7.3       0.7       6.5       1.4       6.9       1.1
 9 C  px              5.7       1.0       1.3       0.1       0.0       3.2
 9 C  py              1.5       0.3       1.0       0.8       0.1       0.0
 9 C  dxz             0.1       0.0       0.0       0.0       0.0       0.0
 9 C  dxy             0.1       0.1       0.1       0.1       0.0       0.1
10 H  s               1.9       0.8       2.2       0.5       4.6       0.8
10 H  pz              0.1       0.0       0.1       0.0       0.2       0.0
11 O  s               0.8       0.9       0.4       0.1       0.4       0.4
11 O  pz              2.6       0.3       0.4       0.4       0.3       0.2
11 O  px              6.2       1.4       3.0       0.1       0.0       8.0
11 O  py              0.3       2.6       0.1       5.7       0.1       0.3
11 O  dxz             0.3       0.0       0.6       0.0       0.7       0.2
11 O  dyz             0.2       0.0       0.0       0.0       0.1       0.1
11 O  dx2y2           0.3       0.0       0.0       0.5       0.1       0.3
11 O  dxy             0.1       0.0       0.0       0.0       0.1       0.2
12 O  s               0.1       0.0       0.0       0.4       0.5       0.1
[...]
12 O  dyz             0.1       0.0      14.7       1.1       0.2       0.0
12 O  dx2y2           4.9       0.0       5.5       0.5       0.0       0.0
12 O  dxy             0.4       0.0      13.8       0.9       0.2       0.0
13 O  s               0.9       0.1       0.0       2.9       2.3       1.0
13 O  pz              0.1       0.0       0.0       0.2       0.2       0.1
13 O  px              0.5       0.0       0.2       2.6       1.6       0.8
13 O  py              0.0       0.2       0.3       7.6       5.6       2.6
13 O  dz2             0.4       0.1       0.0       1.2       0.9       0.3
13 O  dxz             0.1       0.0       0.0       0.9       0.5       0.2
13 O  dyz             0.1       0.1       0.1       3.4       2.5       1.1
13 O  dx2y2           0.1       0.2       0.3      12.0       8.2       3.8
13 O  dxy             0.1       0.1       0.0       1.3       0.9       0.4
14 O  s               0.1       6.3       0.0       0.0       0.1       0.0
14 O  pz              0.0      18.6       0.0       0.0       0.1       0.9
14 O  px              0.0       0.1       0.0       0.0       0.0       0.0
14 O  py              0.0       0.5       0.0       0.0       0.0       0.1
14 O  dz2             0.0      29.0       0.0       0.0       0.1       1.3
14 O  dxz             0.0       3.4       0.0       0.0       0.0       0.2
14 O  dyz             0.0       4.5       0.0       0.0       0.0       0.2
14 O  dx2y2           0.0       0.7       0.0       0.0       0.0       0.0
15 O  s               0.0       0.1       0.5       2.6       1.6       1.7
15 O  px              0.0       0.0       0.0       0.1       0.1       0.1
15 O  py              0.0       0.3       1.4       9.1       4.2       6.1
15 O  dz2             0.0       0.1       0.2       1.5       0.7       0.9
15 O  dyz             0.0       0.2       0.7       4.6       2.2       2.8
15 O  dx2y2           0.0       0.2       0.7       4.5       2.2       2.7
15 O  dxy             0.0       0.2       0.9       6.2       2.9       3.8
16 O  s               0.0       0.1       0.1       0.2       3.1       3.6
16 O  pz              0.0       0.1       0.0       0.0       2.1       3.2
16 O  px              0.0       0.1       0.1       0.1       2.7       3.2
16 O  py              0.0       0.2       0.0       0.1       3.6       4.3
16 O  dz2             0.0       0.2       0.0       0.1       4.8       6.4
16 O  dxz             0.0       0.1       0.0       0.0       1.8       2.3
16 O  dyz             0.0       0.0       0.0       0.1       1.1       1.2
16 O  dxy             0.1       0.4       0.1       0.3       9.5      11.1
19 H  s               1.0       0.0      11.3       0.9       0.1       0.0
19 H  pz              0.1       0.0       1.8       0.2       0.0       0.0
19 H  px              0.2       0.0       1.5       0.1       0.0       0.0
19 H  py              1.5       0.0      10.1       0.7       0.1       0.0
20 H  s               0.1       0.2       0.1       6.4       4.5       2.0
20 H  pz              0.0       0.0       0.0       0.6       0.4       0.2
20 H  px              0.0       0.0       0.0       0.4       0.4       0.2
20 H  py              0.1       0.1       0.1       6.4       4.6       2.0
21 H  s               0.0      12.3       0.0       0.0       0.0       0.5
21 H  pz              0.0      14.5       0.0       0.0       0.1       0.7
21 H  px              0.0       0.4       0.0       0.0       0.0       0.0
21 H  py              0.0       0.2       0.0       0.0       0.0       0.0
22 H  s               0.0       0.3       0.9       5.6       2.8       3.6
22 H  pz              0.0       0.0       0.1       0.5       0.2       0.3
22 H  px              0.0       0.0       0.1       0.6       0.3       0.4
22 H  py              0.0       0.2       0.9       5.5       2.8       3.5
23 H  s               0.0       0.2       0.1       0.2       5.8       6.9
23 H  pz              0.0       0.0       0.0       0.0       0.6       0.7
23 H  px              0.0       0.1       0.0       0.1       3.0       3.6
23 H  py              0.0       0.1       0.0       0.1       3.5       4.0

                    306       307       308       309       310       311   
                  22.07883  22.14608  22.16423  22.16830  22.25004  22.28936
                   0.00000   0.00000   0.00000   0.00000   0.00000   0.00000
                  --------  --------  --------  --------  --------  --------
 0 C  s              63.6      12.5      13.5       3.9       1.5       4.5
 1 C  s              10.4       1.7      19.3       4.0      64.2       0.0
 3 C  s               0.1      14.0      17.7      46.6       1.2      19.9
 5 C  s              12.5      41.6      26.0       4.2       7.1       8.2
 7 C  s               2.8      11.4      16.5      39.9      25.3       3.7
 9 C  s              10.2      18.5       6.4       1.1       0.2      63.1

                    312       313       314       315       316       317   
                  43.66236  43.71752  43.73039  43.81169  43.81992  43.90860
                   0.00000   0.00000   0.00000   0.00000   0.00000   0.00000
                  --------  --------  --------  --------  --------  --------
11 O  s               2.3       0.2       0.3       0.1       0.0      96.9
12 O  s               0.9       4.4      82.6       0.2      11.2       0.7
13 O  s               7.7       4.3       8.4      57.2      22.1       0.0
14 O  s              22.2      56.6       0.5       2.2      17.4       1.1
15 O  s               4.4       0.8       7.2      40.0      47.0       0.4
16 O  s              62.5      33.5       0.9       0.0       2.0       0.9



                      *****************************
                      * MAYER POPULATION ANALYSIS *
                      *****************************

  NA   - Mulliken gross atomic population
  ZA   - Total nuclear charge
  QA   - Mulliken gross atomic charge
  VA   - Mayer's total valence
  BVA  - Mayer's bonded valence
  FA   - Mayer's free valence

  ATOM       NA         ZA         QA         VA         BVA        FA
  0 C      6.2483     6.0000    -0.2483     4.0283     4.0283    -0.0000
  1 C      5.9507     6.0000     0.0493     3.3032     3.3032     0.0000
  2 H      0.8312     1.0000     0.1688     0.9539     0.9539    -0.0000
  3 C      6.0454     6.0000    -0.0454     3.5762     3.5762    -0.0000
  4 H      0.8090     1.0000     0.1910     0.9446     0.9446    -0.0000
  5 C      6.1288     6.0000    -0.1288     3.7241     3.7241    -0.0000
  6 H      0.8195     1.0000     0.1805     0.9516     0.9516     0.0000
  7 C      5.9193     6.0000     0.0807     3.4820     3.4820     0.0000
  8 H      0.8343     1.0000     0.1657     0.9557     0.9557     0.0000
  9 C      6.0930     6.0000    -0.0930     3.9807     3.9807    -0.0000
 10 H      0.8558     1.0000     0.1442     0.9518     0.9518    -0.0000
 11 O      8.2225     8.0000    -0.2225     1.7004     1.7004     0.0000
 12 O      8.3802     8.0000    -0.3802     1.9211     1.9211    -0.0000
 13 O      8.4154     8.0000    -0.4154     1.8151     1.8151     0.0000
 14 O      8.4284     8.0000    -0.4284     1.8963     1.8963    -0.0000
 15 O      8.4329     8.0000    -0.4329     1.8134     1.8134    -0.0000
 16 O      8.4264     8.0000    -0.4264     1.8452     1.8452     0.0000
 17 H      0.8402     1.0000     0.1598     0.9520     0.9520    -0.0000
 18 H      0.8607     1.0000     0.1393     0.9511     0.9511    -0.0000
 19 H      0.6921     1.0000     0.3079     0.9086     0.9086    -0.0000
 20 H      0.6899     1.0000     0.3101     0.9113     0.9113     0.0000
 21 H      0.6959     1.0000     0.3041     0.9096     0.9096    -0.0000
 22 H      0.6911     1.0000     0.3089     0.9119     0.9119     0.0000
 23 H      0.6888     1.0000     0.3112     0.9108     0.9108     0.0000

  Mayer bond orders larger than 0.100000
B(  0-C ,  1-C ) :   0.9400 B(  0-C , 16-O ) :   1.0295 B(  0-C , 17-H ) :   0.9618 
B(  0-C , 18-H ) :   0.9827 B(  1-C ,  2-H ) :   0.9312 B(  1-C ,  3-C ) :   0.8305 
B(  1-C , 11-O ) :   0.7694 B(  1-C , 16-O ) :  -0.1160 B(  3-C ,  4-H ) :   1.0005 
B(  3-C ,  5-C ) :   0.8419 B(  3-C , 15-O ) :   0.8541 B(  5-C ,  6-H ) :   0.9701 
B(  5-C ,  7-C ) :   0.8786 B(  5-C , 14-O ) :   1.0623 B(  7-C ,  8-H ) :   0.9601 
B(  7-C ,  9-C ) :   0.8465 B(  7-C , 13-O ) :   0.8849 B(  9-C , 10-H ) :   1.0167 
B(  9-C , 11-O ) :   0.9231 B(  9-C , 12-O ) :   1.0836 B( 12-O , 19-H ) :   0.8808 
B( 13-O , 20-H ) :   0.8760 B( 14-O , 21-H ) :   0.8855 B( 15-O , 22-H ) :   0.8783 
B( 16-O , 23-H ) :   0.8752 

-------
TIMINGS
-------

Total SCF time: 0 days 0 hours 0 min 45 sec 

Total time                  ....      45.228 sec
Sum of individual times     ....      44.744 sec  ( 98.9%)

SCF preparation             ....       0.230 sec  (  0.5%)
Fock matrix formation       ....      43.245 sec  ( 95.6%)
  Startup                   ....       0.062 sec  (  0.1% of F)
  Split-RI-J                ....       9.643 sec  ( 22.3% of F)
  XC integration            ....      32.963 sec  ( 76.2% of F)
    XC Preparation          ....       0.000 sec  (  0.0% of XC)
    Basis function eval.    ....       4.806 sec  ( 14.6% of XC)
    Density eval.           ....      12.845 sec  ( 39.0% of XC)
    XC-Functional eval.     ....       2.495 sec  (  7.6% of XC)
    XC-Potential eval.      ....      11.889 sec  ( 36.1% of XC)
Diagonalization             ....       0.000 sec  (  0.0%)
Density matrix formation    ....       0.292 sec  (  0.6%)
Total Energy calculation    ....       0.034 sec  (  0.1%)
Population analysis         ....       0.189 sec  (  0.4%)
Orbital Transformation      ....       0.079 sec  (  0.2%)
Orbital Orthonormalization  ....       0.000 sec  (  0.0%)
DIIS solution               ....       0.601 sec  (  1.3%)
  MO trafo                  ....       0.000 sec  (  0.0 % of DIIS)
  Orb grad                  ....       0.000 sec  (  0.0 % of DIIS)
  Energy W gradient         ....       0.000 sec  (  0.0 % of DIIS)
  DIIS error                ....       0.029 sec  (  4.9 % of DIIS)
  DIIS work                 ....       0.511 sec  ( 85.0 % of DIIS)
  Form Q                    ....       0.000 sec  (  0.0 % of DIIS)
  Form QpQm                 ....       0.000 sec  (  0.0 % of DIIS)
  Exp/Cayley                ....       0.000 sec  (  0.0 % of DIIS)
  Orb update                ....       0.000 sec  (  0.0 % of DIIS)
  Wake-sleep                ....       0.021 sec  (  3.6 % of DIIS)
SOSCF solution              ....       0.073 sec  (  0.2%)
  MO trafo                  ....       0.054 sec  ( 73.6 % of SOSCF)
  Orb grad                  ....       0.001 sec  (  0.8 % of SOSCF)
  Rot update                ....       0.000 sec  (  0.1 % of SOSCF)
  Step                      ....       0.019 sec  ( 25.4 % of SOSCF)
Finished LeanSCF after  45.3 sec

Maximum memory used throughout the entire LEANSCF-calculation: 37.9 MB


-------------------------------------------------------------------------------
                          DFT DISPERSION CORRECTION                            
                                                                               
                                DFTD4 V3.4.0                                   
-------------------------------------------------------------------------------
The R2SCAN3C composite method is recognized
Using three-body term ABC
Active option DFTDOPT                   ...         5   

-------------------------   ----------------
Dispersion correction           -0.008055148
-------------------------   ----------------

------------------   -----------------
gCP correction             0.019396080
------------------   -----------------

-------------------------   --------------------
FINAL SINGLE POINT ENERGY      -687.075827035888
-------------------------   --------------------


------------------------------------------------------------------------------
                              ORCA PROPERTY CALCULATIONS
------------------------------------------------------------------------------

GBWName                                 ... sp_gas.gbw
Number of atoms                         ...     24
Number of basis functions               ...    318
Max core memory                         ...   1024 MB

Electric properties:
Dipole moment                           ... YES
Quadrupole moment                       ...  NO
Static polarizability (Dipole/Dipole)   ...  NO
Static polarizability (Dipole/Quad.)    ...  NO
Static polarizability (Quad./Quad.)     ...  NO
Static polarizability (Velocity)        ...  NO

Atomic electric properties:
Dipole moment                           ...  NO
Quadrupole moment                       ...  NO
Static polarizability                   ...  NO

Choice of electric origin               ... Center of mass
Position of electric origin             ...    -0.000007     0.000001     0.000005

General magnetic properties:
Magnetizability                         ...  NO

EPR properties:
g-Tensor (aka g-matrix)                 ...  NO
Zero-Field splitting spin-orbit         ...  NO
Zero-field splitting spin-spin          ...  NO
Hyperfine couplings                     ...  NO (   0 nuclei)
Quadrupole couplings                    ...  NO (   0 nuclei)
Contact density                         ...  NO (   0 nuclei)

NMR properties:
Chemical shifts                         ...  NO (   0 nuclei)
Spin-rotation constants                 ...  NO (   0 nuclei)
Spin-spin couplings                     ...  NO (   0 nuclei,    0 pairs)

Choice of magnetic origin               ... GIAO
Position of magnetic origin             ...     0.000000     0.000000     0.000000

Properties with geometric perturbations:
SCF Hessian                             ...  NO
IR spectrum                             ...  NO
VCD spectrum                            ...  NO
X-ray spectroscopy properties:
SCF XES/XAS/RIXS spectra                ...  NO


-------------
DIPOLE MOMENT
-------------

Method             : SCF
Type of density    : Electron Density
Multiplicity       :   1
Irrep              :   0
Energy             :  -687.0871679671374750 Eh
Relativity type    : 
Basis              : AO
                                X                 Y                 Z
Electronic contribution:      2.359562060      -0.532519140      -0.870519083
Nuclear contribution   :     -2.257401872       0.626571510       0.868839192
                        -----------------------------------------
Total Dipole Moment    :      0.102160188       0.094052370      -0.001679891
                        -----------------------------------------
Magnitude (a.u.)       :      0.138871791
Magnitude (Debye)      :      0.352984040



--------------------
Rotational spectrum 
--------------------
 
Rotational constants in cm-1:             0.038887             0.027262             0.017820 
Rotational constants in MHz :          1165.817356           817.294728           534.219406 

Dipole components along the rotational axes: 
x,y,z [a.u.] :     0.113022     0.080596    -0.003962 
x,y,z [Debye]:     0.287278     0.204860    -0.010071 

 

Dipole moment calculation done in   0.0 sec 

Maximum memory used throughout the entire PROP-calculation: 24.2 MB

--------------------------------
SUGGESTED CITATIONS FOR THIS RUN
--------------------------------

Below you find a list of papers that are relevant to this ORCA run
We neither can nor want to force you to cite these papers, but we appreciate if you do
You receive ORCA, which is the product of decades of hard work by many enthusiastic individuals, for free
The only thing we kindly ask in return is that you cite our papers,
We deeply appreciate it, if you show your appreciation for ORCA by not just citing the generic ORCA reference.

Please note that relegating all ORCA citations to the supporting information does *not* help us.
SI sections are not indexed - citations you put there will not count into any citation statistics
But we need these citations in order to attract the funding resources that allow us to do what we are doing

Therefore, if you are a happy ORCA user, please consider citing a few of the papers listed below in the main body of your paper

In addition to the list printed below, the program has created the file sp_gas.bibtex that contains the list in bibtex format
You can import this file easily into all common literature databanks and citation aid programs


List of essential papers. We consider these as the minimum necessary citations

  1. Neese,F.
     Software update: the ORCA program system, version 5.0
     WIRES Comput. Molec. Sci., 2022 12(1)e1606
     doi.org/10.1002/wcms.1606
  2. Grimme,S.; Hansen,A.; Ehlert,S.; Mewes,J.
     r2SCAN-3c: A 'Swiss army knife' composite electronic-structure method
     J. Chem. Phys., 2021 154 064103
     doi.org/10.1063/5.0040021

List of papers to cite with high priority. The work reported in these papers was absolutely
necessary for this run to complete.
Our perspective: the developers of density functionals and basis sets usually get cited in chemistry papers
Good! But without the algorithms to do something with them, the functionals or basis sets would not do anything.
Hence, in our opinion, the algorithm design and method developments papers are equally worthy of getting cited

  1. Neese,F.
     An improvement of the resolution of the identity approximation for the formation of the Coulomb matrix
     J. Comp. Chem., 2003 24(14)1740-1747
     doi.org/10.1002/jcc.10318
  2. Neese,F.
     The SHARK Integral Generation and Digestion System
     J. Comp. Chem., 2022  1-16
     doi.org/10.1002/jcc.26942
  3. Lehtola,S.; Steigemann,C.; Oliveira,M.; Marques,M.
     Recent developments in Libxc - A comprehensive library of functionals for density functional theory
     Software X, 2018 7 
     doi.org/10.1016/j.softx.2017.11.002
  4. Caldeweyher,E.; Bannwarth,C.; Grimme,S.
     Extension of the D3 dispersion coefficient model
     J. Chem. Phys., 2017 147 034112-XXXX
     doi.org/10.1063/1.4993215
  5. Caldeweyher,E.; Ehlert,S.; Hansen,A.; Neugebauer,H.; Spicher,S.; Bannwarth,C.; Grimme,S.
     A generally applicable atomic-charge dependent London dispersion correction
     J. Chem. Phys., 2019 150 154122-XXXX
     doi.org/10.1063/1.5090222
  6. Caldeweyher,E.; Mewes,J.; Ehlert,S.; Grimme,S.
     Extension and evaluation of the D4 London-dispersion model for periodic systems
     Phys. Chem. Chem. Phys., 2020 22(16)8499-8512
     doi.org/10.1039/D0CP00502A

List of suggested additional citations. These are papers that are important in the 'surrounding' of 
of this run, or papers that preceded the highly important papers. If you like your results we are grateful for a citation.

  1. Neese,F.
     The ORCA program system
     WIRES Comput. Molec. Sci., 2012 2(1)73-78
     doi.org/10.1002/wcms.81
  2. Neese,F.
     Software update: the ORCA program system, version 4.0
     WIRES Comput. Molec. Sci., 2018 8(1)1-6
     doi.org/10.1002/wcms.1327
  3. Neese,F.; Wennmohs,F.; Becker,U.; Riplinger,C.
     The ORCA quantum chemistry program package
     J. Chem. Phys., 2020 152 Art. No. L224108
     doi.org/10.1063/5.0004608

List of optional additional citations

  1. Neese,F.
     Approximate second-order SCF convergence for spin unrestricted wavefunctions
     Chem. Phys. Lett., 2000 325(1-3)93-98
     doi.org/10.1016/s0009-2614(00)00662-x

Timings for individual modules:

Sum of individual times          ...       47.397 sec (=   0.790 min)
Startup calculation              ...        1.616 sec (=   0.027 min)   3.4 %
SCF iterations                   ...       45.670 sec (=   0.761 min)  96.4 %
Property calculations            ...        0.111 sec (=   0.002 min)   0.2 %
                             ****ORCA TERMINATED NORMALLY****
TOTAL RUN TIME: 0 days 0 hours 0 minutes 48 seconds 258 msec
