24
 energy: -687.117201375522 gnorm: 0.002488265403 xtb: 6.7.1 (edcfbbe)
C           -2.57711082766584       -0.65182500409345       -0.27966260579365
C           -1.20591429624257       -0.27192750186575        0.24203702191558
H           -1.22217702113523       -0.23089327972858        1.34341558778770
C           -0.72045027933817        1.06827081981396       -0.30931045947867
H           -0.73551511890296        1.02867557297666       -1.41152677688803
C            0.70964113145470        1.31488922076668        0.16345843769166
H            0.70396265369157        1.42976058664152        1.25523949198138
C            1.61353474267321        0.14044777132258       -0.20400798483807
H            1.66925839273020        0.05190201899885       -1.30311369184284
C            1.01628779637219       -1.15270097629746        0.34496544302566
H            0.97388227738212       -1.12630685930419        1.44391300702108
O           -0.30372817194106       -1.30720068762521       -0.18809586789328
O            1.75778440428739       -2.29006596737721       -0.00320800935547
O            2.91700742329521        0.29565676608334        0.35605343102993
O            1.22825607599266        2.54892740395384       -0.34725099916792
O           -1.59857003215244        2.09050528566006        0.16645179139837
O           -3.05730738390786       -1.86562337440708        0.30855834761158
H           -2.53628128890118       -0.73690494429049       -1.37550332514145
H           -3.29421041431353        0.12931627381594       -0.01703877502490
H            1.95238365998320       -2.25025432680956       -0.95035512479384
H            3.22312978437199        1.18123654112694        0.11476935141787
H            1.23672837289044        2.48813109881230       -1.31440179110901
H           -1.20165979218135        2.93818053834980       -0.07884053437868
H           -2.44616009211396       -2.56872523199761        0.05229325957989
24
 energy: -687.117206194777 gnorm: 0.000783609773 xtb: 6.7.1 (edcfbbe)
C           -2.57708839905071       -0.65166096792118       -0.27954587180789
C           -1.20592719535300       -0.27191637443122        0.24186398517766
H           -1.22180036079372       -0.23107657548703        1.34319826154239
C           -0.72053886125411        1.06835294625754       -0.30940352294145
H           -0.73648614099599        1.02943519606472       -1.41155714660937
C            0.70962212711936        1.31480930695230        0.16293402627008
H            0.70427750302666        1.43030838874985        1.25458603579611
C            1.61355849335398        0.14021200418259       -0.20376889467722
H            1.67095387669965        0.05174144121376       -1.30271257852768
C            1.01592857007299       -1.15269578012886        0.34493522333558
H            0.97318584435470       -1.12664210089401        1.44377286800725
O           -0.30383975124360       -1.30718369496946       -0.18866279986624
O            1.75767432219660       -2.29007697313824       -0.00295141841213
O            2.91667295083039        0.29531432343287        0.35789661114863
O            1.22806007728757        2.54896113293444       -0.34865843643871
O           -1.59849627530951        2.09059615847403        0.16733211723243
O           -3.05719068649816       -1.86583436169014        0.30849102784921
H           -2.53670543613914       -0.73668539853476       -1.37527299660315
H           -3.29427129168147        0.12907897208912       -0.01630607059956
H            1.95264075888672       -2.24899022460703       -0.95125201330842
H            3.22408839632709        1.18031400208740        0.11594194411219
H            1.23597074881457        2.48729029438230       -1.31572582576446
H           -1.20208155750459        2.93842032809854       -0.07858891310452
H           -2.44543568789434       -2.56860025456799        0.05229347350806
24
 energy: -687.117206194777 gnorm: 0.000783609773 xtb: 6.7.1 (edcfbbe)
C           -2.57708839905071       -0.65166096792118       -0.27954587180789
C           -1.20592719535300       -0.27191637443122        0.24186398517766
H           -1.22180036079372       -0.23107657548703        1.34319826154239
C           -0.72053886125411        1.06835294625754       -0.30940352294145
H           -0.73648614099599        1.02943519606472       -1.41155714660937
C            0.70962212711936        1.31480930695230        0.16293402627008
H            0.70427750302666        1.43030838874985        1.25458603579611
C            1.61355849335398        0.14021200418259       -0.20376889467722
H            1.67095387669965        0.05174144121376       -1.30271257852768
C            1.01592857007299       -1.15269578012886        0.34493522333558
H            0.97318584435470       -1.12664210089401        1.44377286800725
O           -0.30383975124360       -1.30718369496946       -0.18866279986624
O            1.75767432219660       -2.29007697313824       -0.00295141841213
O            2.91667295083039        0.29531432343287        0.35789661114863
O            1.22806007728757        2.54896113293444       -0.34865843643871
O           -1.59849627530951        2.09059615847403        0.16733211723243
O           -3.05719068649816       -1.86583436169014        0.30849102784921
H           -2.53670543613914       -0.73668539853476       -1.37527299660315
H           -3.29427129168147        0.12907897208912       -0.01630607059956
H            1.95264075888672       -2.24899022460703       -0.95125201330842
H            3.22408839632709        1.18031400208740        0.11594194411219
H            1.23597074881457        2.48729029438230       -1.31572582576446
H           -1.20208155750459        2.93842032809854       -0.07858891310452
H           -2.44543568789434       -2.56860025456799        0.05229347350806
