
                                 *****************
                                 * O   R   C   A *
                                 *****************

                                            #,                                       
                                            ###                                      
                                            ####                                     
                                            #####                                    
                                            ######                                   
                                           ########,                                 
                                     ,,################,,,,,                         
                               ,,#################################,,                 
                          ,,##########################################,,             
                       ,#########################################, ''#####,          
                    ,#############################################,,   '####,        
                  ,##################################################,,,,####,       
                ,###########''''           ''''###############################       
              ,#####''   ,,,,##########,,,,          '''####'''          '####       
            ,##' ,,,,###########################,,,                        '##       
           ' ,,###''''                  '''############,,,                           
         ,,##''                                '''############,,,,        ,,,,,,###''
      ,#''                                            '''#######################'''  
     '                                                          ''''####''''         
             ,#######,   #######,   ,#######,      ##                                
            ,#'     '#,  ##    ##  ,#'     '#,    #''#        ,####,   ,####,        
            ##       ##  ##   ,#'  ##            #'  '#       #'       #'  '#        
            ##       ##  #######   ##           ,######,      #####,   #    #        
            '#,     ,#'  ##    ##  '#,     ,#' ,#      #,     #,   #   #,  ,#        
             '#######'   ##     ##  '#######'  #'      '#     '####' # '####'        



                #########################################################
                #                        -***-                          #
                #          Department of theory and spectroscopy        #
                #                                                       #
                #                      Frank Neese                      #
                #                                                       #
                #     Directorship, Architecture, Infrastructure        #
                #                    SHARK, DRIVERS                     #
                #        Core code/Algorithms in most modules           #
                #                                                       #
                #        Max Planck Institute fuer Kohlenforschung      #
                #                Kaiser Wilhelm Platz 1                 #
                #                 D-45470 Muelheim/Ruhr                 #
                #                      Germany                          #
                #                                                       #
                #                  All rights reserved                  #
                #                        -***-                          #
                #########################################################


                         Program Version 6.0.0  -   RELEASE  -


 With contributions from (in alphabetic order):
   Daniel Aravena         : Magnetic Suceptibility
   Michael Atanasov       : Ab Initio Ligand Field Theory (pilot matlab implementation)
   Alexander A. Auer      : GIAO ZORA, VPT2 properties, NMR spectrum
   Ute Becker             : All parallelization in ORCA, NUMFREQ, NUMCALC
   Giovanni Bistoni       : ED, misc. LED, open-shell LED, HFLD
   Martin Brehm           : Molecular dynamics
   Dmytro Bykov           : pre 5.0 version of the SCF Hessian
   Marcos Casanova-Páez   : Triplet and SCS-CIS(D). UHF-(DLPNO)-IP/EA/STEOM-CCSD. UHF-CVS-IP/STEOM-CCSD
   Vijay G. Chilkuri      : MRCI spin determinant printing, contributions to CSF-ICE
   Pauline Colinet        : FMM embedding
   Dipayan Datta          : RHF DLPNO-CCSD density
   Achintya Kumar Dutta   : EOM-CC, STEOM-CC
   Nicolas Foglia         : Exact transition moments, OPA infrastructure, MCD improvements
   Dmitry Ganyushin       : Spin-Orbit,Spin-Spin,Magnetic field MRCI
   Miquel Garcia          : C-PCM and meta-GGA Hessian, CCSD/C-PCM, Gaussian charge scheme
   Tiago L. C. Gouveia    : GS-ROHF, GS-ROCIS
   Yang Guo               : DLPNO-NEVPT2, F12-NEVPT2, CIM, IAO-localization
   Andreas Hansen         : Spin unrestricted coupled pair/coupled cluster methods
   Ingolf Harden          : AUTO-CI MPn and infrastructure 
   Benjamin Helmich-Paris : MC-RPA, TRAH-(SCF,CASSCF), AVAS, COSX integrals, SCF dyn. polar.
   Lee Huntington         : MR-EOM, pCC
   Robert Izsak           : Overlap fitted RIJCOSX, COSX-SCS-MP3, EOM
   Riya Kayal             : Wick's Theorem for AUTO-CI, AUTO-CI UHF-CCSDT
   Emily Kempfer          : AUTO-CI, RHF CISDT and CCSDT
   Christian Kollmar      : KDIIS, OOCD, Brueckner-CCSD(T), CCSD density, CASPT2, CASPT2-K, improved NEVPT2
   Axel Koslowski         : Symmetry handling
   Simone Kossmann        : Meta GGA functionals, TD-DFT gradient, OOMP2, (MP2 Hessian; deprecated post 5.0)
   Lucas Lang             : DCDCAS
   Marvin Lechner         : AUTO-CI (C++ implementation), FIC-MRCC
   Spencer Leger          : CASSCF response
   Dagmar Lenk            : GEPOL surface, SMD, ORCA-2-JSON
   Dimitrios Liakos       : Extrapolation schemes; Compound Job, initial MDCI parallelization
   Dimitrios Manganas     : Further ROCIS development; embedding schemes. LFT, Crystal Embedding
   Dimitrios Pantazis     : SARC Basis sets
   Anastasios Papadopoulos: AUTO-CI, single reference methods and gradients
   Taras Petrenko         : pre 6.0 DFT Hessian and TD-DFT gradient, (ASA, deprecated), ECA, 1-Electron XAS/XES, NRVS
   Peter Pinski           : DLPNO-MP2, DLPNO-MP2 Gradient
   Christoph Reimann      : Effective Core Potentials
   Marius Retegan         : Local ZFS, SOC
   Christoph Riplinger    : Optimizer, TS searches, QM/MM, DLPNO-CCSD(T), (RO)-DLPNO pert. Triples
   Michael Roemelt        : Original ROCIS implementation
   Masaaki Saitow         : Open-shell DLPNO-CCSD energy and density
   Barbara Sandhoefer     : DKH picture change effects
   Kantharuban Sivalingam : CASSCF convergence/infrastructure, NEVPT2 and variants, FIC-MRCI
   Bernardo de Souza      : ESD, SOC TD-DFT
   Georgi Stoychev        : AutoAux, RI-MP2 NMR, DLPNO-MP2 response, X2C
   Van Anh Tran           : RI-MP2 g-tensors
   Willem Van den Heuvel  : Paramagnetic NMR
   Zikuan Wang            : NOTCH, Electric field optimization 
   Frank Wennmohs         : Technical directorship and infrastructure
   Hang Xu                : AUTO-CI-Response properties 


 We gratefully acknowledge several colleagues who have allowed us to
 interface, adapt or use parts of their codes:
   Stefan Grimme, W. Hujo, H. Kruse, P. Pracht,  : VdW corrections, initial TS optimization,
                  C. Bannwarth, S. Ehlert,         DFT functionals, gCP, sTDA/sTD-DF
                  L. Wittmann, M. Mueller
   Ed Valeev, F. Pavosevic, A. Kumar             : LibInt (2-el integral package), F12 methods
   Garnet Chan, S. Sharma, J. Yang, R. Olivares  : DMRG
   Ulf Ekstrom                                   : XCFun DFT Library
   Mihaly Kallay                                 : mrcc  (arbitrary order and MRCC methods)
   Frank Weinhold                                : gennbo (NPA and NBO analysis)
   Simon Mueller                                 : openCOSMO-RS
   Christopher J. Cramer and Donald G. Truhlar   : smd solvation model
   Lars Goerigk                                  : TD-DFT with DH, B97 family of functionals
   V. Asgeirsson, H. Jonsson                     : NEB implementation
   FAccTs GmbH                                   : IRC, NEB, NEB-TS, DLPNO-Multilevel, CI-OPT
                                                   MM, QMMM, 2- and 3-layer-ONIOM, Crystal-QMMM,
                                                   LR-CPCM, SF, NACMEs, symmetry and pop. for TD-DFT,
                                                   nearIR, NL-DFT gradient (VV10), updates on ESD,
                                                   ML-optimized integration grids, MBIS, APM,
                                                   GOAT, DOCKER, SOLVATOR, interface openCOSMO-RS
   S Lehtola, MJT Oliveira, MAL Marques          : LibXC Library
   Liviu Ungur et al                             : ANISO software


 Your calculation uses the libint2 library for the computation of 2-el integrals
 For citations please refer to: http://libint.valeyev.net

 Your ORCA version has been built with support for libXC version: 6.2.2
 For citations please refer to: https://libxc.gitlab.io

 This ORCA versions uses:
   CBLAS   interface :  Fast vector & matrix operations
   LAPACKE interface :  Fast linear algebra routines
   SCALAPACK package :  Parallel linear algebra routines
   Shared memory     :  Shared parallel matrices
   BLAS/LAPACK       :  OpenBLAS 0.3.27  USE64BITINT DYNAMIC_ARCH NO_AFFINITY SapphireRapids SINGLE_THREADED
        Core in use  :  SapphireRapids
   Copyright (c) 2011-2014, The OpenBLAS Project


Your calculation utilizes the geometrical counterpoise correction gCP
Please cite in your paper:
H.Kruse, S. Grimme J.Chem.Phys., 136, (2012), 154101 
   

Your calculation utilizes the DFT-NL dispersion correction.
Cite in your paper:
Vydrov, O. A.; Van Voorhis, T. J. Chem. Phys. 2010, 133, 244103
Hujo, W.; Grimme, S. J. Chem. Theory Comput. 2011, 7, 3866 
   

================================================================================

----- Orbital basis set information -----
Your calculation utilizes the basis: def2-TZVP
   F. Weigend and R. Ahlrichs, Phys. Chem. Chem. Phys. 7, 3297 (2005).

----- AuxJ basis set information -----
Your calculation utilizes the auxiliary basis: def2/J
   F. Weigend, Phys. Chem. Chem. Phys. 8, 1057 (2006).

================================================================================
                                        WARNINGS
                       Please study these warnings very carefully!
================================================================================


================================================================================
                                       INPUT FILE
================================================================================
NAME = sp_gas.inp
|  1> ! wb97x-v def2-tzvp def2/J RIJCOSX DEFGRID2 scfconv7 GCP(DFT/TZ) printgap
|  2> %output
|  3>     printlevel normal
|  4> end
|  5> * xyz 0 1
|  6> C 1.5492950345822831 0.529266778836958 0.11138428887705362
|  7> C 0.6246401127273944 -0.6065980332012092 -0.28850084803181525
|  8> O -0.666096357685261 -0.5492707878615524 0.3425709856095953
|  9> C -1.4646653977863353 0.5371196126683392 -0.12926363450738104
| 10> H 2.544960281916024 0.3460351998444141 -0.30593975454567107
| 11> H 1.2032451843099914 1.4955671037238676 -0.26597317894721384
| 12> H 1.6414427698222944 0.5876106455099388 1.2008503469658955
| 13> H 1.0504204822461234 -1.5661411161927057 0.021577610963515233
| 14> H 0.4906198487147075 -0.629318371968933 -1.381114097023137
| 15> H -1.064864958374825 1.5097900109818958 0.18532037554514683
| 16> H -2.461243039455484 0.41220654784006877 0.30150844523267145
| 17> H -1.5420529117225252 0.5205504140151989 -1.2261598654677008
| 18> *
| 19> 
| 20>                          ****END OF INPUT****
================================================================================

                       ****************************
                       * Single Point Calculation *
                       ****************************

---------------------------------
CARTESIAN COORDINATES (ANGSTROEM)
---------------------------------
  C      1.549295    0.529267    0.111384
  C      0.624640   -0.606598   -0.288501
  O     -0.666096   -0.549271    0.342571
  C     -1.464665    0.537120   -0.129264
  H      2.544960    0.346035   -0.305940
  H      1.203245    1.495567   -0.265973
  H      1.641443    0.587611    1.200850
  H      1.050420   -1.566141    0.021578
  H      0.490620   -0.629318   -1.381114
  H     -1.064865    1.509790    0.185320
  H     -2.461243    0.412207    0.301508
  H     -1.542053    0.520550   -1.226160

----------------------------
CARTESIAN COORDINATES (A.U.)
----------------------------
  NO LB      ZA    FRAG     MASS         X           Y           Z
   0 C     6.0000    0    12.011    2.927743    1.000169    0.210486
   1 C     6.0000    0    12.011    1.180399   -1.146304   -0.545188
   2 O     8.0000    0    15.999   -1.258740   -1.037971    0.647365
   3 C     6.0000    0    12.011   -2.767816    1.015009   -0.244273
   4 H     1.0000    0     1.008    4.809278    0.653912   -0.578142
   5 H     1.0000    0     1.008    2.273804    2.826212   -0.502616
   6 H     1.0000    0     1.008    3.101877    1.110423    2.269278
   7 H     1.0000    0     1.008    1.985007   -2.959578    0.040776
   8 H     1.0000    0     1.008    0.927137   -1.189239   -2.609927
   9 H     1.0000    0     1.008   -2.012303    2.853090    0.350205
  10 H     1.0000    0     1.008   -4.651075    0.778957    0.569768
  11 H     1.0000    0     1.008   -2.914058    0.983698   -2.317106

--------------------------------
INTERNAL COORDINATES (ANGSTROEM)
--------------------------------
 C      0   0   0     0.000000000000     0.00000000     0.00000000
 C      1   0   0     1.518250216024     0.00000000     0.00000000
 O      2   1   0     1.437893844596   113.65782591     0.00000000
 C      3   2   1     1.428490295001   112.77871930    69.41904670
 H      1   2   3     1.095026234164   109.15950335   172.82285773
 H      1   2   3     1.093565487418   112.17685060   292.11409339
 H      1   2   3     1.094911641922   110.68297978    53.89062238
 H      2   1   3     1.094605180838   110.14012461   242.43399579
 H      2   1   3     1.101036492052   110.54485953   123.06154817
 H      4   3   2     1.097675359334   112.06345623   291.36343766
 H      4   3   2     1.092856282556   107.01715333   172.30783244
 H      4   3   2     1.099747565195   110.93609546    53.39179930

---------------------------
INTERNAL COORDINATES (A.U.)
---------------------------
 C      0   0   0     0.000000000000     0.00000000     0.00000000
 C      1   0   0     2.869077111053     0.00000000     0.00000000
 O      2   1   0     2.717225575938   113.65782591     0.00000000
 C      3   2   1     2.699455442516   112.77871930    69.41904670
 H      1   2   3     2.069299692029   109.15950335   172.82285773
 H      1   2   3     2.066539280729   112.17685060   292.11409339
 H      1   2   3     2.069083144074   110.68297978    53.89062238
 H      2   1   3     2.068504016555   110.14012461   242.43399579
 H      2   1   3     2.080657433432   110.54485953   123.06154817
 H      4   3   2     2.074305813096   112.06345623   291.36343766
 H      4   3   2     2.065199077767   107.01715333   172.30783244
 H      4   3   2     2.078221714665   110.93609546    53.39179930

---------------------
BASIS SET INFORMATION
---------------------
There are 3 groups of distinct atoms

 Group   1 Type C   : 11s6p2d1f contracted to 5s3p2d1f pattern {62111/411/11/1}
 Group   2 Type O   : 11s6p2d1f contracted to 5s3p2d1f pattern {62111/411/11/1}
 Group   3 Type H   : 5s1p contracted to 3s1p pattern {311/1}

Atom   0C    basis set group =>   1
Atom   1C    basis set group =>   1
Atom   2O    basis set group =>   2
Atom   3C    basis set group =>   1
Atom   4H    basis set group =>   3
Atom   5H    basis set group =>   3
Atom   6H    basis set group =>   3
Atom   7H    basis set group =>   3
Atom   8H    basis set group =>   3
Atom   9H    basis set group =>   3
Atom  10H    basis set group =>   3
Atom  11H    basis set group =>   3
---------------------------------
AUXILIARY/J BASIS SET INFORMATION
---------------------------------
There are 3 groups of distinct atoms

 Group   1 Type C   : 12s5p4d2f1g contracted to 6s4p3d1f1g pattern {711111/2111/211/2/1}
 Group   2 Type O   : 12s5p4d2f1g contracted to 6s4p3d1f1g pattern {711111/2111/211/2/1}
 Group   3 Type H   : 5s2p1d contracted to 3s1p1d pattern {311/2/1}

Atom   0C    basis set group =>   1
Atom   1C    basis set group =>   1
Atom   2O    basis set group =>   2
Atom   3C    basis set group =>   1
Atom   4H    basis set group =>   3
Atom   5H    basis set group =>   3
Atom   6H    basis set group =>   3
Atom   7H    basis set group =>   3
Atom   8H    basis set group =>   3
Atom   9H    basis set group =>   3
Atom  10H    basis set group =>   3
Atom  11H    basis set group =>   3

Checking for AutoStart:
The File: sp_gas.gbw exists
Trying to determine its content:
     ... Fine, the file contains calculation information
     ... Fine, the calculation information was read
     ... Fine, the file contains a basis set
     ... Fine, the basis set was read
     ... Fine, the file contains a geometry
     ... Fine, the geometry was read
     ... Fine, the file contains a set of orbitals
     ... Fine, the orbitals can be read
     => possible old guess file was deleted
     => GBW file was renamed to GES file
     => GES file is set as startup file
     => Guess is set to MORead
     ... now leaving AutoStart

------------------------------------------------------------------------------
                             ORCA STARTUP CALCULATIONS
                           -- RI-GTO INTEGRALS CHOSEN --
------------------------------------------------------------------------------
------------------------------------------------------------------------------
                   ___                                                        
                  /   \      - P O W E R E D   B Y -                         
                 /     \                                                     
                 |  |  |   _    _      __       _____    __    __             
                 |  |  |  | |  | |    /  \     |  _  \  |  |  /  |          
                  \  \/   | |  | |   /    \    | | | |  |  | /  /          
                 / \  \   | |__| |  /  /\  \   | |_| |  |  |/  /          
                |  |  |   |  __  | /  /__\  \  |    /   |      \           
                |  |  |   | |  | | |   __   |  |    \   |  |\   \          
                \     /   | |  | | |  |  |  |  | |\  \  |  | \   \       
                 \___/    |_|  |_| |__|  |__|  |_| \__\ |__|  \__/        
                                                                              
                      - O R C A' S   B I G   F R I E N D -                    
                                      &                                       
                       - I N T E G R A L  F E E D E R -                       
                                                                              
 v1 FN, 2020, v2 2021, v3 2022-2024                                           
------------------------------------------------------------------------------


----------------------
SHARK INTEGRAL PACKAGE
----------------------

Number of atoms                             ...     12
Number of basis functions                   ...    172
Number of shells                            ...     76
Maximum angular momentum                    ...      3
Integral batch strategy                     ... SHARK/LIBINT Hybrid
RI-J (if used) integral strategy            ... SPLIT-RIJ (Revised 2003 algorithm where possible)
Printlevel                                  ...      1
Contraction scheme used                     ... SEGMENTED contraction
Prescreening option                         ... SCHWARTZ
   Thresh                                   ... 3.000e-11
   Tcut                                     ... 1.000e-12
   Tpresel                                  ... 1.000e-12 
Coulomb Range Separation                    ... NOT USED
Exchange Range Separation                   ... Long Range
   Mu parameter                             ... 3.000e-01
   Scaling (regular/separated)              ... 1.670e-01 8.330e-01
Multipole approximations                    ... NOT USED
Finite Nucleus Model                        ... NOT USED
CABS basis                                  ... NOT available
Auxiliary Coulomb fitting basis             ... AVAILABLE
   # of basis functions in Aux-J            ...    284
   # of shells in Aux-J                     ...    100
   Maximum angular momentum in Aux-J        ...      4
Auxiliary J/K fitting basis                 ... NOT available
Auxiliary Correlation fitting basis         ... NOT available
Auxiliary 'external' fitting basis          ... NOT available

Checking pre-screening integrals            ... done (  0.0 sec) Dimension = 76
Check shell pair data                       ... done (  0.0 sec)
Shell pair information
Shell pair cut-off parameter TPreSel        ...   1.0e-12
Total number of shell pairs                 ...      2926
Shell pairs after pre-screening             ...      2858
Total number of primitive shell pairs       ...      8368
Primitive shell pairs kept                  ...      6688
          la=0 lb=0:    945 shell pairs
          la=1 lb=0:    864 shell pairs
          la=1 lb=1:    209 shell pairs
          la=2 lb=0:    346 shell pairs
          la=2 lb=1:    160 shell pairs
          la=2 lb=2:     36 shell pairs
          la=3 lb=0:    176 shell pairs
          la=3 lb=1:     80 shell pairs
          la=3 lb=2:     32 shell pairs
          la=3 lb=3:     10 shell pairs

Calculating one electron integrals          ... done (  0.0 sec)
Calculating RI/J V-Matrix + Cholesky decomp.... done (  0.0 sec)
Calculating Nuclear repulsion               ... done (  0.0 sec) ENN=    134.423374323410 Eh

Diagonalization of the overlap matrix:
Smallest eigenvalue                        ... 4.171e-04
Time for diagonalization                   ...    0.002 sec
Threshold for overlap eigenvalues          ... 1.000e-07
Number of eigenvalues below threshold      ... 0
Time for construction of square roots      ...    0.012 sec
Total time needed                          ...    0.021 sec

-------------------
DFT GRID GENERATION
-------------------

General Integration Accuracy     IntAcc      ... 4.388
Radial Grid Type                 RadialGrid  ... OptM3 with GC (2021)
Angular Grid (max. ang.)         AngularGrid ... 4 (Lebedev-302)
Angular grid pruning method      GridPruning ... 4 (adaptive)
Weight generation scheme         WeightScheme... mBecke (2022)
Basis function cutoff            BFCut       ... 1.0000e-11
Integration weight cutoff        WCut        ... 1.0000e-14
Partially contracted basis set               ... off
Rotationally invariant grid construction     ... off
Angular grids for H and He will be reduced by one unit

Total number of grid points                  ...    50084
Total number of batches                      ...      790
Average number of points per batch           ...       63
Average number of grid points per atom       ...     4174

--------------------
COSX GRID GENERATION
--------------------

GRIDX 1
-------
General Integration Accuracy     IntAcc      ... 3.816
Radial Grid Type                 RadialGrid  ... OptM3 with GC (2021)
Angular Grid (max. ang.)         AngularGrid ... 1 (Lebedev-50)
Angular grid pruning method      GridPruning ... 4 (adaptive)
Weight generation scheme         WeightScheme... mBecke (2022)
Basis function cutoff            BFCut       ... 1.0000e-11
Integration weight cutoff        WCut        ... 1.0000e-14
Partially contracted basis set               ... on
Rotationally invariant grid construction     ... off
Angular grids for H and He will be reduced by one unit

Total number of grid points                  ...     6461
Total number of batches                      ...       58
Average number of points per batch           ...      111
Average number of grid points per atom       ...      538
UseSFitting                                  ... on

GRIDX 2
-------
General Integration Accuracy     IntAcc      ... 4.020
Radial Grid Type                 RadialGrid  ... OptM3 with GC (2021)
Angular Grid (max. ang.)         AngularGrid ... 2 (Lebedev-110)
Angular grid pruning method      GridPruning ... 4 (adaptive)
Weight generation scheme         WeightScheme... mBecke (2022)
Basis function cutoff            BFCut       ... 1.0000e-11
Integration weight cutoff        WCut        ... 1.0000e-14
Partially contracted basis set               ... on
Rotationally invariant grid construction     ... off
Angular grids for H and He will be reduced by one unit

Total number of grid points                  ...    13466
Total number of batches                      ...      111
Average number of points per batch           ...      121
Average number of grid points per atom       ...     1122
UseSFitting                                  ... on

GRIDX 3
-------
General Integration Accuracy     IntAcc      ... 4.338
Radial Grid Type                 RadialGrid  ... OptM3 with GC (2021)
Angular Grid (max. ang.)         AngularGrid ... 3 (Lebedev-194)
Angular grid pruning method      GridPruning ... 4 (adaptive)
Weight generation scheme         WeightScheme... mBecke (2022)
Basis function cutoff            BFCut       ... 1.0000e-11
Integration weight cutoff        WCut        ... 1.0000e-14
Partially contracted basis set               ... on
Rotationally invariant grid construction     ... off
Angular grids for H and He will be reduced by one unit

Total number of grid points                  ...    29533
Total number of batches                      ...      236
Average number of points per batch           ...      125
Average number of grid points per atom       ...     2461
UseSFitting                                  ... on
Initializing property integral containers    ... done (  0.0 sec)

SHARK setup successfully completed in   0.9 seconds

Maximum memory used throughout the entire STARTUP-calculation: 25.4 MB
-------------------------------------------------------------------------------
                                 ORCA GUESS
                   Start orbitals & Density for SCF / CASSCF
-------------------------------------------------------------------------------

------------
SCF SETTINGS
------------
Hamiltonian:
 Density Functional     Method          .... DFT(GTOs)
 Exchange Functional    Exchange        .... WB97X-V
 Correlation Functional Correlation     .... WB97X-V
 Gradients option       PostSCFGGA      .... off
 Hybrid DFT is turned on
   Fraction HF Exchange ScalHFX         ....  0.167000
   Scaling of DF-GGA-X  ScalDFX         ....  0.000000
   Scaling of DF-GGA-C  ScalDFC         ....  1.000000
   Scaling of DF-LDA-C  ScalLDAC        ....  1.000000
   Perturbative correction              ....  0.000000
 Long-range corrected/Screened/Range-Separated Hybrid DFT is turned on
   Amount of maximum screened exact exchange              ....  0.833000
   Range separation parameter mu (erf(mu*r12)/r12)        ....  0.300000
   NL short-range parameter             ....  6.000000
   NL long-range parameter              ....  0.010000
 RI-approximation to the Coulomb term is turned on
   Number of AuxJ basis functions       .... 284
   RIJ-COSX (HFX calculated with COS-X)).... on


General Settings:
 Integral files         IntName         .... sp_gas
 Hartree-Fock type      HFTyp           .... RHF
 Total Charge           Charge          ....    0
 Multiplicity           Mult            ....    1
 Number of Electrons    NEL             ....   34
 Basis Dimension        Dim             ....  172
 Nuclear Repulsion      ENuc            ....    134.4233743234 Eh

Convergence Acceleration:
 AO-DIIS                CNVDIIS         .... on
   Start iteration      DIISMaxIt       ....    12
   Startup error        DIISStart       ....  0.200000
   # of expansion vecs  DIISMaxEq       ....     5
   Bias factor          DIISBfac        ....   1.050
   Max. coefficient     DIISMaxC        ....  10.000
 MO-DIIS                CNVKDIIS        .... off
 Trust-Rad. Augm. Hess. CNVTRAH         .... auto
   Auto Start mean grad. ratio tolernc. ....  1.125000
   Auto Start start iteration           ....     1
   Auto Start num. interpolation iter.  ....    10
   Max. Number of Micro iterations      ....    24
   Max. Number of Macro iterations      .... Maxiter - #DIIS iter
   Number of Davidson start vectors     ....     2
   Converg. threshold    (grad. norm)   ....   1.000e-04
   Grad. Scal. Fac. for Micro threshold ....   0.100
   Minimum threshold for Micro iter.    ....   1.000e-02
   NR start threshold (gradient norm)   ....   1.000e-04
   Initial trust radius                 ....   0.400
   Minimum AH scaling param. (alpha)    ....   1.000
   Maximum AH scaling param. (alpha)    .... 1000.000
   Quad. conv. algorithm                .... NR
   White noise on init. David. guess    .... on
   Maximum white noise                  ....   0.010
   Pseudo random numbers                .... off
   Inactive MOs                         .... canonical
   Orbital update algorithm             .... Taylor
   Preconditioner                       .... Diag
   Full preconditioner red. dimension   ....   250
 SOSCF                  CNVSOSCF        .... on
   Start iteration      SOSCFMaxIt      ....   150
   Startup grad/error   SOSCFStart      ....  0.003300
   Hessian update       SOSCFHessUp     .... L-BFGS
 Level Shifting         CNVShift        .... on
   Level shift para.    LevelShift      ....    0.2500
   Turn off err/grad.   ShiftErr        ....    0.0010
 Zerner damping         CNVZerner       .... off
 Static damping         CNVDamp         .... on
   Fraction old density DampFac         ....    0.7000
   Max. Damping (<1)    DampMax         ....    0.9800
   Min. Damping (>=0)   DampMin         ....    0.0000
   Turn off err/grad.   DampErr         ....    0.1000

SCF Procedure:
 Maximum # iterations   MaxIter         ....   125
 SCF integral mode      SCFMode         .... Direct
   Integral package                     .... SHARK and LIBINT hybrid scheme
 Reset frequency        DirectResetFreq ....    20
 Integral Threshold     Thresh          ....  3.000e-11 Eh
 Primitive CutOff       TCut            ....  1.000e-12 Eh

Convergence Tolerance:
 Convergence Check Mode ConvCheckMode   .... Total+1el-Energy
 Convergence forced     ConvForced      .... 0
 Energy Change          TolE            ....  1.000e-07 Eh
 1-El. energy change                    ....  1.000e-04 Eh
 Orbital Gradient       TolG            ....  1.000e-04
 Orbital Rotation angle TolX            ....  1.000e-04
 DIIS Error             TolErr          ....  1.000e-07

---------------------
INITIAL GUESS: MOREAD
---------------------
Guess MOs are being read from file: sp_gas.ges
Input Geometry matches current geometry (good)
Atom 0: N(Shells)= 11 and 9 - projection required
Input basis set needs projection
NBasis(read)= 121
NBasis(calc)= 172
Basis set overlap was calculated
Using GuessMode=FMatrix for the initial guess
C*T matrix was formed
Effective Fockian was calculated
Effective Fockian was diagonalized
Initial density was built
                      ------------------
                      INITIAL GUESS DONE (   0.0 sec)
                      ------------------
             **** ENERGY FILE WAS UPDATED (sp_gas.en.tmp) ****
Finished Guess after   0.2 sec
Maximum memory used throughout the entire GUESS-calculation: 13.6 MB

-------------------------------------------------------------------------------------------
                                      ORCA LEAN-SCF
                              memory conserving SCF solver
-------------------------------------------------------------------------------------------

----------------------------------------D-I-I-S--------------------------------------------
Iteration    Energy (Eh)           Delta-E    RMSDP     MaxDP     DIISErr   Damp  Time(sec)
-------------------------------------------------------------------------------------------
               ***  Starting incremental Fock matrix formation  ***
    1    -194.4772031941292028     0.00e+00  9.44e-04  1.93e-02  4.81e-02  0.700   3.9
    2    -194.4802386374996956    -3.04e-03  8.31e-04  1.66e-02  3.39e-02  0.700   2.1
                               ***Turning on AO-DIIS***
    3    -194.4824803507275703    -2.24e-03  6.92e-04  1.29e-02  2.37e-02  0.700   2.2
    4    -194.4841023634668034    -1.62e-03  1.76e-03  3.07e-02  1.61e-02  0.000   2.2
                              *** Initializing SOSCF ***
---------------------------------------S-O-S-C-F--------------------------------------
Iteration    Energy (Eh)           Delta-E    RMSDP     MaxDP     MaxGrad    Time(sec)
--------------------------------------------------------------------------------------
    5    -194.4882264753741481    -4.12e-03  1.20e-04  3.24e-03  1.16e-03     2.3
               *** Restarting incremental Fock matrix formation ***
    6    -194.4882402060817128    -1.37e-05  7.12e-05  2.14e-03  3.19e-04     3.7
    7    -194.4882415731310914    -1.37e-06  2.79e-05  8.34e-04  2.73e-04     3.2
    8    -194.4882427739566708    -1.20e-06  2.93e-06  6.13e-05  1.19e-05     3.0
                  *** Gradient check signals convergence ***

               *****************************************************
               *                     SUCCESS                       *
               *           SCF CONVERGED AFTER   8 CYCLES          *
               *****************************************************


------------------
NL GRID GENERATION
------------------

General Integration Accuracy     IntAcc      ... 4.004
Radial Grid Type                 RadialGrid  ... OptM3 with GC (2021)
Angular Grid (max. ang.)         AngularGrid ... 2 (Lebedev-110)
Angular grid pruning method      GridPruning ... 4 (adaptive)
Weight generation scheme         WeightScheme... mBecke (2022)
Basis function cutoff            BFCut       ... 1.0000e-10
Integration weight cutoff        WCut        ... 1.0000e-14
Partially contracted basis set               ... off
Rotationally invariant grid construction     ... off
Angular grids for H and He will be reduced by one unit

Total number of grid points                  ...    14858
Total number of batches                      ...      236
Average number of points per batch           ...       62
Average number of grid points per atom       ...     1238
Final grid set up in    0.1 sec

-------------------------------------------------------------------------------
                    post-SCF DFT-NL dispersion correction                      
-------------------------------------------------------------------------------

SCF Energy:     -194.488242774 
NL    Energy:      0.133252258 
SC+NL Energy:   -194.354990516 
NL done in  :              0.6 sec
-------------------------------------------------------------------------------
Recomputing exchange energy using gridx3       ... done (    6.426 sec)
Old exchange energy                            :     -8.874030740 Eh
New exchange energy                            :     -8.874028226 Eh
Exchange energy change after final integration :      0.000002514 Eh
Total energy after final integration           :   -194.354988002 Eh
             **** ENERGY FILE WAS UPDATED (sp_gas.en.tmp) ****

----------------
TOTAL SCF ENERGY
----------------

Total Energy       :       -194.35498800163833 Eh           -5288.66809 eV

Components:
Nuclear Repulsion  :        134.42337432340966 Eh            3657.84598 eV
Electronic Energy  :       -328.91161709736633 Eh           -8950.14012 eV
One Electron Energy:       -528.71636133394384 Eh          -14387.10362 eV
Two Electron Energy:        199.80474423657751 Eh            5436.96350 eV

Virial components:
Potential Energy   :       -387.84326191126331 Eh          -10553.75170 eV
Kinetic Energy     :        193.48827390962495 Eh            5265.08360 eV
Virial Ratio       :          2.00447941404665

DFT components:
N(Alpha)           :       16.999983014452 electrons
N(Beta)            :       16.999983014452 electrons
N(Total)           :       33.999966028904 electrons
E(X)               :      -17.706373215301 Eh       
E(C)               :       -1.369073502866 Eh       
NL Energy, E(C,NL) :        0.133252258326 Eh       
E(XC)              :      -18.942194459841 Eh       

---------------
SCF CONVERGENCE
---------------

  Last Energy change         ...    1.2008e-06  Tolerance :   1.0000e-07
  Last MAX-Density change    ...    6.1340e-05  Tolerance :   1.0000e-05
  Last RMS-Density change    ...    2.9298e-06  Tolerance :   1.0000e-06
  Last DIIS Error            ...    1.1609e-03  Tolerance :   1.0000e-07
  Last Orbital Gradient      ...    1.1928e-05  Tolerance :   1.0000e-04
  Last Orbital Rotation      ...    1.5948e-05  Tolerance :   1.0000e-04


----------------
ORBITAL ENERGIES
----------------

  NO   OCC          E(Eh)            E(eV) 
   0   2.0000     -21.668903      -589.6408 
   1   2.0000     -12.090588      -329.0016 
   2   2.0000     -12.084243      -328.8290 
   3   2.0000     -12.037982      -327.5701 
   4   2.0000      -1.670118       -45.4462 
   5   2.0000      -1.276384       -34.7322 
   6   2.0000      -1.199714       -32.6459 
   7   2.0000      -1.098306       -29.8864 
   8   2.0000      -0.979182       -26.6449 
   9   2.0000      -0.964226       -26.2379 
  10   2.0000      -0.949687       -25.8423 
  11   2.0000      -0.860194       -23.4071 
  12   2.0000      -0.832452       -22.6522 
  13   2.0000      -0.817982       -22.2584 
  14   2.0000      -0.806387       -21.9429 
  15   2.0000      -0.781613       -21.2688 
  16   2.0000      -0.769698       -20.9445 
  17   0.0000      -0.157845        -4.2952 
  18   0.0000      -0.097897        -2.6639 
  19   0.0000      -0.018037        -0.4908 
  20   0.0000       0.001303         0.0355 
  21   0.0000       0.016911         0.4602 
  22   0.0000       0.032287         0.8786 
  23   0.0000       0.040157         1.0927 
  24   0.0000       0.050751         1.3810 
  25   0.0000       0.063894         1.7386 
  26   0.0000       0.076606         2.0845 
  27   0.0000       0.087182         2.3723 
*Only the first 10 virtual orbitals were printed.

                    ********************************
                    * MULLIKEN POPULATION ANALYSIS *
                    ********************************

-----------------------
MULLIKEN ATOMIC CHARGES
-----------------------
   0 C :   -0.337753
   1 C :   -0.015749
   2 O :   -0.303251
   3 C :   -0.184783
   4 H :    0.109809
   5 H :    0.109390
   6 H :    0.115707
   7 H :    0.103719
   8 H :    0.079995
   9 H :    0.102986
  10 H :    0.124068
  11 H :    0.095862
Sum of atomic charges:   -0.0000000

--------------------------------
MULLIKEN REDUCED ORBITAL CHARGES
--------------------------------
  0 C s       :     3.223662  s :     3.223662
      pz      :     1.054680  p :     3.055614
      px      :     1.011163
      py      :     0.989771
      dz2     :     0.014808  d :     0.055187
      dxz     :     0.007818
      dyz     :     0.007662
      dx2y2   :     0.017799
      dxy     :     0.007100
      f0      :     0.000970  f :     0.003290
      f+1     :     0.000199
      f-1     :     0.000243
      f+2     :     0.000012
      f-2     :     0.000358
      f+3     :     0.000757
      f-3     :     0.000751

  1 C s       :     3.184463  s :     3.184463
      pz      :     0.944020  p :     2.687253
      px      :     0.741901
      py      :     1.001333
      dz2     :     0.034918  d :     0.134438
      dxz     :     0.023800
      dyz     :     0.010378
      dx2y2   :     0.032919
      dxy     :     0.032423
      f0      :     0.001148  f :     0.009595
      f+1     :     0.002188
      f-1     :     0.000273
      f+2     :     0.001084
      f-2     :     0.001330
      f+3     :     0.001616
      f-3     :     0.001957

  2 O s       :     3.760335  s :     3.760335
      pz      :     1.674180  p :     4.503234
      px      :     1.293553
      py      :     1.535500
      dz2     :     0.004653  d :     0.037827
      dxz     :     0.009497
      dyz     :     0.005701
      dx2y2   :     0.009756
      dxy     :     0.008219
      f0      :     0.000220  f :     0.001856
      f+1     :     0.000266
      f-1     :     0.000131
      f+2     :     0.000302
      f-2     :     0.000254
      f+3     :     0.000343
      f-3     :     0.000340

  3 C s       :     3.225798  s :     3.225798
      pz      :     1.016404  p :     2.849038
      px      :     0.979884
      py      :     0.852750
      dz2     :     0.024827  d :     0.102407
      dxz     :     0.013528
      dyz     :     0.014322
      dx2y2   :     0.036324
      dxy     :     0.013406
      f0      :     0.001300  f :     0.007541
      f+1     :     0.000506
      f-1     :     0.000906
      f+2     :     0.000582
      f-2     :     0.001077
      f+3     :     0.001642
      f-3     :     0.001529

  4 H s       :     0.869120  s :     0.869120
      pz      :     0.005279  p :     0.021071
      px      :     0.011452
      py      :     0.004340

  5 H s       :     0.869476  s :     0.869476
      pz      :     0.005055  p :     0.021133
      px      :     0.005054
      py      :     0.011025

  6 H s       :     0.863390  s :     0.863390
      pz      :     0.012651  p :     0.020903
      px      :     0.004173
      py      :     0.004079

  7 H s       :     0.876053  s :     0.876053
      pz      :     0.004269  p :     0.020229
      px      :     0.004327
      py      :     0.011632

  8 H s       :     0.900118  s :     0.900118
      pz      :     0.013025  p :     0.019886
      px      :     0.002907
      py      :     0.003954

  9 H s       :     0.877167  s :     0.877167
      pz      :     0.004562  p :     0.019846
      px      :     0.004548
      py      :     0.010736

 10 H s       :     0.855782  s :     0.855782
      pz      :     0.005310  p :     0.020150
      px      :     0.011565
      py      :     0.003274

 11 H s       :     0.884565  s :     0.884565
      pz      :     0.012805  p :     0.019573
      px      :     0.003583
      py      :     0.003184


------------------------
MULLIKEN OVERLAP CHARGES
------------------------
B(  0-C ,  1-C ) :   0.6269 B(  0-C ,  2-O ) :  -0.1355 B(  0-C ,  4-H ) :   0.7733 
B(  0-C ,  5-H ) :   0.8216 B(  0-C ,  6-H ) :   0.7774 B(  0-C ,  7-H ) :  -0.0704 
B(  0-C ,  8-H ) :  -0.1718 B(  1-C ,  2-O ) :   0.6177 B(  1-C ,  3-C ) :  -0.1248 
B(  1-C ,  4-H ) :  -0.0542 B(  1-C ,  5-H ) :  -0.0769 B(  1-C ,  6-H ) :  -0.0541 
B(  1-C ,  7-H ) :   0.8014 B(  1-C ,  8-H ) :   0.8840 B(  2-O ,  3-C ) :   0.5575 
B(  2-O ,  7-H ) :  -0.0756 B(  2-O ,  8-H ) :  -0.0942 B(  2-O ,  9-H ) :  -0.0967 
B(  2-O , 10-H ) :  -0.0678 B(  2-O , 11-H ) :  -0.0925 B(  3-C ,  9-H ) :   0.8349 
B(  3-C , 10-H ) :   0.8083 B(  3-C , 11-H ) :   0.8232 B(  5-H ,  6-H ) :  -0.0559 
B(  7-H ,  8-H ) :  -0.0655 B(  9-H , 10-H ) :  -0.0553 B(  9-H , 11-H ) :  -0.1205 



                     *******************************
                     * LOEWDIN POPULATION ANALYSIS *
                     *******************************

----------------------
LOEWDIN ATOMIC CHARGES
----------------------
   0 C :   -0.314573
   1 C :   -0.340859
   2 O :    0.104464
   3 C :   -0.344120
   4 H :    0.121914
   5 H :    0.114230
   6 H :    0.120494
   7 H :    0.123856
   8 H :    0.112773
   9 H :    0.096226
  10 H :    0.108316
  11 H :    0.097278

-------------------------------
LOEWDIN REDUCED ORBITAL CHARGES
-------------------------------
  0 C s       :     2.833844  s :     2.833844
      pz      :     1.073516  p :     3.200230
      px      :     1.058738
      py      :     1.067976
      dz2     :     0.064914  d :     0.255837
      dxz     :     0.033389
      dyz     :     0.035312
      dx2y2   :     0.077462
      dxy     :     0.044760
      f0      :     0.004234  f :     0.024662
      f+1     :     0.001415
      f-1     :     0.002157
      f+2     :     0.003555
      f-2     :     0.004660
      f+3     :     0.004539
      f-3     :     0.004102

  1 C s       :     2.808029  s :     2.808029
      pz      :     1.005428  p :     2.934901
      px      :     0.867553
      py      :     1.061920
      dz2     :     0.135487  d :     0.530528
      dxz     :     0.103467
      dyz     :     0.037578
      dx2y2   :     0.121950
      dxy     :     0.132046
      f0      :     0.006272  f :     0.067400
      f+1     :     0.012329
      f-1     :     0.002458
      f+2     :     0.013043
      f-2     :     0.010822
      f+3     :     0.011004
      f-3     :     0.011474

  2 O s       :     3.300523  s :     3.300523
      pz      :     1.629856  p :     4.487558
      px      :     1.330212
      py      :     1.527490
      dz2     :     0.014070  d :     0.101348
      dxz     :     0.022964
      dyz     :     0.011391
      dx2y2   :     0.026641
      dxy     :     0.026282
      f0      :     0.000401  f :     0.006107
      f+1     :     0.000989
      f-1     :     0.000450
      f+2     :     0.001083
      f-2     :     0.000995
      f+3     :     0.000905
      f-3     :     0.001284

  3 C s       :     2.861880  s :     2.861880
      pz      :     1.070033  p :     3.030423
      px      :     1.007517
      py      :     0.952873
      dz2     :     0.096280  d :     0.397826
      dxz     :     0.048474
      dyz     :     0.058665
      dx2y2   :     0.126472
      dxy     :     0.067934
      f0      :     0.006497  f :     0.053991
      f+1     :     0.003113
      f-1     :     0.006039
      f+2     :     0.007371
      f-2     :     0.011123
      f+3     :     0.010788
      f-3     :     0.009059

  4 H s       :     0.817848  s :     0.817848
      pz      :     0.016278  p :     0.060237
      px      :     0.030352
      py      :     0.013608

  5 H s       :     0.824944  s :     0.824944
      pz      :     0.015749  p :     0.060826
      px      :     0.015612
      py      :     0.029465

  6 H s       :     0.819018  s :     0.819018
      pz      :     0.035080  p :     0.060488
      px      :     0.012722
      py      :     0.012686

  7 H s       :     0.819588  s :     0.819588
      pz      :     0.013652  p :     0.056556
      px      :     0.012721
      py      :     0.030184

  8 H s       :     0.830320  s :     0.830320
      pz      :     0.035453  p :     0.056906
      px      :     0.008982
      py      :     0.012471

  9 H s       :     0.843601  s :     0.843601
      pz      :     0.014443  p :     0.060173
      px      :     0.014695
      py      :     0.031035

 10 H s       :     0.832377  s :     0.832377
      pz      :     0.016261  p :     0.059307
      px      :     0.032432
      py      :     0.010615

 11 H s       :     0.843268  s :     0.843268
      pz      :     0.037649  p :     0.059454
      px      :     0.011630
      py      :     0.010174


---------------------------------
LOEWDIN BOND ORDERS (THRESH 0.050000)
---------------------------------
B(  0-C ,  1-C ) :   1.3188 B(  0-C ,  2-O ) :   0.1042 B(  0-C ,  4-H ) :   0.9002 
B(  0-C ,  5-H ) :   0.9072 B(  0-C ,  6-H ) :   0.9069 B(  0-C ,  7-H ) :   0.0781 
B(  0-C ,  8-H ) :   0.0760 B(  1-C ,  2-O ) :   1.4512 B(  1-C ,  3-C ) :   0.1866 
B(  1-C ,  4-H ) :   0.0880 B(  1-C ,  5-H ) :   0.0780 B(  1-C ,  6-H ) :   0.0802 
B(  1-C ,  7-H ) :   0.8799 B(  1-C ,  8-H ) :   0.8778 B(  2-O ,  3-C ) :   1.5038 
B(  2-O , 10-H ) :   0.0502 B(  3-C ,  9-H ) :   0.9396 B(  3-C , 10-H ) :   0.9404 
B(  3-C , 11-H ) :   0.9370 

------------------------------------------
LOEWDIN REDUCED ORBITAL POPULATIONS PER MO
-------------------------------------------
THRESHOLD FOR PRINTING IS 0.1%%
                      0         1         2         3         4         5   
                 -21.66890 -12.09059 -12.08424 -12.03798  -1.67012  -1.27638
                   2.00000   2.00000   2.00000   2.00000   2.00000   2.00000
                  --------  --------  --------  --------  --------  --------
 0 C  s               0.0       0.0       0.0      99.5       0.3      17.4
 0 C  pz              0.0       0.0       0.0       0.0       0.0       0.2
 0 C  px              0.0       0.0       0.0       0.0       0.7       1.1
 0 C  py              0.0       0.0       0.0       0.0       0.3       2.1
 0 C  dz2             0.0       0.0       0.0       0.0       0.1       0.1
 0 C  dxy             0.0       0.1       0.0       0.0       0.1       0.5
 1 C  s               0.0      99.5       0.0       0.0       5.5      21.9
 1 C  pz              0.0       0.0       0.0       0.0       1.7       0.3
 1 C  px              0.0       0.0       0.0       0.0       7.7       1.9
 1 C  py              0.0       0.0       0.0       0.0       0.1       0.9
 1 C  dz2             0.0       0.0       0.0       0.0       0.2       0.0
 1 C  dxz             0.0       0.0       0.0       0.0       1.6       0.1
 1 C  dx2y2           0.0       0.0       0.0       0.0       1.8       0.1
 1 C  dxy             0.0       0.0       0.0       0.1       0.0       0.7
 1 C  f0              0.0       0.0       0.0       0.0       0.1       0.1
 1 C  f+2             0.0       0.0       0.0       0.0       0.3       0.0
 1 C  f+3             0.0       0.0       0.0       0.0       0.2       0.1
 2 O  s              99.8       0.0       0.0       0.0      55.1       0.5
 2 O  pz              0.0       0.0       0.0       0.0       0.6       0.3
 2 O  px              0.0       0.1       0.0       0.0       0.1      15.0
 2 O  py              0.0       0.0       0.0       0.0       0.5       2.4
 2 O  dxz             0.0       0.0       0.0       0.0       0.0       0.3
 2 O  dx2y2           0.0       0.0       0.0       0.0       0.0       0.3
 2 O  dxy             0.0       0.0       0.0       0.0       0.0       0.1
 3 C  s               0.0       0.0      99.6       0.0       5.7       6.7
 3 C  pz              0.0       0.0       0.0       0.0       0.9       0.3
 3 C  px              0.0       0.0       0.0       0.0       3.3       0.5
 3 C  py              0.0       0.0       0.0       0.0       5.5       0.6
 3 C  dz2             0.0       0.0       0.0       0.0       0.5       0.0
 3 C  dxz             0.0       0.0       0.0       0.0       0.3       0.0
 3 C  dyz             0.0       0.0       0.0       0.0       0.6       0.1
 3 C  dx2y2           0.0       0.0       0.0       0.0       0.1       0.2
 3 C  dxy             0.0       0.0       0.0       0.0       2.1       0.0
 3 C  f-2             0.0       0.0       0.0       0.0       0.2       0.0
 3 C  f+3             0.0       0.0       0.0       0.0       0.2       0.0
 4 H  s               0.0       0.0       0.0       0.0       0.0       3.5
 4 H  px              0.0       0.0       0.0       0.0       0.0       0.3
 5 H  s               0.0       0.0       0.0       0.0       0.0       3.2
 5 H  py              0.0       0.0       0.0       0.0       0.0       0.3
 6 H  s               0.0       0.0       0.0       0.0       0.0       3.3
 6 H  pz              0.0       0.0       0.0       0.0       0.0       0.3
 7 H  s               0.0       0.0       0.0       0.0       0.6       4.5
 7 H  py              0.0       0.0       0.0       0.0       0.0       0.5
 8 H  s               0.0       0.0       0.0       0.0       0.5       3.9
 8 H  pz              0.0       0.0       0.0       0.0       0.0       0.4
 9 H  s               0.0       0.0       0.0       0.0       0.5       1.0
 9 H  py              0.0       0.0       0.0       0.0       0.0       0.1
10 H  s               0.0       0.0       0.0       0.0       0.6       1.4
10 H  px              0.0       0.0       0.0       0.0       0.0       0.2
11 H  s               0.0       0.0       0.0       0.0       0.5       1.1
11 H  pz              0.0       0.0       0.0       0.0       0.0       0.1

                      6         7         8         9        10        11   
                  -1.19971  -1.09831  -0.97918  -0.96423  -0.94969  -0.86019
                   2.00000   2.00000   2.00000   2.00000   2.00000   2.00000
                  --------  --------  --------  --------  --------  --------
 0 C  s              13.6       9.3       0.2       0.0       0.8       0.0
 0 C  pz              0.0       0.6       2.6       0.0       0.1      19.3
 0 C  px              0.0       2.1       0.0       0.8       3.2       2.2
 0 C  py              0.0       3.1       3.1       1.6       5.5       8.8
 0 C  dz2             0.0       0.1       0.0       0.0       0.1       0.1
 0 C  dxz             0.0       0.1       0.1       0.1       0.0       0.1
 0 C  dyz             0.0       0.1       0.4       0.0       0.1       0.0
 0 C  dx2y2           0.0       0.0       0.2       0.3       0.0       0.0
 0 C  dxy             0.0       0.4       0.0       0.0       0.3       0.1
 1 C  s               0.4       8.6       2.3       0.6       0.8       0.0
 1 C  pz              0.3       2.1      12.1       1.0       1.5      13.7
 1 C  px              6.3       1.1       6.6       4.7       5.9       1.8
 1 C  py              4.4       3.0       1.2       8.4       0.6       4.0
 1 C  dz2             0.2       0.1       0.0       0.1       0.5       0.6
 1 C  dxz             0.8       0.1       0.7       0.1       0.2       0.9
 1 C  dyz             0.2       0.1       0.0       0.3       0.1       0.1
 1 C  dx2y2           0.3       0.0       0.0       0.1       0.5       0.2
 1 C  dxy             0.0       0.8       0.0       0.6       1.0       0.5
 1 C  f+1             0.0       0.0       0.0       0.1       0.2       0.1
 1 C  f+2             0.1       0.0       0.1       0.0       0.0       0.0
 2 O  s               2.3       3.7       0.0       2.3       0.0       0.4
 2 O  pz              0.7       8.3       2.7      16.2      28.5       5.2
 2 O  px              7.5       5.9      25.8       3.2       1.4       0.1
 2 O  py              9.9       0.6       0.4      25.4      21.8       2.1
 2 O  dxz             0.1       0.1       0.0       0.0       0.0       0.1
 2 O  dyz             0.1       0.0       0.0       0.1       0.0       0.0
 2 O  dxy             0.1       0.1       0.1       0.0       0.0       0.1
 3 C  s              20.5       6.8       1.7       1.5       0.1       0.2
 3 C  pz              0.0       2.1       0.8       0.5      10.9       1.5
 3 C  px              0.1       0.5       0.6      13.3       1.9       0.5
 3 C  py              0.3       3.3      14.4       1.7       1.0       3.2
 3 C  dz2             0.0       0.0       0.0       0.1       0.1       0.0
 3 C  dxz             0.0       0.2       0.0       0.0       0.6       0.0
 3 C  dyz             0.0       0.6       0.2       0.2       0.4       0.0
 3 C  dx2y2           0.0       0.3       0.5       0.4       0.4       0.0
 3 C  dxy             0.2       0.1       0.2       0.4       0.0       0.1
 3 C  f-1             0.0       0.0       0.0       0.0       0.1       0.0
 3 C  f-2             0.0       0.1       0.0       0.0       0.1       0.0
 3 C  f-3             0.0       0.0       0.1       0.1       0.1       0.0
 4 H  s               3.8       4.1       0.0       0.2       1.3       0.0
 4 H  pz              0.1       0.1       0.0       0.0       0.0       0.2
 4 H  px              0.3       0.3       0.0       0.0       0.0       0.0
 5 H  s               3.8       4.2       0.7       0.5       1.9       9.2
 5 H  px              0.0       0.1       0.0       0.0       0.1       0.0
 5 H  py              0.3       0.2       0.0       0.0       0.0       0.3
 6 H  s               3.3       4.5       1.4       0.0       0.8       7.8
 6 H  pz              0.3       0.4       0.1       0.0       0.1       0.2
 6 H  py              0.0       0.0       0.0       0.0       0.0       0.1
 7 H  s               0.0       4.0       2.3       5.7       1.0       4.9
 7 H  pz              0.0       0.1       0.2       0.0       0.0       0.0
 7 H  px              0.1       0.1       0.0       0.0       0.0       0.0
 7 H  py              0.0       0.2       0.1       0.2       0.1       0.2
 8 H  s               0.2       5.0       7.4       0.1       0.0       7.3
 8 H  pz              0.0       0.5       0.4       0.0       0.0       0.2
 8 H  px              0.1       0.0       0.1       0.1       0.1       0.0
 9 H  s               5.7       3.5       5.6       0.7       0.7       1.8
 9 H  pz              0.0       0.1       0.1       0.0       0.0       0.0
 9 H  px              0.1       0.1       0.1       0.2       0.0       0.0
 9 H  py              0.5       0.2       0.1       0.0       0.2       0.0
10 H  s               5.8       2.4       0.8       6.8       0.1       0.3
10 H  pz              0.1       0.1       0.0       0.1       0.1       0.0
10 H  px              0.5       0.1       0.0       0.2       0.0       0.0
10 H  py              0.0       0.1       0.2       0.1       0.0       0.0
11 H  s               5.2       4.5       2.0       0.6       3.7       0.6
11 H  pz              0.6       0.4       0.1       0.0       0.2       0.0
11 H  px              0.0       0.0       0.0       0.2       0.0       0.0
11 H  py              0.0       0.0       0.2       0.0       0.0       0.0

                     12        13        14        15        16        17   
                  -0.83245  -0.81798  -0.80639  -0.78161  -0.76970  -0.15785
                   2.00000   2.00000   2.00000   2.00000   2.00000   0.00000
                  --------  --------  --------  --------  --------  --------
 0 C  s               0.3       0.0       0.0       0.1       0.1       0.1
 0 C  pz              0.2       9.7       7.4       1.6      11.8       0.0
 0 C  px             27.2       1.4      10.8       0.0       3.2       0.1
 0 C  py              1.6       9.1       3.6      14.2       0.3       0.1
 0 C  dz2             0.0       0.3       0.3       0.3       1.7       0.6
 0 C  dxz             0.4       0.2       0.4       0.1       0.2       0.1
 0 C  dyz             0.0       0.0       0.0       0.4       0.6       0.2
 0 C  dx2y2           0.2       0.3       1.3       0.7       0.7       1.8
 0 C  dxy             0.3       0.0       0.1       0.1       0.0       0.5
 0 C  f+2             0.0       0.0       0.1       0.0       0.0       0.1
 0 C  f-3             0.0       0.0       0.1       0.0       0.0       0.1
 1 C  s               0.2       0.2       0.3       0.1       0.1       3.3
 1 C  pz              2.2       0.5       0.4       0.4      14.1       4.4
 1 C  px              1.0       2.5       1.5       0.1       2.4      16.1
 1 C  py             15.3       3.3       1.6       9.6       0.7       0.5
 1 C  dz2             0.0       0.1       0.1       0.0       4.8       0.5
 1 C  dxz             0.0       0.2       0.2       0.3       0.0       2.3
 1 C  dyz             0.1       0.2       0.0       0.1       0.5       0.4
 1 C  dx2y2           0.2       0.5       1.0       1.2       0.2       2.6
 1 C  dxy             0.6       0.2       0.1       1.9       0.0       0.2
 1 C  f0              0.0       0.0       0.0       0.0       0.1       0.3
 1 C  f+2             0.0       0.0       0.1       0.0       0.0       0.4
 1 C  f-2             0.1       0.0       0.0       0.2       0.0       0.1
 1 C  f+3             0.0       0.0       0.0       0.0       0.2       0.6
 1 C  f-3             0.1       0.0       0.1       0.0       0.0       0.1
 2 O  s               0.0       0.5       0.2       0.1       0.1      11.9
 2 O  pz              0.0       3.1       0.9       4.9      10.2       6.8
 2 O  px              0.2       0.0       4.7       1.7       0.9       2.2
 2 O  py              1.0       0.6       2.5       8.2       1.0       6.1
 2 O  dz2             0.0       0.1       0.0       0.0       0.3       0.7
 2 O  dxz             0.0       0.1       0.0       0.1       0.0       0.4
 2 O  dyz             0.0       0.2       0.0       0.0       0.0       0.4
 2 O  dx2y2           0.3       0.1       0.3       0.1       0.0       0.6
 2 O  dxy             0.2       0.2       0.0       0.2       0.0       1.2
 2 O  f+3             0.0       0.0       0.0       0.0       0.0       0.2
 3 C  s               0.0       0.0       0.0       0.0       0.1       2.8
 3 C  pz              2.5      21.6       3.1       6.7       2.6       2.0
 3 C  px              8.7       5.0      14.3       1.0       0.8       6.9
 3 C  py              5.8       0.4       3.3       7.7       0.5       9.7
 3 C  dz2             0.1       1.2       0.1       1.6       1.0       1.0
 3 C  dxz             0.1       0.5       0.3       0.2       0.1       0.8
 3 C  dyz             0.1       0.1       0.0       0.4       0.2       0.4
 3 C  dx2y2           0.4       0.4       2.0       1.3       0.4       0.1
 3 C  dxy             0.0       0.0       0.2       0.1       0.1       3.6
 3 C  f0              0.0       0.0       0.0       0.0       0.0       0.2
 3 C  f-1             0.0       0.0       0.0       0.0       0.0       0.1
 3 C  f+2             0.0       0.0       0.2       0.0       0.0       0.0
 3 C  f-2             0.0       0.0       0.0       0.1       0.0       0.2
 3 C  f+3             0.0       0.0       0.0       0.1       0.0       0.5
 3 C  f-3             0.0       0.0       0.1       0.0       0.0       0.2
 4 H  s              12.4       4.2      11.1       0.0       0.1       1.1
 4 H  pz              0.1       0.0       0.0       0.0       0.2       0.0
 4 H  px              0.1       0.2       0.2       0.0       0.0       0.1
 4 H  py              0.1       0.1       0.0       0.2       0.0       0.0
 5 H  s               0.1       2.3       2.4       8.5       4.4       0.2
 5 H  pz              0.0       0.3       0.2       0.0       0.1       0.0
 5 H  px              0.3       0.0       0.1       0.1       0.0       0.0
 5 H  py              0.1       0.0       0.0       0.0       0.1       0.0
 6 H  s               0.1       5.6       3.8       0.9       9.4       0.2
 6 H  pz              0.0       0.1       0.1       0.0       0.1       0.0
 6 H  px              0.4       0.0       0.2       0.0       0.0       0.0
 6 H  py              0.0       0.1       0.0       0.2       0.0       0.0
 7 H  s               3.5       0.8       1.8       7.5       4.4       0.0
 7 H  pz              0.1       0.0       0.0       0.0       0.1       0.2
 7 H  px              0.1       0.1       0.0       0.1       0.0       0.7
 7 H  py              0.0       0.0       0.0       0.0       0.1       0.0
 8 H  s               1.0       0.8       0.5       0.1      14.7       0.0
 8 H  px              0.0       0.0       0.0       0.0       0.0       0.6
 8 H  py              0.2       0.1       0.0       0.1       0.0       0.0
 9 H  s               6.7       0.0       4.5       9.5       2.0       0.1
 9 H  pz              0.0       0.3       0.1       0.0       0.0       0.1
 9 H  px              0.0       0.0       0.1       0.1       0.0       0.3
 9 H  py              0.2       0.0       0.0       0.1       0.0       0.3
10 H  s               3.0       8.9      11.5       0.1       0.0       0.1
10 H  pz              0.1       0.0       0.0       0.1       0.0       0.1
10 H  px              0.0       0.3       0.2       0.0       0.0       0.3
10 H  py              0.0       0.0       0.0       0.1       0.0       0.4
11 H  s               1.6      12.2       1.3       5.8       3.2       0.0
11 H  pz              0.0       0.2       0.0       0.1       0.0       0.0
11 H  px              0.1       0.1       0.2       0.0       0.0       0.3
11 H  py              0.1       0.0       0.1       0.1       0.0       0.3

                     18        19        20        21        22        23   
                  -0.09790  -0.01804   0.00130   0.01691   0.03229   0.04016
                   0.00000   0.00000   0.00000   0.00000   0.00000   0.00000
                  --------  --------  --------  --------  --------  --------
 0 C  s               0.1       6.0      12.9       0.8       0.2       1.1
 0 C  pz              0.2       0.2       0.7       1.3       0.5       0.4
 0 C  px              0.2       0.5       5.5       5.7       1.9       5.4
 0 C  py              0.5       2.5       5.1       2.9       4.3       0.3
 0 C  dz2             0.9       0.0       0.7       2.0       0.0       0.0
 0 C  dxz             0.0       0.5       1.7       0.1       0.0       2.5
 0 C  dyz             0.1       1.2       1.2       0.4       0.0       0.1
 0 C  dx2y2           1.0       0.1       0.7       4.7       0.3       0.2
 0 C  dxy             1.0       1.9       4.3       0.4       4.0       0.8
 0 C  f0              0.0       0.0       0.4       0.1       0.0       0.0
 0 C  f+2             0.1       0.0       0.0       0.1       0.0       0.0
 0 C  f-2             0.0       0.1       0.2       0.0       0.0       0.1
 0 C  f+3             0.0       0.0       0.4       0.1       0.0       0.0
 0 C  f-3             0.1       0.0       0.1       0.0       0.0       0.0
 1 C  s               4.9       4.8       6.5       3.4       0.1       0.2
 1 C  pz              1.8       3.4       0.8       3.1       8.3       0.9
 1 C  px              8.2       0.1       6.1       2.8       2.1       1.0
 1 C  py              0.6       0.5       7.4       5.7       2.2       1.1
 1 C  dz2             0.0       1.2       0.5       2.4       2.7       1.4
 1 C  dxz             2.4       0.3       1.3       0.1       0.0       0.1
 1 C  dyz             0.0       0.2       2.1       1.1       0.9       1.3
 1 C  dx2y2           1.6       0.0       1.1       3.1       0.1       0.0
 1 C  dxy             0.2       0.5       5.6       1.6       0.4       0.4
 1 C  f0              0.2       0.1       0.2       0.0       0.0       0.0
 1 C  f+2             0.4       0.0       0.0       0.1       0.0       0.0
 1 C  f+3             0.2       0.0       0.4       0.2       0.0       0.0
 1 C  f-3             0.0       0.0       0.1       0.0       0.1       0.0
 2 O  s               0.1       0.2       0.0       0.0       0.1       0.1
 2 O  pz              0.1       1.3       0.0       0.0       3.0       0.0
 2 O  px             24.2       0.0       0.0       0.1       0.4       0.0
 2 O  py              8.0       0.1       1.1       0.3       1.0       0.3
 2 O  dz2             0.1       0.0       0.0       0.1       0.4       0.0
 2 O  dxz             2.6       0.1       0.0       0.0       0.0       0.3
 2 O  dyz             0.6       0.0       0.4       0.1       0.0       0.1
 2 O  dx2y2           2.3       0.0       0.2       0.4       0.0       0.3
 2 O  dxy             1.5       0.2       0.1       0.3       0.0       0.2
 2 O  f+2             0.1       0.0       0.0       0.0       0.0       0.0
 3 C  s               5.5       8.5       0.3       0.5       1.6       5.8
 3 C  pz              1.3       0.9       2.0       1.4       8.9       0.3
 3 C  px              6.4       0.2       0.0       0.5       0.1      13.9
 3 C  py              8.3       1.9       0.6       2.1       5.9       0.7
 3 C  dz2             0.3       0.1       1.1       0.5       3.1       0.5
 3 C  dxz             0.7       0.2       0.2       0.5       0.0       3.4
 3 C  dyz             1.9       0.3       0.0       0.3       0.2       0.2
 3 C  dx2y2           1.0       0.0       0.0       1.5       0.0       2.9
 3 C  dxy             2.6       0.6       0.3       0.2       2.2       0.0
 3 C  f0              0.3       0.1       0.0       0.0       0.0       0.1
 3 C  f+2             0.2       0.0       0.0       0.0       0.0       0.1
 3 C  f-2             0.3       0.0       0.0       0.0       0.0       0.0
 3 C  f+3             0.3       0.1       0.0       0.0       0.0       0.1
 4 H  s               0.6       4.4       2.1       5.3       0.4       8.3
 4 H  pz              0.0       0.2       0.0       0.7       0.0       0.6
 4 H  px              0.2       1.1       1.1       1.1       0.0       1.8
 4 H  py              0.1       0.3       0.1       0.0       0.4       0.2
 5 H  s               0.1       7.8       4.6       3.1       1.4       0.3
 5 H  pz              0.0       0.4       0.0       0.0       0.0       0.0
 5 H  px              0.0       0.8       0.0       0.1       0.8       0.2
 5 H  py              0.0       1.6       2.3       1.1       0.1       0.1
 6 H  s               0.3       2.5       3.8       3.7       0.1       0.3
 6 H  pz              0.0       0.8       1.4       1.1       0.0       0.1
 6 H  px              0.0       0.0       0.5       0.1       0.0       0.4
 6 H  py              0.0       0.2       0.3       0.1       0.1       0.0
 7 H  s               0.3       2.6       0.5      17.5       0.0       0.8
 7 H  pz              0.1       0.5       0.0       0.1       0.5       0.0
 7 H  px              0.2       0.2       0.3       0.7       0.1       0.0
 7 H  py              0.0       0.4       0.8       4.8       0.1       0.0
 8 H  s               0.5       9.5       3.0       0.9       9.5       1.6
 8 H  pz              0.4       2.9       1.0       0.1       3.0       0.5
 8 H  px              0.4       0.1       0.5       0.0       0.0       0.0
 8 H  py              0.0       0.0       0.5       0.3       0.2       0.3
 9 H  s               0.4       7.1       0.4       2.8      13.1       0.6
 9 H  pz              0.0       0.4       0.0       0.3       0.0       0.0
 9 H  px              0.3       0.7       0.1       0.0       1.3       0.2
 9 H  py              0.7       1.7       0.1       0.7       3.7       0.1
10 H  s               0.3       3.1       0.1       0.8       2.3      21.5
10 H  pz              0.0       0.3       0.1       0.0       0.1       2.1
10 H  px              0.2       0.8       0.0       0.2       1.0       5.2
10 H  py              0.3       0.1       0.0       0.1       0.5       0.0
11 H  s               0.5       7.6       2.8       2.1       4.3       5.2
11 H  pz              0.3       2.5       0.9       0.7       1.2       2.3
11 H  px              0.3       0.0       0.0       0.1       0.0       0.5
11 H  py              0.4       0.1       0.0       0.1       0.2       0.0

                     24        25        26        27        28        29   
                   0.05075   0.06389   0.07661   0.08718   0.17551   0.19445
                   0.00000   0.00000   0.00000   0.00000   0.00000   0.00000
                  --------  --------  --------  --------  --------  --------
 0 C  s               0.5       0.0       1.9       0.5       0.2       0.1
 0 C  pz             17.8       0.8       1.6       4.7      13.2       5.6
 0 C  px              0.2       7.1       3.2       1.4       2.2       1.4
 0 C  py              0.2       6.7       3.1       3.8       4.4      16.9
 0 C  dz2             9.1       0.5       1.5       2.0       4.3       2.1
 0 C  dxz             0.2       4.0       0.9       0.9       0.0       0.1
 0 C  dyz             0.0       6.2       1.1       0.1       0.0       0.9
 0 C  dx2y2           0.0       2.0       0.1       0.1       0.9       0.1
 0 C  dxy             0.3       0.4       1.1       2.8       0.2       3.6
 0 C  f0              0.1       0.0       0.1       0.1       0.0       0.0
 0 C  f-2             0.0       0.0       0.1       0.0       0.0       0.1
 1 C  s               0.5       1.4       0.5       0.5       0.3       0.1
 1 C  pz              1.9       0.9       0.3       7.8       0.1       6.7
 1 C  px              0.8       2.5       0.1       1.1       4.6       1.6
 1 C  py              0.4       0.8      14.2       0.1      13.4       5.2
 1 C  dz2             1.0       0.3       0.1       3.2       0.0       2.3
 1 C  dxz             0.4       2.0       0.0       0.2       0.6       0.5
 1 C  dyz             0.8       1.8       0.7       0.1       3.6       0.4
 1 C  dx2y2           0.0       0.0       0.1       0.1       0.2       1.4
 1 C  dxy             1.1       0.0       1.6       0.1       0.9       0.8
 1 C  f0              0.2       0.0       0.1       0.0       0.0       0.0
 1 C  f-3             0.0       0.2       0.0       0.0       0.0       0.1
 2 O  s               0.3       0.1       0.0       0.1       0.8       0.1
 2 O  pz              0.4       0.4       0.1       0.1       0.2       5.0
 2 O  px              0.0       0.3       1.5       0.2       0.5       0.4
 2 O  py              0.2       0.6       0.0       0.9       1.7       1.1
 2 O  dz2             0.0       0.0       0.0       0.0       0.1       0.1
 2 O  dxz             0.1       0.0       0.1       0.7       0.0       0.0
 2 O  dyz             0.3       0.1       0.0       0.1       0.3       0.0
 2 O  dx2y2           0.1       0.0       0.0       0.2       0.1       0.0
 2 O  dxy             0.3       0.0       0.1       0.1       0.3       0.1
 3 C  s               0.1       2.4       0.3       0.1       0.4       0.4
 3 C  pz              4.0       1.9       0.8       9.6       5.0      15.2
 3 C  px              1.9       1.5       4.3       1.5       1.1       3.4
 3 C  py              0.6       0.8       3.9       0.9      21.2       0.5
 3 C  dz2             3.0       1.3       0.0       4.8       0.6       2.5
 3 C  dxz             1.1       0.7       1.2       0.0       0.9       0.5
 3 C  dyz             0.4       0.7       2.3       0.3       1.3       0.2
 3 C  dx2y2           1.2       0.0       1.6       0.5       0.0       0.0
 3 C  dxy             0.0       0.2       0.5       0.4       0.0       0.4
 3 C  f0              0.0       0.1       0.0       0.0       0.0       0.0
 4 H  s               2.0      12.4       2.9       1.9       0.3       1.2
 4 H  pz              0.3       0.8       0.8       0.1       0.3       0.2
 4 H  px              0.9       2.7       0.5       0.8       0.0       0.0
 4 H  py              0.0       0.0       0.3       0.7       0.0       0.3
 5 H  s               0.6       9.1       1.8       8.1       1.4       5.6
 5 H  pz              0.6       1.6       0.7       0.1       0.1       0.2
 5 H  px              0.1       0.0       0.3       0.6       0.1       0.1
 5 H  py              0.2       1.6       0.3       2.3       0.8       0.1
 6 H  s              21.1       0.5       5.1       3.0       5.0       2.8
 6 H  pz              6.1       0.1       1.9       0.6       0.1       0.0
 6 H  px              0.1       0.6       0.1       0.0       0.0       0.1
 6 H  py              0.0       0.8       0.2       0.2       0.0       0.4
 7 H  s               0.2       4.4      12.1       0.8       3.1       0.2
 7 H  pz              0.0       0.7       0.3       0.2       0.0       0.3
 7 H  px              0.2       0.1       1.3       0.1       0.0       0.3
 7 H  py              0.0       0.8       2.7       0.2       0.1       0.5
 8 H  s               2.2       1.5       0.0      10.0       0.1       3.7
 8 H  pz              0.9       0.5       0.0       3.5       0.0       0.0
 8 H  px              0.0       0.3       0.0       0.0       0.2       0.0
 8 H  py              0.0       0.1       0.4       0.0       0.9       0.1
 9 H  s               0.8       1.7       7.4       3.1       0.5       0.7
 9 H  pz              0.6       0.6       0.8       0.0       0.0       0.3
 9 H  px              0.1       0.2       0.0       0.1       0.1       0.0
 9 H  py              0.1       0.2       1.9       1.1       0.7       0.0
10 H  s               4.4       1.4       4.8       2.2       1.2       0.0
10 H  pz              0.0       0.3       0.3       0.1       0.0       0.3
10 H  px              1.3       0.2       1.2       1.1       0.1       0.0
10 H  py              0.0       0.1       0.1       0.1       0.0       0.1
11 H  s               5.1       5.2       1.0       6.1       0.7       2.3
11 H  pz              1.4       1.8       0.3       2.1       0.0       0.0
11 H  px              0.3       0.1       0.3       0.0       0.1       0.0
11 H  py              0.0       0.1       0.4       0.1       0.2       0.0

                     30        31        32        33        34        35   
                   0.20639   0.20921   0.22625   0.23516   0.24995   0.29022
                   0.00000   0.00000   0.00000   0.00000   0.00000   0.00000
                  --------  --------  --------  --------  --------  --------
 0 C  s               0.1       2.4       0.0       0.0       0.6       1.3
 0 C  pz              0.8       1.0      23.3       8.0       1.0       1.7
 0 C  px              8.6      16.7       0.3       0.6      18.3       2.4
 0 C  py             17.3       2.0       1.1       3.0       0.3      15.8
 0 C  dz2             0.0       0.2       2.3       2.1       0.2       0.0
 0 C  dxz             1.9       1.0       2.1       0.4       5.4       0.5
 0 C  dyz             3.0       0.1       1.4       0.5       0.4       0.1
 0 C  dx2y2           0.4       0.1       0.0       2.6       0.4       0.1
 0 C  dxy             0.4       1.6       2.0       0.0       0.3       0.2
 0 C  f0              0.0       0.1       0.0       0.0       0.0       0.4
 0 C  f+1             0.0       0.0       0.0       0.1       0.0       0.1
 0 C  f+3             0.0       0.0       0.0       0.0       0.0       0.3
 1 C  s               0.1       0.3       1.3       1.9       0.3       1.4
 1 C  pz              3.8       0.1      24.1       5.4       1.2       1.2
 1 C  px              0.1       0.6       6.3      20.6       5.1      16.6
 1 C  py              0.7       0.5       0.2       1.6       6.5      12.1
 1 C  dz2             1.4       0.2       1.3       0.2       1.7       0.7
 1 C  dxz             0.5       0.3       0.1       1.3       1.0       0.4
 1 C  dyz             0.4       0.0       1.6       0.3       1.2       1.2
 1 C  dx2y2           0.4       0.1       0.1       0.9       0.1       0.1
 1 C  dxy             0.1       2.1       0.2       0.0       0.0       0.1
 1 C  f0              0.0       0.1       0.0       0.2       0.0       0.7
 1 C  f-2             0.0       0.1       0.0       0.0       0.0       0.0
 1 C  f+3             0.0       0.1       0.0       0.1       0.2       0.7
 2 O  s               0.0       0.2       1.1       0.2       1.1       1.5
 2 O  pz              1.9       0.1       5.8       0.2       0.9       0.1
 2 O  px              0.5       0.9       0.4       0.9       2.4       1.1
 2 O  py              0.9       0.3       3.7       0.3       2.2       4.4
 2 O  dz2             0.0       0.0       0.1       0.0       0.4       0.0
 2 O  dxz             0.2       0.1       0.3       1.0       0.1       0.0
 2 O  dyz             0.0       0.2       0.0       0.0       0.1       0.0
 2 O  dx2y2           0.0       0.1       0.2       0.9       0.1       0.2
 2 O  dxy             0.1       1.3       0.0       0.1       0.1       0.0
 3 C  s               0.0       1.4       0.3       0.1       1.1       1.7
 3 C  pz             17.0       1.9       3.8       9.1       3.5       0.0
 3 C  px              9.6       4.7       1.9       4.3      14.4       1.7
 3 C  py              1.5      34.9       1.0       0.6       4.1       5.3
[...]
 2 O  f0             31.2      30.1       1.7       5.8       1.9       8.1
 2 O  f+1             5.7      11.0      21.6       0.5      19.8       0.0
 2 O  f-1            34.2      21.0       8.9      10.0       0.3       2.2
 2 O  f+2             0.6       9.3       1.8      32.4       2.5       4.8
 2 O  f-2             3.2      12.8       3.0       1.7      28.5      12.2
 2 O  f+3            12.3       1.1       0.8      14.8      13.9      25.6
 2 O  f-3             0.0       0.2      30.0       3.8       1.6       0.0
 3 C  s               0.0       0.0       0.1       1.0       0.8       0.9
 3 C  px              0.0       0.0       0.1       0.3       0.2       0.6
 3 C  py              0.1       0.0       0.1       0.5       0.4       0.4
 3 C  dz2             0.1       0.2       0.8       0.1       0.4       0.4
 3 C  dxz             0.1       0.1       0.1       0.9       0.1       0.5
 3 C  dyz             0.1       0.1       0.1       1.0       0.1       0.9
 3 C  dx2y2           0.1       0.2       1.0       0.0       0.6       0.3
 3 C  dxy             0.0       0.4       0.1       1.0       0.6       2.0
 3 C  f0              0.8       0.0       0.4       0.4       0.5       0.2
 3 C  f+1             0.1       0.6       0.6       0.0       0.5       0.0
 3 C  f-1             0.2       0.1       0.6       1.0       0.6       0.2
 3 C  f+2             0.1       0.1       0.4       0.1       0.6       0.0
 3 C  f-2             0.3       0.0       0.7       1.0       0.1       0.7
 3 C  f+3             1.3       0.1       1.6       0.0       0.2       0.8
 3 C  f-3             0.2       1.5       0.3       1.3       0.0       0.0
 4 H  s               0.0       0.0       0.0       0.0       0.1       0.0
 7 H  s               0.0       0.1       0.0       0.0       0.0       0.1
 7 H  px              0.0       0.1       0.0       0.0       0.0       0.2
 8 H  s               0.2       0.1       0.1       0.1       0.2       0.0
 9 H  s               0.3       0.0       0.3       0.1       0.2       0.0
 9 H  py              0.0       0.1       0.1       0.1       0.0       0.0
10 H  py              0.0       0.1       0.0       0.0       0.0       0.1
11 H  s               0.3       0.1       0.2       0.2       0.1       0.0

                    162       163       164       165       166       167   
                   5.76915   6.23411   6.25253   6.42542   6.73827   6.75731
                   0.00000   0.00000   0.00000   0.00000   0.00000   0.00000
                  --------  --------  --------  --------  --------  --------
 0 C  px              0.0       0.0       0.1       0.1       0.0       0.0
 0 C  py              0.0       0.1       0.0       0.0       0.1       0.0
 1 C  s               0.2       0.2       0.2       0.0       1.3       0.1
 1 C  pz              0.0       0.1       0.1       0.2       0.4       0.1
 1 C  px              0.1       0.1       0.3       0.1       2.0       0.1
 1 C  py              0.1       0.2       0.0       0.2       0.0       0.3
 1 C  dz2             0.7       0.0       0.1       0.6       0.0       0.1
 1 C  dxz             0.0       0.1       0.3       0.2       0.5       0.3
 1 C  dyz             0.1       0.0       0.0       0.1       0.0       0.2
 1 C  dx2y2           0.2       0.2       0.2       0.1       0.7       0.1
 1 C  dxy             1.3       0.3       0.0       0.2       0.1       0.4
 1 C  f0              0.0       0.0       0.1       0.0       0.1       0.0
 1 C  f+1             0.8       0.0       0.0       0.5       0.0       0.0
 1 C  f+2             0.0       0.0       0.0       0.0       0.1       0.0
 1 C  f-2             1.8       0.1       0.0       0.1       0.1       0.1
 1 C  f+3             0.8       0.1       0.0       0.1       0.1       0.0
 1 C  f-3             2.0       0.2       0.0       0.1       0.0       0.1
 2 O  s               0.1       0.7       0.5       0.0       0.8       3.1
 2 O  pz              0.0       0.0       1.5       0.0       0.1       0.1
 2 O  px              0.8       0.4       0.0       0.0       2.0       0.3
 2 O  py              0.3       1.2       0.0       0.0       0.3       0.3
 2 O  dz2             0.0      28.4      36.4       2.2       2.5      16.6
 2 O  dxz             3.8      12.0       5.4      37.4      24.9       1.6
 2 O  dyz             0.2      30.4      39.7       9.8       5.5       0.6
 2 O  dx2y2           4.0       8.0       3.1      24.1      45.2       1.6
 2 O  dxy             1.3       9.3       3.9       8.4       0.7      59.7
 2 O  f0              0.2       2.0       0.6       0.2       0.2       1.2
 2 O  f+1            14.4       0.0       0.7       6.7       0.3       0.0
 2 O  f-1             3.1       0.3       2.4       1.1       0.2       0.4
 2 O  f+2             9.7       0.1       0.3       0.1       6.0       0.0
 2 O  f-2             7.1       1.1       1.2       0.1       0.8       3.6
 2 O  f+3             0.0       2.3       0.1       0.0       0.4       3.4
 2 O  f-3            37.3       0.0       0.1       4.8       1.4       0.1
 3 C  s               0.1       0.2       0.2       0.0       0.4       1.5
 3 C  pz              0.0       0.1       0.2       0.1       0.0       0.4
 3 C  px              0.1       0.4       0.1       0.0       0.5       0.3
 3 C  py              0.0       0.0       0.2       0.1       0.1       1.3
 3 C  dz2             0.5       0.0       0.1       0.3       0.1       0.1
 3 C  dxz             0.1       0.1       0.2       0.2       0.0       0.2
 3 C  dyz             0.2       0.0       0.1       0.1       0.2       0.4
 3 C  dx2y2           1.1       0.3       0.1       0.3       0.3       0.2
 3 C  dxy             0.4       0.2       0.2       0.0       0.2       0.5
 3 C  f0              0.0       0.0       0.1       0.1       0.1       0.0
 3 C  f+1             0.4       0.0       0.1       0.0       0.0       0.0
 3 C  f-1             0.8       0.0       0.0       0.1       0.0       0.0
 3 C  f+2             1.6       0.0       0.0       0.0       0.3       0.0
 3 C  f-2             0.0       0.0       0.1       0.2       0.0       0.0
 3 C  f+3             0.1       0.1       0.1       0.1       0.0       0.1
 3 C  f-3             2.2       0.1       0.0       0.1       0.1       0.0
 7 H  s               0.6       0.0       0.0       0.0       0.0       0.0
10 H  s               0.7       0.0       0.0       0.0       0.0       0.0

                    168       169       170       171   
                  20.68733  20.71236  20.83765  41.59187
                   0.00000   0.00000   0.00000   0.00000
                  --------  --------  --------  --------
 0 C  s               0.0      89.2       9.3       0.0
 1 C  s              11.1       7.8      79.3       0.1
 2 O  s               0.4       0.0       0.1      99.8
 2 O  px              0.0       0.1       0.3       0.0
 2 O  py              0.1       0.0       0.0       0.0
 3 C  s              86.9       1.4       9.9       0.0
 4 H  s               0.0       0.2       0.0       0.0
 5 H  s               0.0       0.2       0.0       0.0
 6 H  s               0.0       0.2       0.0       0.0
 6 H  pz              0.0       0.1       0.0       0.0
 7 H  s               0.0       0.0       0.2       0.0
 8 H  s               0.0       0.0       0.2       0.0
 9 H  s               0.2       0.0       0.0       0.0
10 H  s               0.2       0.0       0.0       0.0
11 H  s               0.2       0.0       0.0       0.0
11 H  pz              0.1       0.0       0.0       0.0


                      *****************************
                      * MAYER POPULATION ANALYSIS *
                      *****************************

  NA   - Mulliken gross atomic population
  ZA   - Total nuclear charge
  QA   - Mulliken gross atomic charge
  VA   - Mayer's total valence
  BVA  - Mayer's bonded valence
  FA   - Mayer's free valence

  ATOM       NA         ZA         QA         VA         BVA        FA
  0 C      6.3378     6.0000    -0.3378     3.8663     3.8663     0.0000
  1 C      6.0157     6.0000    -0.0157     3.9476     3.9476    -0.0000
  2 O      8.3033     8.0000    -0.3033     1.9722     1.9722    -0.0000
  3 C      6.1848     6.0000    -0.1848     3.9569     3.9569    -0.0000
  4 H      0.8902     1.0000     0.1098     0.9782     0.9782    -0.0000
  5 H      0.8906     1.0000     0.1094     0.9684     0.9684     0.0000
  6 H      0.8843     1.0000     0.1157     0.9795     0.9795    -0.0000
  7 H      0.8963     1.0000     0.1037     0.9626     0.9626    -0.0000
  8 H      0.9200     1.0000     0.0800     0.9725     0.9725    -0.0000
  9 H      0.8970     1.0000     0.1030     0.9521     0.9521    -0.0000
 10 H      0.8759     1.0000     0.1241     0.9697     0.9697     0.0000
 11 H      0.9041     1.0000     0.0959     0.9657     0.9657     0.0000

  Mayer bond orders larger than 0.100000
B(  0-C ,  1-C ) :   0.9763 B(  0-C ,  4-H ) :   0.9711 B(  0-C ,  5-H ) :   0.9785 
B(  0-C ,  6-H ) :   0.9729 B(  1-C ,  2-O ) :   1.0066 B(  1-C ,  7-H ) :   0.9711 
B(  1-C ,  8-H ) :   0.9866 B(  2-O ,  3-C ) :   0.9969 B(  3-C ,  9-H ) :   0.9761 
B(  3-C , 10-H ) :   0.9802 B(  3-C , 11-H ) :   0.9741 

-------
TIMINGS
-------

Total SCF time: 0 days 0 hours 0 min 30 sec 

Total time                  ....      30.247 sec
Sum of individual times     ....      28.797 sec  ( 95.2%)

SCF preparation             ....       0.164 sec  (  0.5%)
Fock matrix formation       ....      27.938 sec  ( 92.4%)
  Startup                   ....       0.044 sec  (  0.2% of F)
  Split-RI-J                ....       0.823 sec  (  2.9% of F)
  Chain of spheres X        ....      22.668 sec  ( 81.1% of F)
  XC integration            ....       4.600 sec  ( 16.5% of F)
    Basis function eval.    ....       0.877 sec  ( 19.1% of XC)
    Density eval.           ....       0.524 sec  ( 11.4% of XC)
    XC-Functional eval.     ....       0.927 sec  ( 20.1% of XC)
    XC-Potential eval.      ....       0.845 sec  ( 18.4% of XC)
Diagonalization             ....       0.000 sec  (  0.0%)
Density matrix formation    ....       0.138 sec  (  0.5%)
Total Energy calculation    ....       0.030 sec  (  0.1%)
Population analysis         ....       0.074 sec  (  0.2%)
Orbital Transformation      ....       0.052 sec  (  0.2%)
Orbital Orthonormalization  ....       0.000 sec  (  0.0%)
DIIS solution               ....       0.224 sec  (  0.7%)
  MO trafo                  ....       0.000 sec  (  0.0 % of DIIS)
  Orb grad                  ....       0.000 sec  (  0.0 % of DIIS)
  Energy W gradient         ....       0.000 sec  (  0.0 % of DIIS)
  DIIS error                ....       0.003 sec  (  1.2 % of DIIS)
  DIIS work                 ....       0.185 sec  ( 82.8 % of DIIS)
  Form Q                    ....       0.000 sec  (  0.0 % of DIIS)
  Form QpQm                 ....       0.000 sec  (  0.0 % of DIIS)
  Exp/Cayley                ....       0.000 sec  (  0.0 % of DIIS)
  Orb update                ....       0.000 sec  (  0.0 % of DIIS)
  Wake-sleep                ....       0.010 sec  (  4.5 % of DIIS)
SOSCF solution              ....       0.092 sec  (  0.3%)
  MO trafo                  ....       0.046 sec  ( 50.1 % of SOSCF)
  Orb grad                  ....       0.001 sec  (  1.6 % of SOSCF)
  Rot update                ....       0.023 sec  ( 25.2 % of SOSCF)
  Step                      ....       0.021 sec  ( 23.1 % of SOSCF)
Grid generation             ....       0.087 sec  (  0.3%)
Finished LeanSCF after  30.3 sec

Maximum memory used throughout the entire LEANSCF-calculation: 18.6 MB
------------------   -----------------
gCP correction             0.008490920
------------------   -----------------

-------------------------   --------------------
FINAL SINGLE POINT ENERGY      -194.346497081238
-------------------------   --------------------


------------------------------------------------------------------------------
                              ORCA PROPERTY CALCULATIONS
------------------------------------------------------------------------------

GBWName                                 ... sp_gas.gbw
Number of atoms                         ...     12
Number of basis functions               ...    172
Max core memory                         ...   1024 MB

Electric properties:
Dipole moment                           ... YES
Quadrupole moment                       ...  NO
Static polarizability (Dipole/Dipole)   ...  NO
Static polarizability (Dipole/Quad.)    ...  NO
Static polarizability (Quad./Quad.)     ...  NO
Static polarizability (Velocity)        ...  NO

Atomic electric properties:
Dipole moment                           ...  NO
Quadrupole moment                       ...  NO
Static polarizability                   ...  NO

Choice of electric origin               ... Center of mass
Position of electric origin             ...    -0.008189    -0.017847     0.010036

General magnetic properties:
Magnetizability                         ...  NO

EPR properties:
g-Tensor (aka g-matrix)                 ...  NO
Zero-Field splitting spin-orbit         ...  NO
Zero-field splitting spin-spin          ...  NO
Hyperfine couplings                     ...  NO (   0 nuclei)
Quadrupole couplings                    ...  NO (   0 nuclei)
Contact density                         ...  NO (   0 nuclei)

NMR properties:
Chemical shifts                         ...  NO (   0 nuclei)
Spin-rotation constants                 ...  NO (   0 nuclei)
Spin-spin couplings                     ...  NO (   0 nuclei,    0 pairs)

Choice of magnetic origin               ... GIAO
Position of magnetic origin             ...     0.000000     0.000000     0.000000

Properties with geometric perturbations:
SCF Hessian                             ...  NO
IR spectrum                             ...  NO
VCD spectrum                            ...  NO
X-ray spectroscopy properties:
SCF XES/XAS/RIXS spectra                ...  NO


-------------
DIPOLE MOMENT
-------------

Method             : SCF
Type of density    : Electron Density
Multiplicity       :   1
Irrep              :   0
Energy             :  -194.3549880016383327 Eh
Relativity type    : 
Basis              : AO
                                X                 Y                 Z
Electronic contribution:     -1.550666787      -2.207767689       1.056326942
Nuclear contribution   :      1.770115059       2.573740384      -1.413927331
                        -----------------------------------------
Total Dipole Moment    :      0.219448272       0.365972695      -0.357600389
                        -----------------------------------------
Magnitude (a.u.)       :      0.556750928
Magnitude (Debye)      :      1.415148395



--------------------
Rotational spectrum 
--------------------
 
Rotational constants in cm-1:             0.513697             0.174705             0.149849 
Rotational constants in MHz :         15400.261361          5237.537638          4492.365372 

Dipole components along the rotational axes: 
x,y,z [a.u.] :     0.220470    -0.371049    -0.351692 
x,y,z [Debye]:     0.560391    -0.943131    -0.893930 

 

Dipole moment calculation done in   0.0 sec 

Maximum memory used throughout the entire PROP-calculation: 10.7 MB

--------------------------------
SUGGESTED CITATIONS FOR THIS RUN
--------------------------------

Below you find a list of papers that are relevant to this ORCA run
We neither can nor want to force you to cite these papers, but we appreciate if you do
You receive ORCA, which is the product of decades of hard work by many enthusiastic individuals, for free
The only thing we kindly ask in return is that you cite our papers,
We deeply appreciate it, if you show your appreciation for ORCA by not just citing the generic ORCA reference.

Please note that relegating all ORCA citations to the supporting information does *not* help us.
SI sections are not indexed - citations you put there will not count into any citation statistics
But we need these citations in order to attract the funding resources that allow us to do what we are doing

Therefore, if you are a happy ORCA user, please consider citing a few of the papers listed below in the main body of your paper

In addition to the list printed below, the program has created the file sp_gas.bibtex that contains the list in bibtex format
You can import this file easily into all common literature databanks and citation aid programs


List of essential papers. We consider these as the minimum necessary citations

  1. Neese,F.
     Software update: the ORCA program system, version 5.0
     WIRES Comput. Molec. Sci., 2022 12(1)e1606
     doi.org/10.1002/wcms.1606

List of papers to cite with high priority. The work reported in these papers was absolutely
necessary for this run to complete.
Our perspective: the developers of density functionals and basis sets usually get cited in chemistry papers
Good! But without the algorithms to do something with them, the functionals or basis sets would not do anything.
Hence, in our opinion, the algorithm design and method developments papers are equally worthy of getting cited

  1. Neese,F.
     An improvement of the resolution of the identity approximation for the formation of the Coulomb matrix
     J. Comp. Chem., 2003 24(14)1740-1747
     doi.org/10.1002/jcc.10318
  2. Neese,F.; Wennmohs,F.; Hansen,A.; Becker,U.
     Efficient, approximate and parallel Hartree-Fock and hybrid DFT calculations. A 'chain-of-spheres' algorithm for the Hartree-Fock exchange
     Chem. Phys., 2009 356(1-3)98-109
     doi.org/10.1016/j.chemphys.2008.10.036
  3. Helmich-Paris,B.; de Souza,B.; Neese,F.; Izsák,R.
     An improved chain of spheres for exchange algorithm
     J. Chem. Phys., 2021 155 104109
     doi.org/doi: 10.1063/5.0058766.
  4. Neese,F.
     The SHARK Integral Generation and Digestion System
     J. Comp. Chem., 2022  1-16
     doi.org/10.1002/jcc.26942

List of suggested additional citations. These are papers that are important in the 'surrounding' of 
of this run, or papers that preceded the highly important papers. If you like your results we are grateful for a citation.

  1. Izsak,R.; Neese,F.
     An overlap fitted chain of spheres exchange method
     J. Chem. Phys., 2011 135 144105
     doi.org/10.1063/1.3646921
  2. Izsak,R.; Hansen,A.; Neese,F.
     The resolution of identity and chain of spheres approximations for the LPNO-CCSD singles Fock term
     Molec. Phys., 2012 110 2413-2417
     doi.org/10.1080/00268976.2012.687466
  3. Neese,F.
     The ORCA program system
     WIRES Comput. Molec. Sci., 2012 2(1)73-78
     doi.org/10.1002/wcms.81
  4. Izsak,R.; Neese,F.; Klopper,W.
     Robust fitting techniques in the chain of spheres approximation to the Fock exchange: The role of the complementary space
     J. Chem. Phys., 2013 139 
     doi.org/10.1063/1.4819264
  5. Neese,F.
     Software update: the ORCA program system, version 4.0
     WIRES Comput. Molec. Sci., 2018 8(1)1-6
     doi.org/10.1002/wcms.1327
  6. Neese,F.; Wennmohs,F.; Becker,U.; Riplinger,C.
     The ORCA quantum chemistry program package
     J. Chem. Phys., 2020 152 Art. No. L224108
     doi.org/10.1063/5.0004608

List of optional additional citations

  1. Neese,F.
     Approximate second-order SCF convergence for spin unrestricted wavefunctions
     Chem. Phys. Lett., 2000 325(1-3)93-98
     doi.org/10.1016/s0009-2614(00)00662-x

Timings for individual modules:

Sum of individual times          ...       31.581 sec (=   0.526 min)
Startup calculation              ...        0.913 sec (=   0.015 min)   2.9 %
SCF iterations                   ...       30.583 sec (=   0.510 min)  96.8 %
Property calculations            ...        0.085 sec (=   0.001 min)   0.3 %
                             ****ORCA TERMINATED NORMALLY****
TOTAL RUN TIME: 0 days 0 hours 0 minutes 32 seconds 273 msec
