
                                 *****************
                                 * O   R   C   A *
                                 *****************

                                            #,                                       
                                            ###                                      
                                            ####                                     
                                            #####                                    
                                            ######                                   
                                           ########,                                 
                                     ,,################,,,,,                         
                               ,,#################################,,                 
                          ,,##########################################,,             
                       ,#########################################, ''#####,          
                    ,#############################################,,   '####,        
                  ,##################################################,,,,####,       
                ,###########''''           ''''###############################       
              ,#####''   ,,,,##########,,,,          '''####'''          '####       
            ,##' ,,,,###########################,,,                        '##       
           ' ,,###''''                  '''############,,,                           
         ,,##''                                '''############,,,,        ,,,,,,###''
      ,#''                                            '''#######################'''  
     '                                                          ''''####''''         
             ,#######,   #######,   ,#######,      ##                                
            ,#'     '#,  ##    ##  ,#'     '#,    #''#        ,####,   ,####,        
            ##       ##  ##   ,#'  ##            #'  '#       #'       #'  '#        
            ##       ##  #######   ##           ,######,      #####,   #    #        
            '#,     ,#'  ##    ##  '#,     ,#' ,#      #,     #,   #   #,  ,#        
             '#######'   ##     ##  '#######'  #'      '#     '####' # '####'        



                #########################################################
                #                        -***-                          #
                #          Department of theory and spectroscopy        #
                #                                                       #
                #                      Frank Neese                      #
                #                                                       #
                #     Directorship, Architecture, Infrastructure        #
                #                    SHARK, DRIVERS                     #
                #        Core code/Algorithms in most modules           #
                #                                                       #
                #        Max Planck Institute fuer Kohlenforschung      #
                #                Kaiser Wilhelm Platz 1                 #
                #                 D-45470 Muelheim/Ruhr                 #
                #                      Germany                          #
                #                                                       #
                #                  All rights reserved                  #
                #                        -***-                          #
                #########################################################


                         Program Version 6.0.0  -   RELEASE  -


 With contributions from (in alphabetic order):
   Daniel Aravena         : Magnetic Suceptibility
   Michael Atanasov       : Ab Initio Ligand Field Theory (pilot matlab implementation)
   Alexander A. Auer      : GIAO ZORA, VPT2 properties, NMR spectrum
   Ute Becker             : All parallelization in ORCA, NUMFREQ, NUMCALC
   Giovanni Bistoni       : ED, misc. LED, open-shell LED, HFLD
   Martin Brehm           : Molecular dynamics
   Dmytro Bykov           : pre 5.0 version of the SCF Hessian
   Marcos Casanova-Páez   : Triplet and SCS-CIS(D). UHF-(DLPNO)-IP/EA/STEOM-CCSD. UHF-CVS-IP/STEOM-CCSD
   Vijay G. Chilkuri      : MRCI spin determinant printing, contributions to CSF-ICE
   Pauline Colinet        : FMM embedding
   Dipayan Datta          : RHF DLPNO-CCSD density
   Achintya Kumar Dutta   : EOM-CC, STEOM-CC
   Nicolas Foglia         : Exact transition moments, OPA infrastructure, MCD improvements
   Dmitry Ganyushin       : Spin-Orbit,Spin-Spin,Magnetic field MRCI
   Miquel Garcia          : C-PCM and meta-GGA Hessian, CCSD/C-PCM, Gaussian charge scheme
   Tiago L. C. Gouveia    : GS-ROHF, GS-ROCIS
   Yang Guo               : DLPNO-NEVPT2, F12-NEVPT2, CIM, IAO-localization
   Andreas Hansen         : Spin unrestricted coupled pair/coupled cluster methods
   Ingolf Harden          : AUTO-CI MPn and infrastructure 
   Benjamin Helmich-Paris : MC-RPA, TRAH-(SCF,CASSCF), AVAS, COSX integrals, SCF dyn. polar.
   Lee Huntington         : MR-EOM, pCC
   Robert Izsak           : Overlap fitted RIJCOSX, COSX-SCS-MP3, EOM
   Riya Kayal             : Wick's Theorem for AUTO-CI, AUTO-CI UHF-CCSDT
   Emily Kempfer          : AUTO-CI, RHF CISDT and CCSDT
   Christian Kollmar      : KDIIS, OOCD, Brueckner-CCSD(T), CCSD density, CASPT2, CASPT2-K, improved NEVPT2
   Axel Koslowski         : Symmetry handling
   Simone Kossmann        : Meta GGA functionals, TD-DFT gradient, OOMP2, (MP2 Hessian; deprecated post 5.0)
   Lucas Lang             : DCDCAS
   Marvin Lechner         : AUTO-CI (C++ implementation), FIC-MRCC
   Spencer Leger          : CASSCF response
   Dagmar Lenk            : GEPOL surface, SMD, ORCA-2-JSON
   Dimitrios Liakos       : Extrapolation schemes; Compound Job, initial MDCI parallelization
   Dimitrios Manganas     : Further ROCIS development; embedding schemes. LFT, Crystal Embedding
   Dimitrios Pantazis     : SARC Basis sets
   Anastasios Papadopoulos: AUTO-CI, single reference methods and gradients
   Taras Petrenko         : pre 6.0 DFT Hessian and TD-DFT gradient, (ASA, deprecated), ECA, 1-Electron XAS/XES, NRVS
   Peter Pinski           : DLPNO-MP2, DLPNO-MP2 Gradient
   Christoph Reimann      : Effective Core Potentials
   Marius Retegan         : Local ZFS, SOC
   Christoph Riplinger    : Optimizer, TS searches, QM/MM, DLPNO-CCSD(T), (RO)-DLPNO pert. Triples
   Michael Roemelt        : Original ROCIS implementation
   Masaaki Saitow         : Open-shell DLPNO-CCSD energy and density
   Barbara Sandhoefer     : DKH picture change effects
   Kantharuban Sivalingam : CASSCF convergence/infrastructure, NEVPT2 and variants, FIC-MRCI
   Bernardo de Souza      : ESD, SOC TD-DFT
   Georgi Stoychev        : AutoAux, RI-MP2 NMR, DLPNO-MP2 response, X2C
   Van Anh Tran           : RI-MP2 g-tensors
   Willem Van den Heuvel  : Paramagnetic NMR
   Zikuan Wang            : NOTCH, Electric field optimization 
   Frank Wennmohs         : Technical directorship and infrastructure
   Hang Xu                : AUTO-CI-Response properties 


 We gratefully acknowledge several colleagues who have allowed us to
 interface, adapt or use parts of their codes:
   Stefan Grimme, W. Hujo, H. Kruse, P. Pracht,  : VdW corrections, initial TS optimization,
                  C. Bannwarth, S. Ehlert,         DFT functionals, gCP, sTDA/sTD-DF
                  L. Wittmann, M. Mueller
   Ed Valeev, F. Pavosevic, A. Kumar             : LibInt (2-el integral package), F12 methods
   Garnet Chan, S. Sharma, J. Yang, R. Olivares  : DMRG
   Ulf Ekstrom                                   : XCFun DFT Library
   Mihaly Kallay                                 : mrcc  (arbitrary order and MRCC methods)
   Frank Weinhold                                : gennbo (NPA and NBO analysis)
   Simon Mueller                                 : openCOSMO-RS
   Christopher J. Cramer and Donald G. Truhlar   : smd solvation model
   Lars Goerigk                                  : TD-DFT with DH, B97 family of functionals
   V. Asgeirsson, H. Jonsson                     : NEB implementation
   FAccTs GmbH                                   : IRC, NEB, NEB-TS, DLPNO-Multilevel, CI-OPT
                                                   MM, QMMM, 2- and 3-layer-ONIOM, Crystal-QMMM,
                                                   LR-CPCM, SF, NACMEs, symmetry and pop. for TD-DFT,
                                                   nearIR, NL-DFT gradient (VV10), updates on ESD,
                                                   ML-optimized integration grids, MBIS, APM,
                                                   GOAT, DOCKER, SOLVATOR, interface openCOSMO-RS
   S Lehtola, MJT Oliveira, MAL Marques          : LibXC Library
   Liviu Ungur et al                             : ANISO software


 Your calculation uses the libint2 library for the computation of 2-el integrals
 For citations please refer to: http://libint.valeyev.net

 Your ORCA version has been built with support for libXC version: 6.2.2
 For citations please refer to: https://libxc.gitlab.io

 This ORCA versions uses:
   CBLAS   interface :  Fast vector & matrix operations
   LAPACKE interface :  Fast linear algebra routines
   SCALAPACK package :  Parallel linear algebra routines
   Shared memory     :  Shared parallel matrices
   BLAS/LAPACK       :  OpenBLAS 0.3.27  USE64BITINT DYNAMIC_ARCH NO_AFFINITY SkylakeX SINGLE_THREADED
        Core in use  :  SkylakeX
   Copyright (c) 2011-2014, The OpenBLAS Project


Your calculation utilizes the geometrical counterpoise correction gCP
Please cite in your paper:
H.Kruse, S. Grimme J.Chem.Phys., 136, (2012), 154101 
   

Your calculation utilizes the DFT-NL dispersion correction.
Cite in your paper:
Vydrov, O. A.; Van Voorhis, T. J. Chem. Phys. 2010, 133, 244103
Hujo, W.; Grimme, S. J. Chem. Theory Comput. 2011, 7, 3866 
   

================================================================================

----- Orbital basis set information -----
Your calculation utilizes the basis: def2-TZVP
   F. Weigend and R. Ahlrichs, Phys. Chem. Chem. Phys. 7, 3297 (2005).

----- AuxJ basis set information -----
Your calculation utilizes the auxiliary basis: def2/J
   F. Weigend, Phys. Chem. Chem. Phys. 8, 1057 (2006).

================================================================================
                                        WARNINGS
                       Please study these warnings very carefully!
================================================================================


================================================================================
                                       INPUT FILE
================================================================================
NAME = sp_gas.inp
|  1> ! wb97x-v def2-tzvp def2/J RIJCOSX DEFGRID2 scfconv7 GCP(DFT/TZ) printgap
|  2> %output
|  3>     printlevel normal
|  4> end
|  5> * xyz 0 1
|  6> C -2.545314823713946 -1.0233653602390318 -0.0012149305249107305
|  7> C -1.2405764474686929 -0.277765922487017 0.0018722258275033596
|  8> C -1.2049739627044047 1.1191625766820237 0.0013895622939032075
|  9> C 0.016616304148651482 1.79198064782179 -0.000247697182149396
| 10> C 1.2165698076300502 1.0919072378287642 -0.001100964894008621
| 11> C 1.1799882871408194 -0.3029613112851185 -0.000190817623941479
| 12> C -0.033735660787705346 -0.985147581242034 0.0014546824848621941
| 13> O 2.389453519624057 -0.9661389776288531 -0.00035232986071920524
| 14> H -2.6467946309852874 -1.6314133573554754 -0.9068728455967016
| 15> H -2.6098822529082897 -1.7064248854333643 0.8523746840961142
| 16> H -3.392530461880006 -0.3350112692719335 0.04421068463628776
| 17> H -2.1347031694934913 1.6798550190511787 0.002576868129052424
| 18> H 0.03462465845551977 2.8776584532684373 -0.00030733592060028963
| 19> H 2.1718364975945192 1.6063578922056994 -0.0017888454483059107
| 20> H -0.03782977317010446 -2.0730209715739747 0.002422698198841285
| 21> H 2.2239149544265624 -1.9192846816571196 0.0003023694394771447
| 22> *
| 23> 
| 24>                          ****END OF INPUT****
================================================================================

                       ****************************
                       * Single Point Calculation *
                       ****************************

---------------------------------
CARTESIAN COORDINATES (ANGSTROEM)
---------------------------------
  C     -2.545315   -1.023365   -0.001215
  C     -1.240576   -0.277766    0.001872
  C     -1.204974    1.119163    0.001390
  C      0.016616    1.791981   -0.000248
  C      1.216570    1.091907   -0.001101
  C      1.179988   -0.302961   -0.000191
  C     -0.033736   -0.985148    0.001455
  O      2.389454   -0.966139   -0.000352
  H     -2.646795   -1.631413   -0.906873
  H     -2.609882   -1.706425    0.852375
  H     -3.392530   -0.335011    0.044211
  H     -2.134703    1.679855    0.002577
  H      0.034625    2.877658   -0.000307
  H      2.171836    1.606358   -0.001789
  H     -0.037830   -2.073021    0.002423
  H      2.223915   -1.919285    0.000302

----------------------------
CARTESIAN COORDINATES (A.U.)
----------------------------
  NO LB      ZA    FRAG     MASS         X           Y           Z
   0 C     6.0000    0    12.011   -4.809948   -1.933880   -0.002296
   1 C     6.0000    0    12.011   -2.344350   -0.524902    0.003538
   2 C     6.0000    0    12.011   -2.277071    2.114911    0.002626
   3 C     6.0000    0    12.011    0.031400    3.386353   -0.000468
   4 C     6.0000    0    12.011    2.298984    2.063406   -0.002081
   5 C     6.0000    0    12.011    2.229855   -0.572514   -0.000361
   6 C     6.0000    0    12.011   -0.063751   -1.861659    0.002749
   7 O     8.0000    0    15.999    4.515413   -1.825738   -0.000666
   8 H     1.0000    0     1.008   -5.001717   -3.082924   -1.713741
   9 H     1.0000    0     1.008   -4.931963   -3.224676    1.610755
  10 H     1.0000    0     1.008   -6.410953   -0.633080    0.083546
  11 H     1.0000    0     1.008   -4.034004    3.174466    0.004870
  12 H     1.0000    0     1.008    0.065431    5.437986   -0.000581
  13 H     1.0000    0     1.008    4.104176    3.035576   -0.003380
  14 H     1.0000    0     1.008   -0.071488   -3.917442    0.004578
  15 H     1.0000    0     1.008    4.202590   -3.626922    0.000571

--------------------------------
INTERNAL COORDINATES (ANGSTROEM)
--------------------------------
 C      0   0   0     0.000000000000     0.00000000     0.00000000
 C      1   0   0     1.502754232254     0.00000000     0.00000000
 C      2   1   0     1.397382195992   121.20584471     0.00000000
 C      3   2   1     1.394621675416   120.30469608   180.21594800
 C      4   3   2     1.389241490153   120.89524438     0.00000000
 C      5   4   3     1.395348453010   118.75769744     0.00000000
 C      6   5   4     1.392302638209   120.84092292     0.00000000
 O      6   5   4     1.379351583828   117.23468032   180.03387083
 H      1   2   3     1.095553183197   110.94642985   117.73040655
 H      1   2   3     1.095150445400   111.04162536   236.61567835
 H      1   2   3     1.092551682355   111.13599339   357.30512443
 H      3   2   1     1.085713508519   119.63296203     0.23294694
 H      4   3   2     1.085827150895   119.79502606   180.01849764
 H      5   4   3     1.084985897569   121.43569132   180.03626572
 H      7   6   5     1.087881524893   119.55428044   180.01711668
 H      8   6   5     0.967414171028   108.88433923   180.00220942

---------------------------
INTERNAL COORDINATES (A.U.)
---------------------------
 C      0   0   0     0.000000000000     0.00000000     0.00000000
 C      1   0   0     2.839793945551     0.00000000     0.00000000
 C      2   1   0     2.640669654843   121.20584471     0.00000000
 C      3   2   1     2.635453026967   120.30469608   180.21594800
 C      4   3   2     2.625285950270   120.89524438     0.00000000
 C      5   4   3     2.636826437579   118.75769744     0.00000000
 C      6   5   4     2.631070681751   120.84092292     0.00000000
 O      6   5   4     2.606596735826   117.23468032   180.03387083
 H      1   2   3     2.070295481388   110.94642985   117.73040655
 H      1   2   3     2.069534417248   111.04162536   236.61567835
 H      1   2   3     2.064623466806   111.13599339   357.30512443
 H      3   2   1     2.051701191001   119.63296203     0.23294694
 H      4   3   2     2.051915943968   119.79502606   180.01849764
 H      5   4   3     2.050326205573   121.43569132   180.03626572
 H      7   6   5     2.055798148200   119.55428044   180.01711668
 H      8   6   5     1.828147841318   108.88433923   180.00220942

---------------------
BASIS SET INFORMATION
---------------------
There are 3 groups of distinct atoms

 Group   1 Type C   : 11s6p2d1f contracted to 5s3p2d1f pattern {62111/411/11/1}
 Group   2 Type O   : 11s6p2d1f contracted to 5s3p2d1f pattern {62111/411/11/1}
 Group   3 Type H   : 5s1p contracted to 3s1p pattern {311/1}

Atom   0C    basis set group =>   1
Atom   1C    basis set group =>   1
Atom   2C    basis set group =>   1
Atom   3C    basis set group =>   1
Atom   4C    basis set group =>   1
Atom   5C    basis set group =>   1
Atom   6C    basis set group =>   1
Atom   7O    basis set group =>   2
Atom   8H    basis set group =>   3
Atom   9H    basis set group =>   3
Atom  10H    basis set group =>   3
Atom  11H    basis set group =>   3
Atom  12H    basis set group =>   3
Atom  13H    basis set group =>   3
Atom  14H    basis set group =>   3
Atom  15H    basis set group =>   3
---------------------------------
AUXILIARY/J BASIS SET INFORMATION
---------------------------------
There are 3 groups of distinct atoms

 Group   1 Type C   : 12s5p4d2f1g contracted to 6s4p3d1f1g pattern {711111/2111/211/2/1}
 Group   2 Type O   : 12s5p4d2f1g contracted to 6s4p3d1f1g pattern {711111/2111/211/2/1}
 Group   3 Type H   : 5s2p1d contracted to 3s1p1d pattern {311/2/1}

Atom   0C    basis set group =>   1
Atom   1C    basis set group =>   1
Atom   2C    basis set group =>   1
Atom   3C    basis set group =>   1
Atom   4C    basis set group =>   1
Atom   5C    basis set group =>   1
Atom   6C    basis set group =>   1
Atom   7O    basis set group =>   2
Atom   8H    basis set group =>   3
Atom   9H    basis set group =>   3
Atom  10H    basis set group =>   3
Atom  11H    basis set group =>   3
Atom  12H    basis set group =>   3
Atom  13H    basis set group =>   3
Atom  14H    basis set group =>   3
Atom  15H    basis set group =>   3

Checking for AutoStart:
The File: sp_gas.gbw exists
Trying to determine its content:
     ... Fine, the file contains calculation information
     ... Fine, the calculation information was read
     ... Fine, the file contains a basis set
     ... Fine, the basis set was read
     ... Fine, the file contains a geometry
     ... Fine, the geometry was read
     ... Fine, the file contains a set of orbitals
     ... Fine, the orbitals can be read
     => possible old guess file was deleted
     => GBW file was renamed to GES file
     => GES file is set as startup file
     => Guess is set to MORead
     ... now leaving AutoStart

------------------------------------------------------------------------------
                             ORCA STARTUP CALCULATIONS
                           -- RI-GTO INTEGRALS CHOSEN --
------------------------------------------------------------------------------
------------------------------------------------------------------------------
                   ___                                                        
                  /   \      - P O W E R E D   B Y -                         
                 /     \                                                     
                 |  |  |   _    _      __       _____    __    __             
                 |  |  |  | |  | |    /  \     |  _  \  |  |  /  |          
                  \  \/   | |  | |   /    \    | | | |  |  | /  /          
                 / \  \   | |__| |  /  /\  \   | |_| |  |  |/  /          
                |  |  |   |  __  | /  /__\  \  |    /   |      \           
                |  |  |   | |  | | |   __   |  |    \   |  |\   \          
                \     /   | |  | | |  |  |  |  | |\  \  |  | \   \       
                 \___/    |_|  |_| |__|  |__|  |_| \__\ |__|  \__/        
                                                                              
                      - O R C A' S   B I G   F R I E N D -                    
                                      &                                       
                       - I N T E G R A L  F E E D E R -                       
                                                                              
 v1 FN, 2020, v2 2021, v3 2022-2024                                           
------------------------------------------------------------------------------


----------------------
SHARK INTEGRAL PACKAGE
----------------------

Number of atoms                             ...     16
Number of basis functions                   ...    296
Number of shells                            ...    120
Maximum angular momentum                    ...      3
Integral batch strategy                     ... SHARK/LIBINT Hybrid
RI-J (if used) integral strategy            ... SPLIT-RIJ (Revised 2003 algorithm where possible)
Printlevel                                  ...      1
Contraction scheme used                     ... SEGMENTED contraction
Prescreening option                         ... SCHWARTZ
   Thresh                                   ... 3.000e-11
   Tcut                                     ... 1.000e-12
   Tpresel                                  ... 1.000e-12 
Coulomb Range Separation                    ... NOT USED
Exchange Range Separation                   ... Long Range
   Mu parameter                             ... 3.000e-01
   Scaling (regular/separated)              ... 1.670e-01 8.330e-01
Multipole approximations                    ... NOT USED
Finite Nucleus Model                        ... NOT USED
CABS basis                                  ... NOT available
Auxiliary Coulomb fitting basis             ... AVAILABLE
   # of basis functions in Aux-J            ...    480
   # of shells in Aux-J                     ...    160
   Maximum angular momentum in Aux-J        ...      4
Auxiliary J/K fitting basis                 ... NOT available
Auxiliary Correlation fitting basis         ... NOT available
Auxiliary 'external' fitting basis          ... NOT available

Checking pre-screening integrals            ... done (  0.0 sec) Dimension = 120
Check shell pair data                       ... done (  0.0 sec)
Shell pair information
Shell pair cut-off parameter TPreSel        ...   1.0e-12
Total number of shell pairs                 ...      7260
Shell pairs after pre-screening             ...      6690
Total number of primitive shell pairs       ...     21936
Primitive shell pairs kept                  ...     15334
          la=0 lb=0:   1829 shell pairs
          la=1 lb=0:   1896 shell pairs
          la=1 lb=1:    502 shell pairs
          la=2 lb=0:    963 shell pairs
          la=2 lb=1:    490 shell pairs
          la=2 lb=2:    130 shell pairs
          la=3 lb=0:    472 shell pairs
          la=3 lb=1:    248 shell pairs
          la=3 lb=2:    125 shell pairs
          la=3 lb=3:     35 shell pairs

Calculating one electron integrals          ... done (  0.0 sec)
Calculating RI/J V-Matrix + Cholesky decomp.... done (  0.1 sec)
Calculating Nuclear repulsion               ... done (  0.0 sec) ENN=    343.368248980317 Eh

Diagonalization of the overlap matrix:
Smallest eigenvalue                        ... 9.013e-06
Time for diagonalization                   ...    0.009 sec
Threshold for overlap eigenvalues          ... 1.000e-07
Number of eigenvalues below threshold      ... 0
Time for construction of square roots      ...    0.018 sec
Total time needed                          ...    0.036 sec

-------------------
DFT GRID GENERATION
-------------------

General Integration Accuracy     IntAcc      ... 4.388
Radial Grid Type                 RadialGrid  ... OptM3 with GC (2021)
Angular Grid (max. ang.)         AngularGrid ... 4 (Lebedev-302)
Angular grid pruning method      GridPruning ... 4 (adaptive)
Weight generation scheme         WeightScheme... mBecke (2022)
Basis function cutoff            BFCut       ... 1.0000e-11
Integration weight cutoff        WCut        ... 1.0000e-14
Partially contracted basis set               ... off
Rotationally invariant grid construction     ... off
Angular grids for H and He will be reduced by one unit

Total number of grid points                  ...    73866
Total number of batches                      ...     1163
Average number of points per batch           ...       63
Average number of grid points per atom       ...     4617

--------------------
COSX GRID GENERATION
--------------------

GRIDX 1
-------
General Integration Accuracy     IntAcc      ... 3.816
Radial Grid Type                 RadialGrid  ... OptM3 with GC (2021)
Angular Grid (max. ang.)         AngularGrid ... 1 (Lebedev-50)
Angular grid pruning method      GridPruning ... 4 (adaptive)
Weight generation scheme         WeightScheme... mBecke (2022)
Basis function cutoff            BFCut       ... 1.0000e-11
Integration weight cutoff        WCut        ... 1.0000e-14
Partially contracted basis set               ... on
Rotationally invariant grid construction     ... off
Angular grids for H and He will be reduced by one unit

Total number of grid points                  ...     9460
Total number of batches                      ...       81
Average number of points per batch           ...      116
Average number of grid points per atom       ...      591
UseSFitting                                  ... on

GRIDX 2
-------
General Integration Accuracy     IntAcc      ... 4.020
Radial Grid Type                 RadialGrid  ... OptM3 with GC (2021)
Angular Grid (max. ang.)         AngularGrid ... 2 (Lebedev-110)
Angular grid pruning method      GridPruning ... 4 (adaptive)
Weight generation scheme         WeightScheme... mBecke (2022)
Basis function cutoff            BFCut       ... 1.0000e-11
Integration weight cutoff        WCut        ... 1.0000e-14
Partially contracted basis set               ... on
Rotationally invariant grid construction     ... off
Angular grids for H and He will be reduced by one unit

Total number of grid points                  ...    20478
Total number of batches                      ...      168
Average number of points per batch           ...      121
Average number of grid points per atom       ...     1280
UseSFitting                                  ... on

GRIDX 3
-------
General Integration Accuracy     IntAcc      ... 4.338
Radial Grid Type                 RadialGrid  ... OptM3 with GC (2021)
Angular Grid (max. ang.)         AngularGrid ... 3 (Lebedev-194)
Angular grid pruning method      GridPruning ... 4 (adaptive)
Weight generation scheme         WeightScheme... mBecke (2022)
Basis function cutoff            BFCut       ... 1.0000e-11
Integration weight cutoff        WCut        ... 1.0000e-14
Partially contracted basis set               ... on
Rotationally invariant grid construction     ... off
Angular grids for H and He will be reduced by one unit

Total number of grid points                  ...    45032
Total number of batches                      ...      359
Average number of points per batch           ...      125
Average number of grid points per atom       ...     2814
UseSFitting                                  ... on
Initializing property integral containers    ... done (  0.0 sec)

SHARK setup successfully completed in   2.1 seconds

Maximum memory used throughout the entire STARTUP-calculation: 43.4 MB
-------------------------------------------------------------------------------
                                 ORCA GUESS
                   Start orbitals & Density for SCF / CASSCF
-------------------------------------------------------------------------------

------------
SCF SETTINGS
------------
Hamiltonian:
 Density Functional     Method          .... DFT(GTOs)
 Exchange Functional    Exchange        .... WB97X-V
 Correlation Functional Correlation     .... WB97X-V
 Gradients option       PostSCFGGA      .... off
 Hybrid DFT is turned on
   Fraction HF Exchange ScalHFX         ....  0.167000
   Scaling of DF-GGA-X  ScalDFX         ....  0.000000
   Scaling of DF-GGA-C  ScalDFC         ....  1.000000
   Scaling of DF-LDA-C  ScalLDAC        ....  1.000000
   Perturbative correction              ....  0.000000
 Long-range corrected/Screened/Range-Separated Hybrid DFT is turned on
   Amount of maximum screened exact exchange              ....  0.833000
   Range separation parameter mu (erf(mu*r12)/r12)        ....  0.300000
   NL short-range parameter             ....  6.000000
   NL long-range parameter              ....  0.010000
 RI-approximation to the Coulomb term is turned on
   Number of AuxJ basis functions       .... 480
   RIJ-COSX (HFX calculated with COS-X)).... on


General Settings:
 Integral files         IntName         .... sp_gas
 Hartree-Fock type      HFTyp           .... RHF
 Total Charge           Charge          ....    0
 Multiplicity           Mult            ....    1
 Number of Electrons    NEL             ....   58
 Basis Dimension        Dim             ....  296
 Nuclear Repulsion      ENuc            ....    343.3682489803 Eh

Convergence Acceleration:
 AO-DIIS                CNVDIIS         .... on
   Start iteration      DIISMaxIt       ....    12
   Startup error        DIISStart       ....  0.200000
   # of expansion vecs  DIISMaxEq       ....     5
   Bias factor          DIISBfac        ....   1.050
   Max. coefficient     DIISMaxC        ....  10.000
 MO-DIIS                CNVKDIIS        .... off
 Trust-Rad. Augm. Hess. CNVTRAH         .... auto
   Auto Start mean grad. ratio tolernc. ....  1.125000
   Auto Start start iteration           ....     1
   Auto Start num. interpolation iter.  ....    10
   Max. Number of Micro iterations      ....    24
   Max. Number of Macro iterations      .... Maxiter - #DIIS iter
   Number of Davidson start vectors     ....     2
   Converg. threshold    (grad. norm)   ....   1.000e-04
   Grad. Scal. Fac. for Micro threshold ....   0.100
   Minimum threshold for Micro iter.    ....   1.000e-02
   NR start threshold (gradient norm)   ....   1.000e-04
   Initial trust radius                 ....   0.400
   Minimum AH scaling param. (alpha)    ....   1.000
   Maximum AH scaling param. (alpha)    .... 1000.000
   Quad. conv. algorithm                .... NR
   White noise on init. David. guess    .... on
   Maximum white noise                  ....   0.010
   Pseudo random numbers                .... off
   Inactive MOs                         .... canonical
   Orbital update algorithm             .... Taylor
   Preconditioner                       .... Diag
   Full preconditioner red. dimension   ....   250
 SOSCF                  CNVSOSCF        .... on
   Start iteration      SOSCFMaxIt      ....   150
   Startup grad/error   SOSCFStart      ....  0.003300
   Hessian update       SOSCFHessUp     .... L-BFGS
 Level Shifting         CNVShift        .... on
   Level shift para.    LevelShift      ....    0.2500
   Turn off err/grad.   ShiftErr        ....    0.0010
 Zerner damping         CNVZerner       .... off
 Static damping         CNVDamp         .... on
   Fraction old density DampFac         ....    0.7000
   Max. Damping (<1)    DampMax         ....    0.9800
   Min. Damping (>=0)   DampMin         ....    0.0000
   Turn off err/grad.   DampErr         ....    0.1000

SCF Procedure:
 Maximum # iterations   MaxIter         ....   125
 SCF integral mode      SCFMode         .... Direct
   Integral package                     .... SHARK and LIBINT hybrid scheme
 Reset frequency        DirectResetFreq ....    20
 Integral Threshold     Thresh          ....  3.000e-11 Eh
 Primitive CutOff       TCut            ....  1.000e-12 Eh

Convergence Tolerance:
 Convergence Check Mode ConvCheckMode   .... Total+1el-Energy
 Convergence forced     ConvForced      .... 0
 Energy Change          TolE            ....  1.000e-07 Eh
 1-El. energy change                    ....  1.000e-04 Eh
 Orbital Gradient       TolG            ....  1.000e-04
 Orbital Rotation angle TolX            ....  1.000e-04
 DIIS Error             TolErr          ....  1.000e-07

---------------------
INITIAL GUESS: MOREAD
---------------------
Guess MOs are being read from file: sp_gas.ges
Input Geometry matches current geometry (good)
Atom 0: N(Shells)= 11 and 9 - projection required
Input basis set needs projection
NBasis(read)= 197
NBasis(calc)= 296
Basis set overlap was calculated
Using GuessMode=FMatrix for the initial guess
C*T matrix was formed
Effective Fockian was calculated
Effective Fockian was diagonalized
Initial density was built
                      ------------------
                      INITIAL GUESS DONE (   0.1 sec)
                      ------------------
             **** ENERGY FILE WAS UPDATED (sp_gas.en.tmp) ****
Finished Guess after   0.3 sec
Maximum memory used throughout the entire GUESS-calculation: 26.5 MB

-------------------------------------------------------------------------------------------
                                      ORCA LEAN-SCF
                              memory conserving SCF solver
-------------------------------------------------------------------------------------------

----------------------------------------D-I-I-S--------------------------------------------
Iteration    Energy (Eh)           Delta-E    RMSDP     MaxDP     DIISErr   Damp  Time(sec)
-------------------------------------------------------------------------------------------
               ***  Starting incremental Fock matrix formation  ***
    1    -347.0132486551306101     0.00e+00  1.69e-03  6.25e-02  6.93e-02  0.700  16.4
    2    -347.0191475289499294    -5.90e-03  1.40e-03  4.81e-02  5.02e-02  0.700   8.8
                               ***Turning on AO-DIIS***
    3    -347.0234975209425556    -4.35e-03  1.10e-03  3.58e-02  3.58e-02  0.700   8.6
    4    -347.0266429856756076    -3.15e-03  2.69e-03  8.85e-02  2.52e-02  0.000   8.6
                              *** Initializing SOSCF ***
---------------------------------------S-O-S-C-F--------------------------------------
Iteration    Energy (Eh)           Delta-E    RMSDP     MaxDP     MaxGrad    Time(sec)
--------------------------------------------------------------------------------------
    5    -347.0345785626710722    -7.94e-03  9.36e-05  4.56e-03  1.65e-03     8.9
               *** Restarting incremental Fock matrix formation ***
    6    -347.0346001078012250    -2.15e-05  4.38e-05  1.67e-03  4.92e-04    17.4
    7    -347.0346064052516795    -6.30e-06  2.71e-05  9.26e-04  2.33e-04    13.1
    8    -347.0346076680295937    -1.26e-06  8.86e-06  3.57e-04  1.16e-04    12.7
    9    -347.0346079241754751    -2.56e-07  3.43e-06  1.29e-04  2.88e-05    11.7
   10    -347.0346079500682208    -2.59e-08  1.23e-06  3.57e-05  1.75e-05    10.6
                 **** Energy Check signals convergence ****

               *****************************************************
               *                     SUCCESS                       *
               *           SCF CONVERGED AFTER  10 CYCLES          *
               *****************************************************


------------------
NL GRID GENERATION
------------------

General Integration Accuracy     IntAcc      ... 4.004
Radial Grid Type                 RadialGrid  ... OptM3 with GC (2021)
Angular Grid (max. ang.)         AngularGrid ... 2 (Lebedev-110)
Angular grid pruning method      GridPruning ... 4 (adaptive)
Weight generation scheme         WeightScheme... mBecke (2022)
Basis function cutoff            BFCut       ... 1.0000e-10
Integration weight cutoff        WCut        ... 1.0000e-14
Partially contracted basis set               ... off
Rotationally invariant grid construction     ... off
Angular grids for H and He will be reduced by one unit

Total number of grid points                  ...    23248
Total number of batches                      ...      370
Average number of points per batch           ...       62
Average number of grid points per atom       ...     1453
Final grid set up in    0.2 sec

-------------------------------------------------------------------------------
                    post-SCF DFT-NL dispersion correction                      
-------------------------------------------------------------------------------

SCF Energy:     -347.034607950 
NL    Energy:      0.221584401 
SC+NL Energy:   -346.813023549 
NL done in  :              2.1 sec
-------------------------------------------------------------------------------
Recomputing exchange energy using gridx3       ... done (   28.704 sec)
Old exchange energy                            :    -15.466449596 Eh
New exchange energy                            :    -15.466425606 Eh
Exchange energy change after final integration :      0.000023991 Eh
Total energy after final integration           :   -346.812999558 Eh
             **** ENERGY FILE WAS UPDATED (sp_gas.en.tmp) ****

----------------
TOTAL SCF ENERGY
----------------

Total Energy       :       -346.81299955835010 Eh           -9437.26150 eV

Components:
Nuclear Repulsion  :        343.36824898031693 Eh            9343.52507 eV
Electronic Energy  :       -690.40285693038527 Eh          -18786.81684 eV
One Electron Energy:      -1148.89016164901750 Eh          -31262.89067 eV
Two Electron Energy:        458.48730471863229 Eh           12476.07383 eV

Virial components:
Potential Energy   :       -692.23004018203358 Eh          -18836.53702 eV
Kinetic Energy     :        345.41704062368348 Eh            9399.27553 eV
Virial Ratio       :          2.00404137251638

DFT components:
N(Alpha)           :       29.000003126738 electrons
N(Beta)            :       29.000003126738 electrons
N(Total)           :       58.000006253477 electrons
E(X)               :      -31.888976769209 Eh       
E(C)               :       -2.396176623071 Eh       
NL Energy, E(C,NL) :        0.221584400975 Eh       
E(XC)              :      -34.063568991304 Eh       

---------------
SCF CONVERGENCE
---------------

  Last Energy change         ...    2.5893e-08  Tolerance :   1.0000e-07
  Last MAX-Density change    ...    3.5723e-05  Tolerance :   1.0000e-05
  Last RMS-Density change    ...    1.2310e-06  Tolerance :   1.0000e-06
  Last DIIS Error            ...    1.6516e-03  Tolerance :   1.0000e-07
  Last Orbital Gradient      ...    1.7471e-05  Tolerance :   1.0000e-04
  Last Orbital Rotation      ...    4.8278e-05  Tolerance :   1.0000e-04


----------------
ORBITAL ENERGIES
----------------

  NO   OCC          E(Eh)            E(eV) 
   0   2.0000     -21.701979      -590.5409 
   1   2.0000     -12.113095      -329.6141 
   2   2.0000     -12.064620      -328.2950 
   3   2.0000     -12.053148      -327.9828 
   4   2.0000     -12.047795      -327.8372 
   5   2.0000     -12.046002      -327.7884 
   6   2.0000     -12.043020      -327.7072 
   7   2.0000     -12.040847      -327.6481 
   8   2.0000      -1.714134       -46.6440 
   9   2.0000      -1.385735       -37.7078 
  10   2.0000      -1.298594       -35.3365 
  11   2.0000      -1.275477       -34.7075 
  12   2.0000      -1.199836       -32.6492 
  13   2.0000      -1.152330       -31.3565 
  14   2.0000      -1.096720       -29.8433 
  15   2.0000      -1.057338       -28.7716 
  16   2.0000      -0.996930       -27.1278 
  17   2.0000      -0.947492       -25.7826 
  18   2.0000      -0.945568       -25.7302 
  19   2.0000      -0.942491       -25.6465 
  20   2.0000      -0.893891       -24.3240 
  21   2.0000      -0.873301       -23.7637 
  22   2.0000      -0.840889       -22.8817 
  23   2.0000      -0.834127       -22.6978 
  24   2.0000      -0.820645       -22.3309 
  25   2.0000      -0.806011       -21.9327 
  26   2.0000      -0.759593       -20.6696 
  27   2.0000      -0.639293       -17.3960 
  28   2.0000      -0.631586       -17.1863 
  29   0.0000      -0.242367        -6.5951 
  30   0.0000      -0.240336        -6.5399 
  31   0.0000      -0.145773        -3.9667 
  32   0.0000      -0.071536        -1.9466 
  33   0.0000      -0.069179        -1.8825 
  34   0.0000      -0.025542        -0.6950 
  35   0.0000      -0.006246        -0.1700 
  36   0.0000       0.009489         0.2582 
  37   0.0000       0.015313         0.4167 
  38   0.0000       0.021818         0.5937 
  39   0.0000       0.039514         1.0752 
*Only the first 10 virtual orbitals were printed.

                    ********************************
                    * MULLIKEN POPULATION ANALYSIS *
                    ********************************

-----------------------
MULLIKEN ATOMIC CHARGES
-----------------------
   0 C :   -0.364476
   1 C :    0.154424
   2 C :   -0.234309
   3 C :   -0.064906
   4 C :   -0.237954
   5 C :    0.294757
   6 C :   -0.284903
   7 O :   -0.393449
   8 H :    0.123605
   9 H :    0.122687
  10 H :    0.118044
  11 H :    0.110484
  12 H :    0.117127
  13 H :    0.121640
  14 H :    0.105983
  15 H :    0.311247
Sum of atomic charges:    0.0000000

--------------------------------
MULLIKEN REDUCED ORBITAL CHARGES
--------------------------------
  0 C s       :     3.265658  s :     3.265658
      pz      :     1.057666  p :     3.040027
      px      :     0.935301
      py      :     1.047060
      dz2     :     0.005372  d :     0.055496
      dxz     :     0.010949
      dyz     :     0.014606
      dx2y2   :     0.012425
      dxy     :     0.012145
      f0      :     0.000306  f :     0.003295
      f+1     :     0.000029
      f-1     :     0.000983
      f+2     :     0.000104
      f-2     :     0.000276
      f+3     :     0.000862
      f-3     :     0.000735

  1 C s       :     3.157787  s :     3.157787
      pz      :     0.881012  p :     2.536256
      px      :     0.802993
      py      :     0.852252
      dz2     :     0.004991  d :     0.141311
      dxz     :     0.024086
      dyz     :     0.029071
      dx2y2   :     0.039847
      dxy     :     0.043316
      f0      :     0.001743  f :     0.010221
      f+1     :     0.000772
      f-1     :     0.000666
      f+2     :     0.001062
      f-2     :     0.001179
      f+3     :     0.003440
      f-3     :     0.001360

  2 C s       :     3.195610  s :     3.195610
      pz      :     1.034843  p :     2.942804
      px      :     0.987419
      py      :     0.920542
      dz2     :     0.004361  d :     0.088445
      dxz     :     0.009141
      dyz     :     0.016897
      dx2y2   :     0.026835
      dxy     :     0.031210
      f0      :     0.001589  f :     0.007450
      f+1     :     0.000680
      f-1     :     0.000635
      f+2     :     0.000862
      f-2     :     0.000396
      f+3     :     0.002184
      f-3     :     0.001105

  3 C s       :     3.146561  s :     3.146561
      pz      :     0.938670  p :     2.820718
      px      :     0.924060
      py      :     0.957987
      dz2     :     0.004529  d :     0.090074
      dxz     :     0.027947
      dyz     :     0.005082
      dx2y2   :     0.029920
      dxy     :     0.022596
      f0      :     0.001625  f :     0.007554
      f+1     :     0.000601
      f-1     :     0.000684
      f+2     :     0.000201
      f-2     :     0.001272
      f+3     :     0.002117
      f-3     :     0.001053

  4 C s       :     3.236833  s :     3.236833
      pz      :     1.033113  p :     2.916747
      px      :     0.958973
      py      :     0.924661
      dz2     :     0.004027  d :     0.076840
      dxz     :     0.008924
      dyz     :     0.017575
      dx2y2   :     0.025341
      dxy     :     0.020974
      f0      :     0.001660  f :     0.007534
      f+1     :     0.000730
      f-1     :     0.000701
      f+2     :     0.000843
      f-2     :     0.000456
      f+3     :     0.002091
      f-3     :     0.001053

  5 C s       :     3.015827  s :     3.015827
      pz      :     0.893735  p :     2.502641
      px      :     0.759706
      py      :     0.849200
      dz2     :     0.005389  d :     0.171277
      dxz     :     0.039773
      dyz     :     0.033330
      dx2y2   :     0.056315
      dxy     :     0.036469
      f0      :     0.002555  f :     0.015498
      f+1     :     0.001145
      f-1     :     0.000868
      f+2     :     0.001685
      f-2     :     0.002065
      f+3     :     0.005191
      f-3     :     0.001989

  6 C s       :     3.211795  s :     3.211795
      pz      :     1.082854  p :     2.990885
      px      :     0.914138
      py      :     0.993892
      dz2     :     0.006005  d :     0.074929
      dxz     :     0.020604
      dyz     :     0.003979
      dx2y2   :     0.022214
      dxy     :     0.022128
      f0      :     0.001599  f :     0.007294
      f+1     :     0.000647
      f-1     :     0.000700
      f+2     :     0.000203
      f-2     :     0.001011
      f+3     :     0.002000
      f-3     :     0.001133

  7 O s       :     3.745070  s :     3.745070
      pz      :     1.842346  p :     4.614942
      px      :     1.498171
      py      :     1.274425
      dz2     :     0.004462  d :     0.031752
      dxz     :     0.005263
      dyz     :     0.001278
      dx2y2   :     0.013149
      dxy     :     0.007601
      f0      :     0.000227  f :     0.001685
      f+1     :     0.000250
      f-1     :     0.000427
      f+2     :     0.000042
      f-2     :     0.000085
      f+3     :     0.000238
      f-3     :     0.000415

  8 H s       :     0.855385  s :     0.855385
      pz      :     0.009896  p :     0.021011
      px      :     0.004206
      py      :     0.006909

  9 H s       :     0.856333  s :     0.856333
      pz      :     0.009263  p :     0.020980
      px      :     0.004136
      py      :     0.007581

 10 H s       :     0.860655  s :     0.860655
      pz      :     0.004259  p :     0.021301
      px      :     0.009802
      py      :     0.007240

 11 H s       :     0.867396  s :     0.867396
      pz      :     0.004959  p :     0.022120
      px      :     0.010978
      py      :     0.006183

 12 H s       :     0.860940  s :     0.860940
      pz      :     0.004382  p :     0.021933
      px      :     0.003545
      py      :     0.014006

 13 H s       :     0.856144  s :     0.856144
      pz      :     0.004872  p :     0.022215
      px      :     0.011701
      py      :     0.005642

 14 H s       :     0.871944  s :     0.871944
      pz      :     0.005114  p :     0.022073
      px      :     0.003321
      py      :     0.013639

 15 H s       :     0.642422  s :     0.642422
      pz      :     0.016080  p :     0.046332
      px      :     0.010212
      py      :     0.020040


------------------------
MULLIKEN OVERLAP CHARGES
------------------------
B(  0-C ,  1-C ) :   0.5877 B(  0-C ,  2-C ) :  -0.1226 B(  0-C ,  6-C ) :  -0.1293 
B(  0-C ,  8-H ) :   0.8155 B(  0-C ,  9-H ) :   0.8256 B(  0-C , 10-H ) :   0.8573 
B(  1-C ,  2-C ) :   1.0648 B(  1-C ,  4-C ) :  -0.1185 B(  1-C ,  5-C ) :   0.1262 
B(  1-C ,  6-C ) :   0.4962 B(  1-C ,  8-H ) :  -0.0697 B(  1-C ,  9-H ) :  -0.0785 
B(  1-C , 10-H ) :  -0.1146 B(  1-C , 11-H ) :  -0.0968 B(  2-C ,  3-C ) :   0.9881 
B(  2-C ,  5-C ) :  -0.1274 B(  2-C ,  6-C ) :  -0.0593 B(  2-C , 11-H ) :   0.8404 
B(  2-C , 12-H ) :  -0.1016 B(  3-C ,  4-C ) :   1.0312 B(  3-C ,  6-C ) :  -0.1442 
B(  3-C , 11-H ) :  -0.0833 B(  3-C , 12-H ) :   0.8662 B(  3-C , 13-H ) :  -0.0953 
B(  4-C ,  5-C ) :   1.0200 B(  4-C ,  7-O ) :  -0.0862 B(  4-C , 12-H ) :  -0.1038 
B(  4-C , 13-H ) :   0.8426 B(  5-C ,  6-C ) :   0.6787 B(  5-C ,  7-O ) :   0.7744 
B(  5-C , 13-H ) :  -0.0887 B(  5-C , 14-H ) :  -0.1199 B(  5-C , 15-H ) :  -0.0742 
B(  6-C ,  7-O ) :  -0.2107 B(  6-C , 14-H ) :   0.8259 B(  7-O , 15-H ) :   0.6144 
B(  8-H ,  9-H ) :  -0.0677 


                     *******************************
                     * LOEWDIN POPULATION ANALYSIS *
                     *******************************

----------------------
LOEWDIN ATOMIC CHARGES
----------------------
   0 C :   -0.250225
   1 C :   -0.166309
   2 C :   -0.139351
   3 C :   -0.132022
   4 C :   -0.128198
   5 C :   -0.256838
   6 C :   -0.123972
   7 O :    0.061526
   8 H :    0.127558
   9 H :    0.127060
  10 H :    0.124936
  11 H :    0.141122
  12 H :    0.143029
  13 H :    0.146576
  14 H :    0.141349
  15 H :    0.183758

-------------------------------
LOEWDIN REDUCED ORBITAL CHARGES
-------------------------------
  0 C s       :     2.814193  s :     2.814193
      pz      :     1.069714  p :     3.158279
      px      :     1.032651
      py      :     1.055915
      dz2     :     0.033848  d :     0.253093
      dxz     :     0.032441
      dyz     :     0.065389
      dx2y2   :     0.052471
      dxy     :     0.068944
      f0      :     0.001981  f :     0.024659
      f+1     :     0.002887
      f-1     :     0.003747
      f+2     :     0.004012
      f-2     :     0.001847
      f+3     :     0.005794
      f-3     :     0.004391

  1 C s       :     2.713829  s :     2.713829
      pz      :     0.814057  p :     2.859928
      px      :     1.003009
      py      :     1.042863
      dz2     :     0.031879  d :     0.534169
      dxz     :     0.077087
      dyz     :     0.088293
      dx2y2   :     0.161697
      dxy     :     0.175212
      f0      :     0.004155  f :     0.058383
      f+1     :     0.003957
      f-1     :     0.004115
      f+2     :     0.007356
      f-2     :     0.007399
      f+3     :     0.022640
      f-3     :     0.008760

  2 C s       :     2.755472  s :     2.755472
      pz      :     0.932304  p :     2.965029
      px      :     1.007410
      py      :     1.025315
      dz2     :     0.025635  d :     0.376770
      dxz     :     0.028675
      dyz     :     0.054796
      dx2y2   :     0.115775
      dxy     :     0.151890
      f0      :     0.002963  f :     0.042079
      f+1     :     0.003479
      f-1     :     0.003979
      f+2     :     0.005878
      f-2     :     0.002592
      f+3     :     0.015313
      f-3     :     0.007875

  3 C s       :     2.763030  s :     2.763030
      pz      :     0.865984  p :     2.928798
      px      :     1.073300
      py      :     0.989514
      dz2     :     0.024803  d :     0.396735
      dxz     :     0.094001
      dyz     :     0.011873
      dx2y2   :     0.165948
      dxy     :     0.100110
      f0      :     0.003094  f :     0.043459
      f+1     :     0.004280
      f-1     :     0.003117
      f+2     :     0.001374
      f-2     :     0.008600
      f+3     :     0.015238
      f-3     :     0.007757

  4 C s       :     2.759104  s :     2.759104
      pz      :     0.930125  p :     2.966649
      px      :     1.012447
      py      :     1.024077
      dz2     :     0.025500  d :     0.360203
      dxz     :     0.026395
      dyz     :     0.056138
      dx2y2   :     0.124399
      dxy     :     0.127770
      f0      :     0.003154  f :     0.042242
      f+1     :     0.003492
      f-1     :     0.004213
      f+2     :     0.005765
      f-2     :     0.003056
      f+3     :     0.014408
      f-3     :     0.008153

  5 C s       :     2.720373  s :     2.720373
      pz      :     0.840345  p :     2.762578
      px      :     0.902007
      py      :     1.020226
      dz2     :     0.043872  d :     0.679176
      dxz     :     0.127550
      dyz     :     0.098483
      dx2y2   :     0.208687
      dxy     :     0.200585
      f0      :     0.006830  f :     0.094710
      f+1     :     0.007950
      f-1     :     0.005384
      f+2     :     0.010350
      f-2     :     0.014700
      f+3     :     0.033594
      f-3     :     0.015902

  6 C s       :     2.752553  s :     2.752553
      pz      :     0.957763  p :     2.967280
      px      :     1.032534
      py      :     0.976983
      dz2     :     0.026936  d :     0.362519
      dxz     :     0.070058
      dyz     :     0.010915
      dx2y2   :     0.154037
      dxy     :     0.100572
      f0      :     0.002994  f :     0.041621
      f+1     :     0.004420
      f-1     :     0.003291
      f+2     :     0.001353
      f-2     :     0.007447
      f+3     :     0.014077
      f-3     :     0.008039

  7 O s       :     3.332402  s :     3.332402
      pz      :     1.728924  p :     4.532327
      px      :     1.521156
      py      :     1.282247
      dz2     :     0.008310  d :     0.069132
      dxz     :     0.010189
      dyz     :     0.003311
      dx2y2   :     0.031526
      dxy     :     0.015795
      f0      :     0.000373  f :     0.004614
      f+1     :     0.000415
      f-1     :     0.000704
      f+2     :     0.000164
      f-2     :     0.000376
      f+3     :     0.001411
      f-3     :     0.001172

  8 H s       :     0.812263  s :     0.812263
      pz      :     0.028290  p :     0.060179
      px      :     0.012430
      py      :     0.019460

  9 H s       :     0.812781  s :     0.812781
      pz      :     0.026667  p :     0.060159
      px      :     0.012294
      py      :     0.021198

 10 H s       :     0.815257  s :     0.815257
      pz      :     0.013204  p :     0.059806
      px      :     0.024896
      py      :     0.021706

 11 H s       :     0.800227  s :     0.800227
      pz      :     0.014570  p :     0.058651
      px      :     0.027489
      py      :     0.016592

 12 H s       :     0.799430  s :     0.799430
      pz      :     0.012606  p :     0.057541
      px      :     0.010706
      py      :     0.034228

 13 H s       :     0.794073  s :     0.794073
      pz      :     0.014234  p :     0.059351
      px      :     0.029392
      py      :     0.015725

 14 H s       :     0.799964  s :     0.799964
      pz      :     0.015206  p :     0.058687
      px      :     0.010338
      py      :     0.033143

 15 H s       :     0.665485  s :     0.665485
      pz      :     0.042747  p :     0.150757
      px      :     0.033014
      py      :     0.074997


---------------------------------
LOEWDIN BOND ORDERS (THRESH 0.050000)
---------------------------------
B(  0-C ,  1-C ) :   1.2127 B(  0-C ,  2-C ) :   0.1768 B(  0-C ,  6-C ) :   0.1770 
B(  0-C ,  8-H ) :   0.8938 B(  0-C ,  9-H ) :   0.8942 B(  0-C , 10-H ) :   0.8951 
B(  1-C ,  2-C ) :   1.4952 B(  1-C ,  3-C ) :   0.2385 B(  1-C ,  4-C ) :   0.1001 
B(  1-C ,  5-C ) :   0.2377 B(  1-C ,  6-C ) :   1.4796 B(  1-C ,  8-H ) :   0.0818 
B(  1-C ,  9-H ) :   0.0816 B(  1-C , 10-H ) :   0.0814 B(  1-C , 11-H ) :   0.0934 
B(  1-C , 14-H ) :   0.0911 B(  2-C ,  3-C ) :   1.5698 B(  2-C ,  4-C ) :   0.2387 
B(  2-C ,  5-C ) :   0.1010 B(  2-C ,  6-C ) :   0.2292 B(  2-C , 11-H ) :   0.8258 
B(  2-C , 12-H ) :   0.0952 B(  3-C ,  4-C ) :   1.6009 B(  3-C ,  5-C ) :   0.2480 
B(  3-C ,  6-C ) :   0.1070 B(  3-C , 11-H ) :   0.0947 B(  3-C , 12-H ) :   0.8294 
B(  3-C , 13-H ) :   0.0952 B(  4-C ,  5-C ) :   1.4781 B(  4-C ,  6-C ) :   0.2241 
B(  4-C ,  7-O ) :   0.1484 B(  4-C , 12-H ) :   0.0972 B(  4-C , 13-H ) :   0.8262 
B(  5-C ,  6-C ) :   1.5136 B(  5-C ,  7-O ) :   1.6189 B(  5-C , 13-H ) :   0.0965 
B(  5-C , 14-H ) :   0.0970 B(  5-C , 15-H ) :   0.1026 B(  6-C ,  7-O ) :   0.1479 
B(  6-C , 14-H ) :   0.8189 B(  7-O , 15-H ) :   0.9982 

------------------------------------------
LOEWDIN REDUCED ORBITAL POPULATIONS PER MO
-------------------------------------------
THRESHOLD FOR PRINTING IS 0.1%%
                      0         1         2         3         4         5   
                 -21.70198 -12.11309 -12.06462 -12.05315 -12.04779 -12.04600
                   2.00000   2.00000   2.00000   2.00000   2.00000   2.00000
                  --------  --------  --------  --------  --------  --------
 0 C  s               0.0       0.0       0.1       0.0       1.5      97.6
 1 C  s               0.0       0.0      98.2       0.0       0.3       0.2
 1 C  dxy             0.0       0.0       0.0       0.0       0.2       0.1
 2 C  s               0.0       0.0       0.2       0.7       0.1       0.2
 2 C  dx2y2           0.0       0.0       0.2       0.1       0.0       0.0
 2 C  dxy             0.0       0.0       0.0       0.1       0.0       0.0
 3 C  s               0.0       0.0       0.0      97.2       0.1       0.0
 4 C  s               0.0       0.0       0.0       1.0       0.1       0.0
 4 C  dx2y2           0.0       0.2       0.0       0.0       0.0       0.0
 4 C  dxy             0.0       0.0       0.0       0.2       0.0       0.0
 5 C  s               0.0      98.9       0.0       0.0       0.0       0.0
 5 C  dxy             0.0       0.0       0.0       0.0       0.2       0.0
 6 C  s               0.0       0.0       0.4       0.1      96.9       1.5
 6 C  dxy             0.0       0.2       0.1       0.0       0.0       0.0
 7 O  s              99.8       0.0       0.0       0.0       0.0       0.0

                      6         7         8         9        10        11   
                 -12.04302 -12.04085  -1.71413  -1.38573  -1.29859  -1.27548
                   2.00000   2.00000   2.00000   2.00000   2.00000   2.00000
                  --------  --------  --------  --------  --------  --------
 0 C  s               0.0       0.2       0.0       2.0       9.3       0.0
 0 C  px              0.0       0.0       0.0       1.4       1.9       0.1
 0 C  py              0.0       0.0       0.0       0.4       0.6       0.1
 0 C  dz2             0.0       0.0       0.0       0.1       0.2       0.0
 0 C  dx2y2           0.0       0.0       0.0       0.1       0.1       0.1
 0 C  dxy             0.0       0.0       0.0       0.2       0.3       0.0
 1 C  s               0.0       0.2       0.0      12.9      14.8       0.0
 1 C  px              0.0       0.0       0.1       1.6       1.3       1.7
 1 C  py              0.0       0.1       0.0       0.4       0.3       7.1
 1 C  dz2             0.0       0.1       0.0       0.7       0.4       0.0
 1 C  dx2y2           0.0       0.2       0.0       0.0       0.0       1.5
 1 C  dxy             0.0       0.0       0.0       0.0       0.0       0.6
 1 C  f-3             0.0       0.1       0.0       0.1       0.2       0.0
 2 C  s               1.3      96.6       0.0      10.1       2.0      11.6
 2 C  px              0.0       0.0       0.0       2.0       1.8       1.8
 2 C  py              0.0       0.0       0.0       1.3       4.8       1.5
 2 C  dz2             0.0       0.0       0.0       0.6       0.0       0.2
 2 C  dx2y2           0.0       0.0       0.0       0.0       1.4       0.2
 2 C  dxy             0.0       0.0       0.0       0.0       0.0       0.7
 3 C  s               0.8       0.8       0.0       9.3       3.5      14.3
 3 C  px              0.1       0.1       0.0       0.0       4.5       1.5
 3 C  py              0.0       0.0       0.0       3.1       0.2       0.5
 3 C  dz2             0.1       0.1       0.0       0.5       0.1       0.2
 3 C  dx2y2           0.0       0.1       0.0       0.0       0.1       0.4
 3 C  dxy             0.2       0.1       0.0       0.0       1.1       0.3
 3 C  f-3             0.0       0.1       0.0       0.1       0.0       0.1
 4 C  s              96.7       1.1       0.4       9.3      12.9       0.4
 4 C  px              0.0       0.0       0.1       2.5       0.4       2.4
 4 C  py              0.0       0.0       1.2       0.7       0.4       6.1
 4 C  dz2             0.0       0.0       0.1       0.5       0.3       0.0
 4 C  dx2y2           0.0       0.0       0.2       0.0       0.2       1.5
 4 C  dxy             0.0       0.0       0.2       0.0       0.2       0.7
 4 C  f-3             0.0       0.0       0.0       0.1       0.1       0.0
 5 C  s               0.0       0.0       7.0       9.1       5.1       8.8
 5 C  px              0.0       0.0       7.8       4.0       0.3       2.2
 5 C  py              0.1       0.0       2.8       1.2       5.1       1.5
 5 C  dz2             0.1       0.0       1.2       0.3       0.0       0.0
 5 C  dx2y2           0.2       0.0       0.8       0.0       1.1       0.2
 5 C  dxy             0.0       0.0       2.6       0.2       0.0       1.4
 5 C  f+1             0.0       0.0       0.2       0.0       0.0       0.0
 5 C  f-3             0.1       0.0       0.5       0.1       0.0       0.0
 6 C  s               0.1       0.1       0.4      11.3       1.5      11.2
 6 C  px              0.0       0.0       1.3       0.1       7.1       1.6
 6 C  py              0.0       0.0       0.0       3.3       0.1       0.3
 6 C  dz2             0.0       0.0       0.1       0.6       0.0       0.1
 6 C  dx2y2           0.0       0.0       0.3       0.0       0.2       0.4
 6 C  dxy             0.0       0.0       0.0       0.0       1.4       0.4
 6 C  f-3             0.0       0.0       0.0       0.1       0.0       0.1
 7 O  s               0.0       0.0      56.8       0.7       0.4       1.1
 7 O  px              0.0       0.0       1.3       1.1       1.2       3.6
 7 O  py              0.0       0.0       0.1       0.8       2.5       2.1
 7 O  dx2y2           0.0       0.0       0.0       0.0       0.0       0.2
 7 O  dxy             0.0       0.0       0.0       0.0       0.1       0.1
 8 H  s               0.0       0.0       0.0       0.3       1.7       0.0
 9 H  s               0.0       0.0       0.0       0.3       1.7       0.0
10 H  s               0.0       0.0       0.0       0.3       1.7       0.0
10 H  px              0.0       0.0       0.0       0.0       0.1       0.0
11 H  s               0.0       0.0       0.0       1.2       0.4       1.9
11 H  px              0.0       0.0       0.0       0.1       0.0       0.2
12 H  s               0.0       0.0       0.0       1.1       0.5       2.4
12 H  py              0.0       0.0       0.0       0.1       0.1       0.3
13 H  s               0.0       0.0       0.1       1.0       1.9       0.1
13 H  px              0.0       0.0       0.0       0.1       0.2       0.0
14 H  s               0.0       0.0       0.1       1.3       0.3       1.9
14 H  py              0.0       0.0       0.0       0.1       0.0       0.2
15 H  s               0.0       0.0      10.9       0.4       0.9       1.1
15 H  py              0.0       0.0       2.9       0.1       0.1       0.1

                     12        13        14        15        16        17   
                  -1.19984  -1.15233  -1.09672  -1.05734  -0.99693  -0.94749
                   2.00000   2.00000   2.00000   2.00000   2.00000   2.00000
                  --------  --------  --------  --------  --------  --------
 0 C  s              23.3       0.5       4.1       0.7       0.5       0.1
 0 C  px              0.2       0.0       2.0       2.0       1.5       0.7
 0 C  py              0.0       0.4       1.0       0.1       1.6       0.3
 0 C  dz2             0.0       0.0       0.1       0.0       0.1       0.0
 0 C  dx2y2           0.0       0.1       0.0       0.5       0.0       0.0
 0 C  dxy             0.0       0.1       0.3       0.0       0.2       0.0
 1 C  s               0.1       0.1       4.7       1.0       1.4       0.4
 1 C  px             13.2       1.0       0.7       3.1       1.3       1.5
 1 C  py              2.7       7.9       1.4       8.4       0.9       0.6
 1 C  dx2y2           0.4       0.8       0.2       0.0       0.1       0.4
 1 C  dxy             1.6       0.0       0.4       0.3       0.1       1.5
 2 C  s               2.4       6.5       0.1       2.0       0.2       2.3
 2 C  px              0.5       1.3       1.8       2.2       1.6      10.9
 2 C  py              0.1       0.3      11.6       0.3       5.2       5.9
 2 C  dx2y2           0.0       0.2       0.4       0.0       0.1       0.0
 2 C  dxy             0.3       0.0       0.7       0.0       0.0       0.1
 3 C  s               0.0       1.5       5.4       2.9       0.0       0.6
 3 C  px              4.3       7.8       4.0       1.2       8.6       0.7
 3 C  py              0.0       0.1       1.8       1.9       0.4       3.4
 3 C  dx2y2           0.0       0.0       0.0       0.0       0.0       1.3
 3 C  dxy             0.7       0.7       0.1       0.0       0.0       0.0
 3 C  f+3             0.0       0.0       0.0       0.0       0.1       0.0
 4 C  s               5.0       2.5       4.3       0.1       0.7       2.1
 4 C  px              0.6       1.9       2.5       0.2       0.0      13.1
 4 C  py              0.1       3.7       1.3       6.8       9.3       0.3
 4 C  dx2y2           0.1       0.1       0.0       0.2       0.0       0.0
 4 C  dxy             0.2       0.1       0.2       1.3       0.1       0.3
 4 C  f+3             0.0       0.1       0.0       0.0       0.0       0.0
 5 C  s               0.2       1.9       0.5       2.5       0.2       0.2
 5 C  px              4.3       8.3       1.0       5.8       2.5       0.4
 5 C  py              5.2       0.3      13.9       1.0       5.4       0.4
 5 C  dz2             0.0       0.1       0.0       0.0       0.0       0.0
 5 C  dx2y2           0.4       0.6       0.0       2.1       1.4       0.7
 5 C  dxy             0.1       0.1       0.0       0.1       0.5       2.4
 5 C  f+3             0.0       0.0       0.0       0.2       0.2       0.0
 6 C  s               4.9       3.0       1.0       1.4       0.5       1.8
 6 C  px              0.4       0.4       8.0      13.1       0.0       0.0
 6 C  py              0.2       0.3       2.0       1.7       0.3      11.9
 6 C  dx2y2           0.2       0.0       0.3       0.1       0.5       0.4
 6 C  dxy             0.2       0.0       0.3       0.7       0.6       0.1
 6 C  f+3             0.1       0.1       0.0       0.0       0.1       0.0
 7 O  s               0.0       0.2       0.7       1.1       3.7       0.0
 7 O  px              0.1       7.3       7.5       0.6      37.7       1.1
 7 O  py              2.9      24.3       0.1      19.1       5.1       0.2
 7 O  dz2             0.0       0.0       0.0       0.1       0.1       0.0
 7 O  dx2y2           0.0       0.4       0.3       0.2       0.0       0.0
 7 O  dxy             0.1       0.3       0.0       0.0       0.0       0.0
 8 H  s               6.2       0.2       2.0       0.3       0.8       0.1
 8 H  pz              0.4       0.0       0.2       0.0       0.1       0.0
 8 H  py              0.2       0.0       0.0       0.0       0.0       0.0
 9 H  s               6.2       0.2       2.1       0.3       0.8       0.1
 9 H  pz              0.4       0.0       0.1       0.0       0.1       0.0
 9 H  py              0.3       0.0       0.1       0.0       0.0       0.0
10 H  s               6.3       0.1       1.9       1.0       0.3       0.1
10 H  px              0.4       0.0       0.1       0.0       0.0       0.0
10 H  py              0.2       0.0       0.1       0.0       0.0       0.0
11 H  s               0.4       2.2       0.2       1.5       0.1      12.0
11 H  px              0.0       0.2       0.1       0.1       0.0       0.4
11 H  py              0.0       0.1       0.0       0.1       0.0       0.1
12 H  s               0.0       0.5       3.0       2.5       0.2       0.6
12 H  py              0.0       0.1       0.3       0.2       0.0       0.0
13 H  s               1.4       0.5       2.0       0.1       1.6       9.3
13 H  px              0.1       0.1       0.1       0.0       0.2       0.2
13 H  py              0.1       0.0       0.1       0.0       0.0       0.2
14 H  s               1.0       1.1       1.3       1.6       0.0       9.7
14 H  px              0.0       0.0       0.1       0.1       0.0       0.0
14 H  py              0.1       0.1       0.1       0.1       0.0       0.4
15 H  s               0.7       8.3       0.1       6.0       1.4       0.3
15 H  px              0.0       0.3       0.2       0.0       0.8       0.0
15 H  py              0.0       0.3       0.0       0.1       0.0       0.0

                     18        19        20        21        22        23   
                  -0.94557  -0.94249  -0.89389  -0.87330  -0.84089  -0.83413
                   2.00000   2.00000   2.00000   2.00000   2.00000   2.00000
                  --------  --------  --------  --------  --------  --------
 0 C  s               0.0       0.0       0.2       0.2       0.0       0.0
 0 C  pz              0.0       0.0       0.0       0.0      48.0       0.0
 0 C  px              0.0       1.2       8.2      11.6       0.0       2.7
 0 C  py              0.0       1.8       4.4       4.4       0.0      15.1
 0 C  dz2             0.0       0.0       0.1       0.1       0.0       0.3
 0 C  dyz             0.0       0.0       0.0       0.0       1.3       0.0
 0 C  dx2y2           0.0       0.3       0.1       0.0       0.0       0.1
 0 C  dxy             0.0       0.0       0.3       0.2       0.0       0.2
 1 C  s               0.0       0.1       1.1       0.0       0.0       0.1
 1 C  pz              0.0       0.0       0.0       0.0       9.9       0.0
 1 C  px              0.0       2.4       3.9      12.3       0.0       0.9
 1 C  py              0.0       8.5       2.2       1.8       0.0       1.9
 1 C  dxz             0.0       0.0       0.0       0.0       0.8       0.0
 1 C  dyz             0.0       0.0       0.0       0.0       0.4       0.0
 1 C  dx2y2           0.0       0.1       1.1       0.1       0.0       0.2
 1 C  dxy             0.0       0.1       0.1       0.2       0.0       0.2
 1 C  f0              0.0       0.0       0.0       0.0       0.1       0.0
 1 C  f+3             0.0       0.0       0.2       0.1       0.0       0.6
 2 C  s               0.0       0.0       0.8       0.0       0.0       0.5
 2 C  pz              0.1       0.0       0.0       0.0       2.0       0.0
 2 C  px              0.0       4.1       2.4       0.0       0.0      12.8
 2 C  py              0.0       6.6       0.8       0.5       0.0       3.5
 2 C  dz2             0.0       0.0       0.2       0.0       0.0       0.0
 2 C  dyz             0.0       0.0       0.0       0.0       0.2       0.0
 2 C  dx2y2           0.0       0.1       0.6       0.8       0.0       0.9
 2 C  dxy             0.0       0.0       0.6       0.5       0.0       3.2
 2 C  f+3             0.0       0.1       0.0       0.4       0.0       0.0
 3 C  s               0.0       0.0       1.0       0.2       0.0       0.2
 3 C  pz              0.0       0.0       0.0       0.0       0.5       0.0
 3 C  px              0.0      11.2       0.1       0.4       0.0       5.4
 3 C  py              0.0       0.1      20.6       8.0       0.0       1.3
 3 C  dx2y2           0.0       0.0       1.8       0.0       0.0       1.2
 3 C  dxy             0.0       0.1       0.2       0.4       0.0       0.5
 3 C  f+3             0.0       0.1       0.1       0.1       0.0       0.1
 4 C  s               0.0       0.0       0.6       0.3       0.0       0.1
 4 C  pz              0.6       0.0       0.0       0.0       0.3       0.0
 4 C  px              0.0       2.3       0.2      12.6       0.0       4.9
 4 C  py              0.0       8.5       2.3       3.0       0.0       1.3
 4 C  dyz             0.4       0.0       0.0       0.0       0.0       0.0
 4 C  dx2y2           0.0       0.1       1.8       0.0       0.0       0.1
 4 C  dxy             0.0       0.0       0.2       0.7       0.0       0.1
 4 C  f+3             0.0       0.1       0.3       0.1       0.0       0.0
 5 C  s               0.0       0.1       1.3       0.0       0.0       0.0
 5 C  pz             11.2       0.0       0.0       0.0       0.3       0.0
 5 C  px              0.0       4.4       1.5       0.2       0.0       0.3
 5 C  py              0.0       6.1       0.4       1.2       0.0       0.5
 5 C  dz2             0.0       0.0       0.2       0.0       0.0       0.0
 5 C  dxz             2.8       0.0       0.0       0.0       0.1       0.0
 5 C  dyz             1.0       0.0       0.0       0.0       0.0       0.0
 5 C  dx2y2           0.0       0.9       0.2       1.0       0.0       0.3
 5 C  dxy             0.0       0.4       0.0       0.3       0.0       0.8
 5 C  f0              0.3       0.0       0.0       0.0       0.0       0.0
 5 C  f+2             0.1       0.0       0.0       0.0       0.0       0.0
 5 C  f-2             0.4       0.0       0.0       0.0       0.0       0.0
 5 C  f+3             0.0       0.6       0.0       0.5       0.0       0.0
 6 C  s               0.0       0.3       0.5       0.2       0.0       0.1
 6 C  pz              0.6       0.0       0.0       0.0       2.4       0.0
 6 C  px              0.0      12.1       0.5       0.2       0.0       0.4
 6 C  py              0.0       0.1       7.0      11.3       0.0       4.0
 6 C  dz2             0.0       0.0       0.0       0.1       0.0       0.0
 6 C  dxz             0.4       0.0       0.0       0.0       0.2       0.0
 6 C  dx2y2           0.0       0.2       1.6       0.1       0.0       0.8
 6 C  dxy             0.0       0.1       0.4       0.4       0.0       0.1
 6 C  f+3             0.0       0.0       0.1       0.2       0.0       0.0
 7 O  s               0.0       1.8       0.0       0.0       0.0       0.0
 7 O  pz             79.7       0.0       0.0       0.0       0.3       0.0
 7 O  px              0.0      12.6       0.8       0.0       0.0       0.2
 7 O  py              0.0       6.4       0.1       0.0       0.0       0.1
 7 O  dx2y2           0.0       0.4       0.0       0.0       0.0       0.0
 8 H  s               0.0       0.1       1.5       1.6      16.0       2.3
 8 H  pz              0.0       0.0       0.1       0.1       0.1       0.1
 8 H  px              0.0       0.0       0.1       0.1       0.0       0.1
 8 H  py              0.0       0.0       0.0       0.0       0.5       0.0
 9 H  s               0.0       0.1       1.6       1.6      14.8       2.6
 9 H  pz              0.0       0.0       0.1       0.1       0.0       0.2
 9 H  px              0.0       0.0       0.1       0.1       0.0       0.0
 9 H  py              0.0       0.0       0.0       0.0       0.5       0.0
10 H  s               0.0       1.0       0.9       1.3       0.0       7.1
10 H  pz              0.0       0.0       0.0       0.0       0.6       0.0
10 H  px              0.0       0.0       0.0       0.0       0.0       0.2
10 H  py              0.0       0.0       0.2       0.2       0.0       0.0
11 H  s               0.0       0.1       0.3       0.0       0.0      14.3
11 H  px              0.0       0.0       0.0       0.0       0.0       0.2
11 H  py              0.0       0.1       0.0       0.0       0.0       0.1
12 H  s               0.0       0.1      15.3       3.9       0.0       1.9
12 H  px              0.0       0.2       0.0       0.0       0.0       0.1
12 H  py              0.0       0.0       0.5       0.1       0.0       0.0
13 H  s               0.0       0.0       1.6       9.3       0.0       1.1
13 H  px              0.0       0.0       0.1       0.2       0.0       0.0
13 H  py              0.0       0.1       0.0       0.1       0.0       0.1
14 H  s               0.0       0.3       6.3       5.8       0.0       3.3
14 H  px              0.0       0.1       0.0       0.0       0.0       0.0
14 H  py              0.0       0.0       0.2       0.1       0.0       0.1
15 H  s               0.0       2.6       0.0       0.0       0.0       0.2
15 H  pz              1.9       0.0       0.0       0.0       0.0       0.0
15 H  px              0.0       0.1       0.0       0.0       0.0       0.0

                     24        25        26        27        28        29   
                  -0.82065  -0.80601  -0.75959  -0.63929  -0.63159  -0.24237
                   2.00000   2.00000   2.00000   2.00000   2.00000   0.00000
                  --------  --------  --------  --------  --------  --------
 0 C  s               0.1       0.1       0.0       0.0       0.0       0.0
 0 C  pz              0.0       0.0       4.3       0.4       0.7       0.0
 0 C  px             17.8       0.4       0.0       0.0       0.0       0.0
 0 C  py              4.3      18.2       0.0       0.0       0.0       0.0
 0 C  dz2             0.3       0.4       0.0       0.0       0.0       0.0
 0 C  dxz             0.0       0.0       0.4       0.4       0.8       0.4
 0 C  dyz             0.0       0.0       0.7       0.2       1.0       0.1
 0 C  dx2y2           0.2       0.9       0.0       0.0       0.0       0.0
 0 C  dxy             1.1       0.5       0.0       0.0       0.0       0.0
 1 C  s               0.1       0.0       0.0       0.0       0.0       0.0
 1 C  pz              0.0       0.0       8.6       5.8      16.3       3.2
 1 C  px              4.9       0.1       0.0       0.0       0.0       0.0
 1 C  py              0.2       7.8       0.0       0.0       0.0       0.0
 1 C  dxz             0.0       0.0       1.4       1.6       0.0       0.6
 1 C  dyz             0.0       0.0       0.4       1.7       1.9       3.7
 1 C  dx2y2           0.1       2.7       0.0       0.0       0.0       0.0
 1 C  dxy             3.5       0.0       0.0       0.0       0.0       0.0
 1 C  f+2             0.0       0.0       0.0       0.1       0.2       0.3
 1 C  f-2             0.0       0.0       0.1       0.2       0.0       0.1
 2 C  s               0.1       0.0       0.0       0.0       0.0       0.0
 2 C  pz              0.0       0.0      12.6       6.9      25.0      20.2
 2 C  px              6.5       0.5       0.0       0.0       0.0       0.0
 2 C  py              0.1       8.6       0.0       0.0       0.0       0.0
 2 C  dxz             0.0       0.0       0.5       0.8       0.2       1.3
 2 C  dyz             0.0       0.0       0.0       1.8       0.6       0.1
 2 C  dx2y2           0.1       0.6       0.0       0.0       0.0       0.0
 2 C  dxy             1.1       0.1       0.0       0.0       0.0       0.0
 2 C  f0              0.0       0.0       0.1       0.0       0.0       0.2
 2 C  f+2             0.0       0.0       0.0       0.2       0.1       0.0
 2 C  f-2             0.0       0.0       0.0       0.1       0.0       0.1
 3 C  s               0.0       0.1       0.0       0.0       0.0       0.0
 3 C  pz              0.0       0.0      16.2      26.6       0.0       9.0
 3 C  px              3.5       0.5       0.0       0.0       0.0       0.0
 3 C  py              1.2       6.6       0.0       0.0       0.0       0.0
 3 C  dxz             0.0       0.0       0.0       0.0       4.7       3.0
 3 C  dyz             0.0       0.0       0.5       0.0       0.0       0.4
 3 C  dx2y2           0.4       3.0       0.0       0.0       0.0       0.0
 3 C  dxy             0.5       0.0       0.0       0.0       0.0       0.0
 3 C  f0              0.0       0.0       0.1       0.0       0.0       0.1
 3 C  f-2             0.0       0.0       0.0       0.0       0.4       0.3
 3 C  f+3             0.1       0.0       0.0       0.0       0.0       0.0
 4 C  s               0.2       0.1       0.0       0.0       0.0       0.0
 4 C  pz              0.0       0.0      16.4       7.8      21.6       2.7
 4 C  px              6.3       0.6       0.0       0.0       0.0       0.0
 4 C  py              2.2       3.8       0.0       0.0       0.0       0.0
 4 C  dxz             0.0       0.0       0.5       0.7       0.1       0.4
 4 C  dyz             0.0       0.0       0.0       1.7       0.6       4.8
[...]
 3 C  dxy             0.0       0.2       0.0       0.0       0.0       0.0
 3 C  f+3             0.0       0.5       0.0       0.0       0.0       0.0
 4 C  s               0.0       0.0       0.0       0.1       0.5       0.0
 4 C  pz              0.1       0.0       0.0       0.0       0.0       0.0
 4 C  px              0.0       0.6       0.0       0.0       0.1       0.1
 4 C  py              0.0       1.1       0.0       0.0       0.1       0.0
 4 C  dxy             0.0       1.0       0.0       0.0       0.0       0.2
 4 C  f-1             0.0       0.1       0.0       0.0       0.0       0.0
 4 C  f+3             0.0       2.8       0.0       0.0       0.0       0.1
 4 C  f-3             0.0       0.0       0.0       0.0       0.1       0.1
 5 C  s               0.0       1.0       0.0       0.7       1.1       0.7
 5 C  pz              0.0       0.0       0.8       0.0       0.0       0.0
 5 C  px              0.0       0.2       0.0       0.4       1.6       0.0
 5 C  py              0.0       0.4       0.0       0.7       0.3       0.1
 5 C  dz2             0.0       0.3       0.0       0.1       0.1       0.1
 5 C  dxz             0.1       0.0       1.4       0.0       0.0       0.0
 5 C  dyz             0.6       0.0       0.4       0.0       0.0       0.0
 5 C  dx2y2           0.0       0.3       0.0       2.2       0.4       0.8
 5 C  dxy             0.0       0.5       0.0       0.7       0.9       1.0
 5 C  f0              0.0       0.0       0.4       0.0       0.0       0.0
 5 C  f-1             0.0       0.0       0.0       0.1       0.1       0.0
 5 C  f+2             0.0       0.0       0.3       0.0       0.0       0.0
 5 C  f-2             0.0       0.0       0.6       0.0       0.0       0.0
 5 C  f+3             0.0       9.9       0.0       0.3       0.0       2.5
 5 C  f-3             0.0       0.1       0.0       0.0       0.9       0.1
 6 C  s               0.0       0.3       0.0       0.1       0.4       0.4
 6 C  pz              0.1       0.0       0.0       0.0       0.0       0.0
 6 C  px              0.0       0.0       0.0       0.1       0.0       0.4
 6 C  py              0.0       0.4       0.0       0.3       0.0       0.0
 6 C  dx2y2           0.0       0.4       0.0       0.2       0.0       0.3
 6 C  dxy             0.0       0.6       0.0       0.1       0.0       0.0
 6 C  f+3             0.0       1.0       0.0       0.0       0.0       0.1
 6 C  f-3             0.0       0.0       0.0       0.0       0.1       0.1
 7 O  s               0.0       2.2       0.0       2.2       1.1       3.0
 7 O  pz              0.1       0.0       1.0       0.0       0.0       0.0
 7 O  px              0.0       0.2       0.0       1.8       0.9       0.0
 7 O  py              0.0       0.2       0.0       2.4       1.9       0.9
 7 O  dz2             0.0      20.7       0.0      40.6       8.3       5.6
 7 O  dxz            28.9       0.0      54.4       0.0       0.0       0.0
 7 O  dyz            65.9       0.0      24.6       0.0       0.0       0.0
 7 O  dx2y2           0.0      22.2       0.0      16.5       3.3      47.0
 7 O  dxy             0.0       0.2       0.0      14.0      69.5       0.3
 7 O  f0              2.4       0.0       4.5       0.0       0.0       0.0
 7 O  f+1             0.0       0.1       0.0       5.2       1.0       0.1
 7 O  f-1             0.0       0.3       0.0       2.3       2.9       3.2
 7 O  f+2             0.1       0.0       3.8       0.0       0.0       0.0
 7 O  f-2             0.8       0.0       7.6       0.0       0.0       0.0
 7 O  f+3             0.0      15.1       0.0       0.4       0.0      16.2
 7 O  f-3             0.0      10.9       0.0       5.4       3.0       8.9
13 H  py              0.0       0.1       0.0       0.0       0.0       0.0
15 H  s               0.0       1.7       0.0       2.2       0.3       6.7
15 H  pz              0.5       0.0       0.0       0.0       0.0       0.0
15 H  px              0.0       0.0       0.0       0.0       0.1       0.0
15 H  py              0.0       1.4       0.0       0.3       0.0       0.5

                    288       289       290       291       292       293   
                  20.44132  20.83167  21.05082  21.11191  21.15892  21.34158
                   0.00000   0.00000   0.00000   0.00000   0.00000   0.00000
                  --------  --------  --------  --------  --------  --------
 0 C  s               1.6      90.5       3.9       0.5       1.2       0.1
 1 C  s              14.2       0.9       3.5       7.2       0.1      42.8
 1 C  px              0.0       0.3       0.1       0.0       0.1       0.1
 1 C  py              0.0       0.1       0.1       0.2       0.4       0.0
 1 C  dx2y2           0.0       0.1       0.0       0.1       0.2       0.0
 1 C  dxy             0.0       0.2       0.0       0.0       0.1       0.0
 2 C  s              16.9       2.1      40.8       0.2      23.1       2.2
 2 C  px              0.1       0.0       0.1       0.1       0.0       0.0
 2 C  py              0.0       0.0       0.1       0.3       0.0       0.1
 3 C  s              20.2       0.1       1.9      69.1       2.0       0.2
 3 C  px              0.0       0.0       0.6       0.0       0.0       0.0
 3 C  dxy             0.0       0.0       0.2       0.0       0.0       0.0
 4 C  s              17.8       0.9      45.8       3.3      14.5       3.2
 4 C  px              0.1       0.0       0.0       0.1       0.0       0.0
 4 C  py              0.0       0.0       0.0       0.4       0.0       0.1
 4 C  dx2y2           0.0       0.0       0.0       0.1       0.0       0.0
 5 C  s               9.9       0.0       1.2      11.7       0.6      49.5
 5 C  px              0.1       0.0       0.0       0.1       0.1       0.0
 5 C  py              0.1       0.0       0.3       0.0       0.3       0.0
 5 C  dx2y2           0.0       0.0       0.1       0.0       0.2       0.0
 6 C  s              17.7       3.6       0.3       5.8      56.5       0.2
 6 C  px              0.0       0.0       0.3       0.0       0.0       0.4
 6 C  dxy             0.0       0.0       0.1       0.0       0.0       0.2
 7 O  s               0.2       0.0       0.0       0.0       0.0       0.1
 7 O  px              0.1       0.0       0.0       0.0       0.0       0.1
 8 H  s               0.0       0.2       0.0       0.0       0.0       0.0
 9 H  s               0.0       0.2       0.0       0.0       0.0       0.0
10 H  s               0.0       0.2       0.0       0.0       0.0       0.0
12 H  s               0.1       0.0       0.0       0.1       0.0       0.0
14 H  s               0.1       0.0       0.0       0.0       0.1       0.0

                    294       295   
                  21.66730  41.56428
                   0.00000   0.00000
                  --------  --------
 0 C  s               0.3       0.0
 1 C  s              29.8       0.0
 2 C  s              12.5       0.0
 3 C  s               4.7       0.0
 4 C  s              12.4       0.0
 5 C  s              24.9       0.0
 6 C  s              13.8       0.0
 7 O  s               0.1      99.7


                      *****************************
                      * MAYER POPULATION ANALYSIS *
                      *****************************

  NA   - Mulliken gross atomic population
  ZA   - Total nuclear charge
  QA   - Mulliken gross atomic charge
  VA   - Mayer's total valence
  BVA  - Mayer's bonded valence
  FA   - Mayer's free valence

  ATOM       NA         ZA         QA         VA         BVA        FA
  0 C      6.3645     6.0000    -0.3645     3.8810     3.8810     0.0000
  1 C      5.8456     6.0000     0.1544     3.7522     3.7522     0.0000
  2 C      6.2343     6.0000    -0.2343     3.9906     3.9906     0.0000
  3 C      6.0649     6.0000    -0.0649     3.9257     3.9257    -0.0000
  4 C      6.2380     6.0000    -0.2380     3.9925     3.9925    -0.0000
  5 C      5.7052     6.0000     0.2948     3.9809     3.9809     0.0000
  6 C      6.2849     6.0000    -0.2849     3.8688     3.8688     0.0000
  7 O      8.3934     8.0000    -0.3934     2.0882     2.0882     0.0000
  8 H      0.8764     1.0000     0.1236     0.9648     0.9648    -0.0000
  9 H      0.8773     1.0000     0.1227     0.9658     0.9658    -0.0000
 10 H      0.8820     1.0000     0.1180     0.9782     0.9782     0.0000
 11 H      0.8895     1.0000     0.1105     0.9733     0.9733     0.0000
 12 H      0.8829     1.0000     0.1171     0.9688     0.9688    -0.0000
 13 H      0.8784     1.0000     0.1216     0.9847     0.9847    -0.0000
 14 H      0.8940     1.0000     0.1060     0.9786     0.9786     0.0000
 15 H      0.6888     1.0000     0.3112     0.9180     0.9180     0.0000

  Mayer bond orders larger than 0.100000
B(  0-C ,  1-C ) :   0.9061 B(  0-C ,  8-H ) :   0.9735 B(  0-C ,  9-H ) :   0.9773 
B(  0-C , 10-H ) :   0.9960 B(  1-C ,  2-C ) :   1.4214 B(  1-C ,  6-C ) :   1.3797 
B(  2-C ,  3-C ) :   1.4223 B(  2-C , 11-H ) :   0.9670 B(  3-C ,  4-C ) :   1.4493 
B(  3-C , 12-H ) :   0.9753 B(  4-C ,  5-C ) :   1.3967 B(  4-C , 13-H ) :   0.9729 
B(  5-C ,  6-C ) :   1.3810 B(  5-C ,  7-O ) :   1.1360 B(  6-C , 14-H ) :   0.9531 
B(  7-O , 15-H ) :   0.8920 

-------
TIMINGS
-------

Total SCF time: 0 days 0 hours 2 min 28 sec 

Total time                  ....     148.393 sec
Sum of individual times     ....     145.691 sec  ( 98.2%)

SCF preparation             ....       0.219 sec  (  0.1%)
Fock matrix formation       ....     144.102 sec  ( 97.1%)
  Startup                   ....       0.063 sec  (  0.0% of F)
  Split-RI-J                ....       5.880 sec  (  4.1% of F)
  Chain of spheres X        ....     122.725 sec  ( 85.2% of F)
  XC integration            ....      16.987 sec  ( 11.8% of F)
    XC Preparation          ....       0.000 sec  (  0.0% of XC)
    Basis function eval.    ....       3.856 sec  ( 22.7% of XC)
    Density eval.           ....       3.484 sec  ( 20.5% of XC)
    XC-Functional eval.     ....       3.191 sec  ( 18.8% of XC)
    XC-Potential eval.      ....       5.502 sec  ( 32.4% of XC)
Diagonalization             ....       0.000 sec  (  0.0%)
Density matrix formation    ....       0.226 sec  (  0.2%)
Total Energy calculation    ....       0.048 sec  (  0.0%)
Population analysis         ....       0.166 sec  (  0.1%)
Orbital Transformation      ....       0.079 sec  (  0.1%)
Orbital Orthonormalization  ....       0.000 sec  (  0.0%)
DIIS solution               ....       0.398 sec  (  0.3%)
  MO trafo                  ....       0.000 sec  (  0.0 % of DIIS)
  Orb grad                  ....       0.000 sec  (  0.0 % of DIIS)
  Energy W gradient         ....       0.000 sec  (  0.0 % of DIIS)
  DIIS error                ....       0.015 sec  (  3.7 % of DIIS)
  DIIS work                 ....       0.332 sec  ( 83.4 % of DIIS)
  Form Q                    ....       0.000 sec  (  0.0 % of DIIS)
  Form QpQm                 ....       0.000 sec  (  0.0 % of DIIS)
  Exp/Cayley                ....       0.000 sec  (  0.0 % of DIIS)
  Orb update                ....       0.000 sec  (  0.0 % of DIIS)
  Wake-sleep                ....       0.012 sec  (  3.0 % of DIIS)
SOSCF solution              ....       0.277 sec  (  0.2%)
  MO trafo                  ....       0.100 sec  ( 36.0 % of SOSCF)
  Orb grad                  ....       0.003 sec  (  1.2 % of SOSCF)
  Rot update                ....       0.091 sec  ( 32.8 % of SOSCF)
  Step                      ....       0.083 sec  ( 29.9 % of SOSCF)
Grid generation             ....       0.177 sec  (  0.1%)
Finished LeanSCF after 148.5 sec

Maximum memory used throughout the entire LEANSCF-calculation: 38.6 MB
------------------   -----------------
gCP correction             0.008836568
------------------   -----------------

-------------------------   --------------------
FINAL SINGLE POINT ENERGY      -346.804162990350
-------------------------   --------------------


------------------------------------------------------------------------------
                              ORCA PROPERTY CALCULATIONS
------------------------------------------------------------------------------

GBWName                                 ... sp_gas.gbw
Number of atoms                         ...     16
Number of basis functions               ...    296
Max core memory                         ...   1024 MB

Electric properties:
Dipole moment                           ... YES
Quadrupole moment                       ...  NO
Static polarizability (Dipole/Dipole)   ...  NO
Static polarizability (Dipole/Quad.)    ...  NO
Static polarizability (Quad./Quad.)     ...  NO
Static polarizability (Velocity)        ...  NO

Atomic electric properties:
Dipole moment                           ...  NO
Quadrupole moment                       ...  NO
Static polarizability                   ...  NO

Choice of electric origin               ... Center of mass
Position of electric origin             ...     0.007349     0.000187     0.000189

General magnetic properties:
Magnetizability                         ...  NO

EPR properties:
g-Tensor (aka g-matrix)                 ...  NO
Zero-Field splitting spin-orbit         ...  NO
Zero-field splitting spin-spin          ...  NO
Hyperfine couplings                     ...  NO (   0 nuclei)
Quadrupole couplings                    ...  NO (   0 nuclei)
Contact density                         ...  NO (   0 nuclei)

NMR properties:
Chemical shifts                         ...  NO (   0 nuclei)
Spin-rotation constants                 ...  NO (   0 nuclei)
Spin-spin couplings                     ...  NO (   0 nuclei,    0 pairs)

Choice of magnetic origin               ... GIAO
Position of magnetic origin             ...     0.000000     0.000000     0.000000

Properties with geometric perturbations:
SCF Hessian                             ...  NO
IR spectrum                             ...  NO
VCD spectrum                            ...  NO
X-ray spectroscopy properties:
SCF XES/XAS/RIXS spectra                ...  NO


-------------
DIPOLE MOMENT
-------------

Method             : SCF
Type of density    : Electron Density
Multiplicity       :   1
Irrep              :   0
Energy             :  -346.8129995583501000 Eh
Relativity type    : 
Basis              : AO
                                X                 Y                 Z
Electronic contribution:      5.555050043       0.924235910       0.005501828
Nuclear contribution   :     -5.990132890      -1.423503320      -0.007399537
                        -----------------------------------------
Total Dipole Moment    :     -0.435082847      -0.499267410      -0.001897709
                        -----------------------------------------
Magnitude (a.u.)       :      0.662245144
Magnitude (Debye)      :      1.683293384



--------------------
Rotational spectrum 
--------------------
 
Rotational constants in cm-1:             0.121924             0.059985             0.040507 
Rotational constants in MHz :          3655.197207          1798.301244          1214.364281 

Dipole components along the rotational axes: 
x,y,z [a.u.] :     0.436750    -0.497809    -0.001933 
x,y,z [Debye]:     1.110131    -1.265331    -0.004914 

 

Dipole moment calculation done in   0.0 sec 

Maximum memory used throughout the entire PROP-calculation: 24.2 MB

--------------------------------
SUGGESTED CITATIONS FOR THIS RUN
--------------------------------

Below you find a list of papers that are relevant to this ORCA run
We neither can nor want to force you to cite these papers, but we appreciate if you do
You receive ORCA, which is the product of decades of hard work by many enthusiastic individuals, for free
The only thing we kindly ask in return is that you cite our papers,
We deeply appreciate it, if you show your appreciation for ORCA by not just citing the generic ORCA reference.

Please note that relegating all ORCA citations to the supporting information does *not* help us.
SI sections are not indexed - citations you put there will not count into any citation statistics
But we need these citations in order to attract the funding resources that allow us to do what we are doing

Therefore, if you are a happy ORCA user, please consider citing a few of the papers listed below in the main body of your paper

In addition to the list printed below, the program has created the file sp_gas.bibtex that contains the list in bibtex format
You can import this file easily into all common literature databanks and citation aid programs


List of essential papers. We consider these as the minimum necessary citations

  1. Neese,F.
     Software update: the ORCA program system, version 5.0
     WIRES Comput. Molec. Sci., 2022 12(1)e1606
     doi.org/10.1002/wcms.1606

List of papers to cite with high priority. The work reported in these papers was absolutely
necessary for this run to complete.
Our perspective: the developers of density functionals and basis sets usually get cited in chemistry papers
Good! But without the algorithms to do something with them, the functionals or basis sets would not do anything.
Hence, in our opinion, the algorithm design and method developments papers are equally worthy of getting cited

  1. Neese,F.
     An improvement of the resolution of the identity approximation for the formation of the Coulomb matrix
     J. Comp. Chem., 2003 24(14)1740-1747
     doi.org/10.1002/jcc.10318
  2. Neese,F.; Wennmohs,F.; Hansen,A.; Becker,U.
     Efficient, approximate and parallel Hartree-Fock and hybrid DFT calculations. A 'chain-of-spheres' algorithm for the Hartree-Fock exchange
     Chem. Phys., 2009 356(1-3)98-109
     doi.org/10.1016/j.chemphys.2008.10.036
  3. Helmich-Paris,B.; de Souza,B.; Neese,F.; Izsák,R.
     An improved chain of spheres for exchange algorithm
     J. Chem. Phys., 2021 155 104109
     doi.org/doi: 10.1063/5.0058766.
  4. Neese,F.
     The SHARK Integral Generation and Digestion System
     J. Comp. Chem., 2022  1-16
     doi.org/10.1002/jcc.26942

List of suggested additional citations. These are papers that are important in the 'surrounding' of 
of this run, or papers that preceded the highly important papers. If you like your results we are grateful for a citation.

  1. Izsak,R.; Neese,F.
     An overlap fitted chain of spheres exchange method
     J. Chem. Phys., 2011 135 144105
     doi.org/10.1063/1.3646921
  2. Izsak,R.; Hansen,A.; Neese,F.
     The resolution of identity and chain of spheres approximations for the LPNO-CCSD singles Fock term
     Molec. Phys., 2012 110 2413-2417
     doi.org/10.1080/00268976.2012.687466
  3. Neese,F.
     The ORCA program system
     WIRES Comput. Molec. Sci., 2012 2(1)73-78
     doi.org/10.1002/wcms.81
  4. Izsak,R.; Neese,F.; Klopper,W.
     Robust fitting techniques in the chain of spheres approximation to the Fock exchange: The role of the complementary space
     J. Chem. Phys., 2013 139 
     doi.org/10.1063/1.4819264
  5. Neese,F.
     Software update: the ORCA program system, version 4.0
     WIRES Comput. Molec. Sci., 2018 8(1)1-6
     doi.org/10.1002/wcms.1327
  6. Neese,F.; Wennmohs,F.; Becker,U.; Riplinger,C.
     The ORCA quantum chemistry program package
     J. Chem. Phys., 2020 152 Art. No. L224108
     doi.org/10.1063/5.0004608

List of optional additional citations

  1. Neese,F.
     Approximate second-order SCF convergence for spin unrestricted wavefunctions
     Chem. Phys. Lett., 2000 325(1-3)93-98
     doi.org/10.1016/s0009-2614(00)00662-x

Timings for individual modules:

Sum of individual times          ...      151.006 sec (=   2.517 min)
Startup calculation              ...        2.088 sec (=   0.035 min)   1.4 %
SCF iterations                   ...      148.801 sec (=   2.480 min)  98.5 %
Property calculations            ...        0.116 sec (=   0.002 min)   0.1 %
                             ****ORCA TERMINATED NORMALLY****
TOTAL RUN TIME: 0 days 0 hours 2 minutes 31 seconds 699 msec
