      -----------------------------------------------------------      
     |                   =====================                   |     
     |                           x T B                           |     
     |                   =====================                   |     
     |                         S. Grimme                         |     
     |          Mulliken Center for Theoretical Chemistry        |     
     |                    University of Bonn                     |     
      -----------------------------------------------------------      

   * xtb version 6.7.1 (edcfbbe) compiled by 'albert@albert-system' on 2024-07-22

   xtb is free software: you can redistribute it and/or modify it under
   the terms of the GNU Lesser General Public License as published by
   the Free Software Foundation, either version 3 of the License, or
   (at your option) any later version.
   
   xtb is distributed in the hope that it will be useful,
   but WITHOUT ANY WARRANTY; without even the implied warranty of
   MERCHANTABILITY or FITNESS FOR A PARTICULAR PURPOSE.  See the
   GNU Lesser General Public License for more details.
   
   Cite this work as:
   * C. Bannwarth, E. Caldeweyher, S. Ehlert, A. Hansen, P. Pracht,
     J. Seibert, S. Spicher, S. Grimme, WIREs Comput. Mol. Sci., 2020, 11,
     e01493. DOI: 10.1002/wcms.1493
   
   for GFN2-xTB:
   * C. Bannwarth, S. Ehlert and S. Grimme., J. Chem. Theory Comput., 2019,
     15, 1652-1671. DOI: 10.1021/acs.jctc.8b01176
   for GFN1-xTB:
   * S. Grimme, C. Bannwarth, P. Shushkov, J. Chem. Theory Comput., 2017,
     13, 1989-2009. DOI: 10.1021/acs.jctc.7b00118
   for GFN0-xTB:
   * P. Pracht, E. Caldeweyher, S. Ehlert, S. Grimme, ChemRxiv, 2019, preprint.
     DOI: 10.26434/chemrxiv.8326202.v1
   for GFN-FF:
   * S. Spicher and S. Grimme, Angew. Chem. Int. Ed., 2020, 59, 15665-15673.
     DOI: 10.1002/anie.202004239
   
   for ALPB and GBSA implicit solvation:
   * S. Ehlert, M. Stahn, S. Spicher, S. Grimme, J. Chem. Theory Comput.,
     2021, 17, 4250-4261. DOI: 10.1021/acs.jctc.1c00471
   
   for ddCOSMO and CPCM-X implicit solvation:
   * M. Stahn, S. Ehlert, S. Grimme, J. Phys. Chem. A,
     2023, XX, XXXX-XXXX. DOI: 10.1021/acs.jpca.3c04382
   
   for DFT-D4:
   * E. Caldeweyher, C. Bannwarth and S. Grimme, J. Chem. Phys., 2017,
     147, 034112. DOI: 10.1063/1.4993215
   * E. Caldeweyher, S. Ehlert, A. Hansen, H. Neugebauer, S. Spicher,
     C. Bannwarth and S. Grimme, J. Chem. Phys., 2019, 150, 154122.
     DOI: 10.1063/1.5090222
   * E. Caldeweyher, J.-M. Mewes, S. Ehlert and S. Grimme, Phys. Chem. Chem. Phys.
     2020, 22, 8499-8512. DOI: 10.1039/D0CP00502A
   
   for sTDA-xTB:
   * S. Grimme and C. Bannwarth, J. Chem. Phys., 2016, 145, 054103.
     DOI: 10.1063/1.4959605
   
   in the mass-spec context:
   * V. Asgeirsson, C. Bauer and S. Grimme, Chem. Sci., 2017, 8, 4879.
     DOI: 10.1039/c7sc00601b
   * J. Koopman and S. Grimme, ACS Omega 2019, 4, 12, 15120-15133.
     DOI: 10.1021/acsomega.9b02011
   
   for metadynamics refer to:
   * S. Grimme, J. Chem. Theory Comput., 2019, 155, 2847-2862
     DOI: 10.1021/acs.jctc.9b00143
   
   for SPH calculations refer to:
   * S. Spicher and S. Grimme, J. Chem. Theory Comput., 2021, 17, 1701-1714
     DOI: 10.1021/acs.jctc.0c01306
   
   for ONIOM refer to:
   * C. Plett, A. Katbashev, S. Ehlert, S. Grimme, M. Bursch,
     Phys. Chem. Chem. Phys., 2023, 25, 17860-17868. DOI: 10.1039/D3CP02178E
   
   for DIPRO refer to:
   * J. Kohn, N. Gildemeister, S. Grimme, D. Fazzi, A. Hansen,
     J. Chem. Phys., 2023, just accepted.
   
   for PTB refer to:
   * S. Grimme, M. Mueller, A. Hansen, J. Chem. Phys., 2023, 158, 124111.
     DOI: 10.1063/5.0137838
   
   with help from (in alphabetical order)
   P. Atkinson, C. Bannwarth, F. Bohle, G. Brandenburg, E. Caldeweyher
   M. Checinski, S. Dohm, S. Ehlert, S. Ehrlich, I. Gerasimov, C. Hölzer
   A. Katbashev, J. Kohn, J. Koopman, C. Lavigne, S. Lehtola, F. März, M. Müller,
   F. Musil, H. Neugebauer, J. Pisarek, C. Plett, P. Pracht, F. Pultar,
   J. Seibert, P. Shushkov, S. Spicher, M. Stahn, M. Steiner, T. Strunk,
   J. Stückrath, T. Rose, and J. Unsleber
   
 * started run on 2025/04/06 at 02:06:00.363     
   ID    Z sym.   atoms
    1    6 C      1-8, 11, 12
    2    8 O      9
    3    7 N      10
    4    1 H      13-25

           -------------------------------------------------
          |                Calculation Setup                |
           -------------------------------------------------

          program call               : /srv/scratch/z5358697/.xtb/bin/xtb xtb_rrho.coord --gfn2 --ohess vtight --chrg 0 --enso --norestart -I rrho-xcontrol-inp --parallel 1 --alpb water
          hostname                   : k146
          coordinate file            : xtb_rrho.coord
          omp threads                :                     1


           -------------------------------------------------
          |                 G F N 2 - x T B                 |
           -------------------------------------------------

        Reference                      10.1021/acs.jctc.8b01176
      * Hamiltonian:
        H0-scaling (s, p, d)           1.850000    2.230000    2.230000
        zeta-weighting                 0.500000
      * Dispersion:
        s8                             2.700000
        a1                             0.520000
        a2                             5.000000
        s9                             5.000000
      * Repulsion:
        kExp                           1.500000    1.000000
        rExp                           1.000000
      * Coulomb:
        alpha                          2.000000
        third order                    shell-resolved
        anisotropic                    true
        a3                             3.000000
        a5                             4.000000
        cn-shift                       1.200000
        cn-exp                         4.000000
        max-rad                        5.000000

      * Solvation model:               ALPB
        Solvent                        water
        Parameter file                 internal GFN2-xTB/ALPB
        Dielectric constant                8.0200E+01
        Reference state                gsolv [1 M gas/solution]
        Free energy shift                  1.0808E-03 Eh       6.7819E-01 kcal/mol
        Temperature                        2.9815E+02 K
        Density                            1.0000E+00 kg/L
        Solvent mass                       1.8000E+01 g/mol
        Interaction kernel             P16
        Born radius scaling (c1)           1.4744E+00
        Born radii integrator          GBOBC
        Born offset                        0.0000E+00 a0       0.0000E+00 AA
        H-bond correction              true
        Ion screening                  false
        Surface tension                    1.0000E-05 Eh       1.5569E+01 dyn/cm
        Grid points                               974 per atom

          ...................................................
          :                      SETUP                      :
          :.................................................:
          :  # basis functions                  61          :
          :  # atomic orbitals                  61          :
          :  # shells                           37          :
          :  # electrons                        64          :
          :  max. iterations                   250          :
          :  Hamiltonian                  GFN2-xTB          :
          :  restarted?                      false          :
          :  GBSA solvation                   true          :
          :  PC potential                    false          :
          :  electronic temp.          300.0000000     K    :
          :  accuracy                    1.0000000          :
          :  -> integral cutoff          0.2500000E+02      :
          :  -> integral neglect         0.1000000E-07      :
          :  -> SCF convergence          0.1000000E-05 Eh   :
          :  -> wf. convergence          0.1000000E-03 e    :
          :  Broyden damping             0.4000000          :
          :  net charge                          0          :
          :  unpaired electrons                  0          :
          ...................................................

 iter      E             dE          RMSdq      gap      omega  full diag
   1    -35.4937699 -0.354938E+02  0.399E+00    3.63       0.0  T
   2    -35.5575597 -0.637898E-01  0.232E+00    3.89       1.0  T
   3    -35.5581240 -0.564304E-03  0.101E+00    3.78       1.0  T
   4    -35.5597845 -0.166055E-02  0.356E-01    3.80       1.0  T
   5    -35.5618505 -0.206594E-02  0.865E-02    3.82       1.0  T
   6    -35.5618804 -0.299698E-04  0.413E-02    3.83       1.0  T
   7    -35.5618880 -0.753738E-05  0.192E-02    3.84       1.0  T
   8    -35.5618896 -0.160848E-05  0.480E-03    3.84       4.2  T
   9    -35.5618898 -0.196323E-06  0.217E-03    3.84       9.2  T
  10    -35.5618898 -0.115675E-07  0.117E-03    3.84      17.1  T
  11    -35.5618898 -0.768802E-08  0.300E-04    3.84      66.6  T
  12    -35.5618898 -0.579213E-09  0.165E-04    3.84     121.0  T

   *** convergence criteria satisfied after 12 iterations ***

         #    Occupation            Energy/Eh            Energy/eV
      -------------------------------------------------------------
         1        2.0000           -0.6918451             -18.8261
       ...           ...                  ...                  ...
        26        2.0000           -0.4554699             -12.3940
        27        2.0000           -0.4385433             -11.9334
        28        2.0000           -0.4219870             -11.4829
        29        2.0000           -0.4059280             -11.0459
        30        2.0000           -0.3989367             -10.8556
        31        2.0000           -0.3893758             -10.5955
        32        2.0000           -0.3883418             -10.5673 (HOMO)
        33                         -0.2473512              -6.7308 (LUMO)
        34                         -0.2267394              -6.1699
        35                         -0.1923396              -5.2338
        36                         -0.0977593              -2.6602
        37                         -0.0149061              -0.4056
       ...                                ...                  ...
        61                          0.6316928              17.1892
      -------------------------------------------------------------
                  HL-Gap            0.1409906 Eh            3.8366 eV
             Fermi-level           -0.3178465 Eh           -8.6490 eV

 SCC (total)                   0 d,  0 h,  0 min,  0.031 sec
 SCC setup                      ...        0 min,  0.001 sec (  4.644%)
 Dispersion                     ...        0 min,  0.000 sec (  0.494%)
 classical contributions        ...        0 min,  0.000 sec (  0.112%)
 integral evaluation            ...        0 min,  0.002 sec (  7.660%)
 iterations                     ...        0 min,  0.020 sec ( 65.215%)
 molecular gradient             ...        0 min,  0.007 sec ( 21.448%)
 printout                       ...        0 min,  0.000 sec (  0.386%)

         :::::::::::::::::::::::::::::::::::::::::::::::::::::
         ::                     SUMMARY                     ::
         :::::::::::::::::::::::::::::::::::::::::::::::::::::
         :: total energy             -35.045821246681 Eh    ::
         :: total w/o Gsasa/hb       -35.044431959001 Eh    ::
         :: gradient norm              0.028231403523 Eh/a0 ::
         :: HOMO-LUMO gap              3.836550646937 eV    ::
         ::.................................................::
         :: SCC energy               -35.561872814000 Eh    ::
         :: -> isotropic ES            0.062450372544 Eh    ::
         :: -> anisotropic ES          0.002286536714 Eh    ::
         :: -> anisotropic XC          0.018217396795 Eh    ::
         :: -> dispersion             -0.021106694568 Eh    ::
         :: -> Gsolv                  -0.016767522953 Eh    ::
         ::    -> Gelec               -0.015378235273 Eh    ::
         ::    -> Gsasa               -0.000018452930 Eh    ::
         ::    -> Ghb                 -0.002451594449 Eh    ::
         ::    -> Gshift               0.001080759698 Eh    ::
         :: repulsion energy           0.516051567320 Eh    ::
         :: add. restraining           0.000000000000 Eh    ::
         :: total charge               0.000000000000 e     ::
         :::::::::::::::::::::::::::::::::::::::::::::::::::::

      ----------------------------------------------------------- 
     |                   =====================                   |
     |                        A N C O P T                        |
     |                   =====================                   |
     |               Approximate Normal Coordinate               |
     |                Rational Function Optimizer                |
      ----------------------------------------------------------- 
      ----------------------------------------------------------- 
     |                   =====================                   |
     |                        A N C O P T                        |
     |                   =====================                   |
     |               Approximate Normal Coordinate               |
     |                Rational Function Optimizer                |
      ----------------------------------------------------------- 

          ...................................................
          :                      SETUP                      :
          :.................................................:
          :   optimization level         verytight          :
          :   max. optcycles                   500          :
          :   ANC micro-cycles                  20          :
          :   degrees of freedom                69          :
          :.................................................:
          :   RF solver                   davidson          :
          :   write xtbopt.log                true          :
          :   linear?                        false          :
          :   energy convergence         0.1000000E-06 Eh   :
          :   grad. convergence          0.2000000E-03 Eh/α :
          :   maxmium RF displ.          1.0000000          :
          :   Hlow (freq-cutoff)         0.1000000E-01      :
          :   Hmax (freq-cutoff)         5.0000000          :
          :   S6 in model hess.         20.0000000          :
          ...................................................

generating ANC from exact Hessian ...
Using Lindh-Hessian (1995)
 Shifting diagonal of input Hessian by   9.037397473397707E-003
 Lowest  eigenvalues of input Hessian
    0.000000    0.000000    0.000000    0.000000    0.000000    0.000000
    0.010000    0.010611    0.011375    0.014412    0.017386    0.019030
    0.019373    0.022311    0.023405    0.024254    0.025427    0.030630
 Highest eigenvalues
    1.544923    1.824585    1.847643    1.911593    2.008344    2.200312
 

........................................................................
.............................. CYCLE    1 ..............................
........................................................................

 iter      E             dE          RMSdq      gap      omega  full diag
   1    -35.5618898 -0.355619E+02  0.511E-05    3.84       0.0  T
   2    -35.5618898 -0.144809E-10  0.324E-05    3.84     616.4  T
   3    -35.5618898 -0.280664E-11  0.212E-05    3.84     943.2  T
     SCC iter.                  ...        0 min,  0.002 sec
     gradient                   ...        0 min,  0.007 sec
 * total energy  :   -35.0458212 Eh     change       -0.1156124E-09 Eh
   gradient norm :     0.0282330 Eh/α   predicted     0.0000000E+00 (-100.00%)
   displ. norm   :     0.1619916 α      lambda       -0.2387293E-02
   maximum displ.:     0.0752471 α      in ANC's #18, #15, #11, ...

........................................................................
.............................. CYCLE    2 ..............................
........................................................................

 iter      E             dE          RMSdq      gap      omega  full diag
   1    -35.5831826 -0.355832E+02  0.110E-01    3.87       0.0  T
   2    -35.5832006 -0.179919E-04  0.666E-02    3.88       1.0  T
   3    -35.5831997  0.973008E-06  0.184E-02    3.89       1.1  T
   4    -35.5832026 -0.298951E-05  0.472E-03    3.88       4.2  T
   5    -35.5832028 -0.142839E-06  0.217E-03    3.88       9.2  T
   6    -35.5832028 -0.213162E-07  0.880E-04    3.88      22.7  T
   7    -35.5832028 -0.527452E-08  0.408E-04    3.88      49.0  T
     SCC iter.                  ...        0 min,  0.004 sec
     gradient                   ...        0 min,  0.006 sec
 * total energy  :   -35.0473232 Eh     change       -0.1501947E-02 Eh
   gradient norm :     0.0080547 Eh/α   predicted    -0.1225006E-02 ( -18.44%)
   displ. norm   :     0.1109742 α      lambda       -0.3533250E-03
   maximum displ.:     0.0467916 α      in ANC's #4, #7, #15, ...

........................................................................
.............................. CYCLE    3 ..............................
........................................................................

 iter      E             dE          RMSdq      gap      omega  full diag
   1    -35.5903832 -0.355904E+02  0.492E-02    3.90       0.0  T
   2    -35.5903867 -0.349858E-05  0.295E-02    3.90       1.0  T
   3    -35.5903866  0.821291E-07  0.770E-03    3.90       2.6  T
   4    -35.5903870 -0.383559E-06  0.191E-03    3.90      10.5  T
   5    -35.5903870 -0.325821E-07  0.937E-04    3.90      21.3  T
   6    -35.5903870 -0.358740E-08  0.412E-04    3.90      48.5  T
     SCC iter.                  ...        0 min,  0.003 sec
     gradient                   ...        0 min,  0.006 sec
 * total energy  :   -35.0475518 Eh     change       -0.2285638E-03 Eh
   gradient norm :     0.0026151 Eh/α   predicted    -0.1788897E-03 ( -21.73%)
   displ. norm   :     0.1182278 α      lambda       -0.1585208E-03
   maximum displ.:     0.0656755 α      in ANC's #7, #4, #6, ...

........................................................................
.............................. CYCLE    4 ..............................
........................................................................

 iter      E             dE          RMSdq      gap      omega  full diag
   1    -35.5922290 -0.355922E+02  0.434E-02    3.92       0.0  T
   2    -35.5922302 -0.120724E-05  0.254E-02    3.92       1.0  T
   3    -35.5922301  0.140890E-06  0.547E-03    3.92       3.7  T
   4    -35.5922304 -0.286207E-06  0.171E-03    3.92      11.7  T
   5    -35.5922304 -0.332365E-07  0.749E-04    3.92      26.7  T
   6    -35.5922304 -0.742382E-09  0.309E-04    3.92      64.8  T
     SCC iter.                  ...        0 min,  0.003 sec
     gradient                   ...        0 min,  0.006 sec
 * total energy  :   -35.0476808 Eh     change       -0.1290018E-03 Eh
   gradient norm :     0.0032182 Eh/α   predicted    -0.8046355E-04 ( -37.63%)
   displ. norm   :     0.2909301 α      lambda       -0.3166322E-03
   maximum displ.:     0.1753143 α      in ANC's #7, #6, #1, ...

........................................................................
.............................. CYCLE    5 ..............................
........................................................................

 iter      E             dE          RMSdq      gap      omega  full diag
   1    -35.5917930 -0.355918E+02  0.100E-01    3.96       0.0  T
   2    -35.5917963 -0.325192E-05  0.587E-02    3.96       1.0  T
   3    -35.5917948  0.148753E-05  0.125E-02    3.96       1.6  T
   4    -35.5917972 -0.239631E-05  0.332E-03    3.96       6.0  T
   5    -35.5917972 -0.763127E-07  0.170E-03    3.96      11.8  T
   6    -35.5917972 -0.241051E-08  0.547E-04    3.96      36.6  T
   7    -35.5917972 -0.338645E-08  0.225E-04    3.96      88.8  T
     SCC iter.                  ...        0 min,  0.003 sec
     gradient                   ...        0 min,  0.006 sec
 * total energy  :   -35.0479043 Eh     change       -0.2235891E-03 Eh
   gradient norm :     0.0064097 Eh/α   predicted    -0.1717178E-03 ( -23.20%)
   displ. norm   :     0.2614406 α      lambda       -0.2212399E-03
   maximum displ.:     0.1575536 α      in ANC's #7, #6, #1, ...

........................................................................
.............................. CYCLE    6 ..............................
........................................................................

 iter      E             dE          RMSdq      gap      omega  full diag
   1    -35.5895398 -0.355895E+02  0.857E-02    4.00       0.0  T
   2    -35.5895412 -0.132536E-05  0.506E-02    4.00       1.0  T
   3    -35.5895394  0.177590E-05  0.116E-02    4.00       1.7  T
   4    -35.5895419 -0.248555E-05  0.230E-03    4.00       8.7  T
   5    -35.5895419 -0.545854E-08  0.116E-03    4.00      17.3  T
   6    -35.5895419 -0.583417E-08  0.331E-04    4.00      60.3  T
   7    -35.5895419 -0.957911E-09  0.160E-04    4.00     125.3  T
     SCC iter.                  ...        0 min,  0.003 sec
     gradient                   ...        0 min,  0.006 sec
 * total energy  :   -35.0480609 Eh     change       -0.1565648E-03 Eh
   gradient norm :     0.0088242 Eh/α   predicted    -0.1181879E-03 ( -24.51%)
   displ. norm   :     0.2355118 α      lambda       -0.2671351E-03
   maximum displ.:     0.1242864 α      in ANC's #7, #6, #1, ...

........................................................................
.............................. CYCLE    7 ..............................
........................................................................

 iter      E             dE          RMSdq      gap      omega  full diag
   1    -35.5877677 -0.355878E+02  0.785E-02    4.04       0.0  T
   2    -35.5877690 -0.126953E-05  0.466E-02    4.04       1.0  T
   3    -35.5877671  0.185475E-05  0.111E-02    4.04       1.8  T
   4    -35.5877695 -0.240145E-05  0.191E-03    4.04      10.5  T
   5    -35.5877695 -0.135826E-07  0.110E-03    4.04      18.2  T
   6    -35.5877695 -0.233027E-08  0.338E-04    4.04      59.2  T
   7    -35.5877695 -0.100086E-08  0.119E-04    4.04     168.7  T
     SCC iter.                  ...        0 min,  0.003 sec
     gradient                   ...        0 min,  0.006 sec
 * total energy  :   -35.0482594 Eh     change       -0.1985359E-03 Eh
   gradient norm :     0.0070375 Eh/α   predicted    -0.1409827E-03 ( -28.99%)
   displ. norm   :     0.2408908 α      lambda       -0.2572557E-03
   maximum displ.:     0.1198594 α      in ANC's #6, #7, #1, ...

........................................................................
.............................. CYCLE    8 ..............................
........................................................................

 iter      E             dE          RMSdq      gap      omega  full diag
   1    -35.5877923 -0.355878E+02  0.809E-02    4.06       0.0  T
   2    -35.5877933 -0.101650E-05  0.474E-02    4.06       1.0  T
   3    -35.5877921  0.121846E-05  0.893E-03    4.06       2.2  T
   4    -35.5877937 -0.158334E-05  0.161E-03    4.06      12.4  T
   5    -35.5877937 -0.131528E-07  0.936E-04    4.06      21.4  T
   6    -35.5877937 -0.127622E-08  0.357E-04    4.06      56.0  T
     SCC iter.                  ...        0 min,  0.003 sec
     gradient                   ...        0 min,  0.006 sec
 * total energy  :   -35.0484411 Eh     change       -0.1816829E-03 Eh
   gradient norm :     0.0036577 Eh/α   predicted    -0.1360938E-03 ( -25.09%)
   displ. norm   :     0.2890791 α      lambda       -0.1575884E-03
   maximum displ.:     0.1530698 α      in ANC's #6, #7, #1, ...

........................................................................
.............................. CYCLE    9 ..............................
........................................................................

 iter      E             dE          RMSdq      gap      omega  full diag
   1    -35.5872039 -0.355872E+02  0.912E-02    4.09       0.0  T
   2    -35.5872055 -0.162924E-05  0.536E-02    4.09       1.0  T
   3    -35.5872047  0.767644E-06  0.806E-03    4.09       2.5  T
   4    -35.5872059 -0.111257E-05  0.212E-03    4.09       9.4  T
   5    -35.5872059 -0.408319E-07  0.109E-03    4.09      18.3  T
   6    -35.5872059 -0.357090E-09  0.417E-04    4.09      48.0  T
   7    -35.5872059 -0.206788E-08  0.116E-04    4.09     172.7  T
     SCC iter.                  ...        0 min,  0.003 sec
     gradient                   ...        0 min,  0.006 sec
 * total energy  :   -35.0485288 Eh     change       -0.8764535E-04 Eh
   gradient norm :     0.0059992 Eh/α   predicted    -0.8538973E-04 (  -2.57%)
   displ. norm   :     0.1734011 α      lambda       -0.1894068E-03
   maximum displ.:     0.0927481 α      in ANC's #3, #2, #6, ...

........................................................................
.............................. CYCLE   10 ..............................
........................................................................

 iter      E             dE          RMSdq      gap      omega  full diag
   1    -35.5922877 -0.355923E+02  0.720E-02    4.11       0.0  T
   2    -35.5922901 -0.245133E-05  0.418E-02    4.11       1.0  T
   3    -35.5922900  0.102645E-06  0.604E-03    4.11       3.3  T
   4    -35.5922904 -0.351995E-06  0.163E-03    4.11      12.3  T
   5    -35.5922904 -0.187119E-07  0.899E-04    4.11      22.2  T
   6    -35.5922904 -0.735213E-09  0.216E-04    4.11      92.6  T
     SCC iter.                  ...        0 min,  0.003 sec
     gradient                   ...        0 min,  0.006 sec
 * total energy  :   -35.0485654 Eh     change       -0.3659152E-04 Eh
   gradient norm :     0.0060985 Eh/α   predicted    -0.9757568E-04 ( 166.66%)
   displ. norm   :     0.1016186 α      lambda       -0.9615353E-04
   maximum displ.:     0.0581158 α      in ANC's #7, #6, #1, ...

........................................................................
.............................. CYCLE   11 ..............................
........................................................................

 iter      E             dE          RMSdq      gap      omega  full diag
   1    -35.5906118 -0.355906E+02  0.376E-02    4.11       0.0  T
   2    -35.5906123 -0.517473E-06  0.219E-02    4.11       1.0  T
   3    -35.5906121  0.216092E-06  0.479E-03    4.11       4.2  T
   4    -35.5906125 -0.347491E-06  0.119E-03    4.11      16.8  T
   5    -35.5906125 -0.708075E-08  0.652E-04    4.11      30.7  T
   6    -35.5906125 -0.634543E-09  0.272E-04    4.11      73.6  T
     SCC iter.                  ...        0 min,  0.003 sec
     gradient                   ...        0 min,  0.006 sec
 * total energy  :   -35.0486238 Eh     change       -0.5848108E-04 Eh
   gradient norm :     0.0030062 Eh/α   predicted    -0.4857335E-04 ( -16.94%)
   displ. norm   :     0.0628919 α      lambda       -0.2614923E-04
   maximum displ.:     0.0307969 α      in ANC's #7, #6, #2, ...

........................................................................
.............................. CYCLE   12 ..............................
........................................................................

 iter      E             dE          RMSdq      gap      omega  full diag
   1    -35.5907329 -0.355907E+02  0.227E-02    4.12       0.0  T
   2    -35.5907332 -0.319850E-06  0.133E-02    4.12       1.5  T
   3    -35.5907331  0.814376E-07  0.313E-03    4.12       6.4  T
   4    -35.5907333 -0.119274E-06  0.849E-04    4.12      23.6  T
   5    -35.5907333 -0.876091E-08  0.316E-04    4.12      63.2  T
     SCC iter.                  ...        0 min,  0.003 sec
     gradient                   ...        0 min,  0.006 sec
 * total energy  :   -35.0486423 Eh     change       -0.1847879E-04 Eh
   gradient norm :     0.0019332 Eh/α   predicted    -0.1312703E-04 ( -28.96%)
   displ. norm   :     0.1072148 α      lambda       -0.1854007E-04
   maximum displ.:     0.0508593 α      in ANC's #2, #7, #6, ...

........................................................................
.............................. CYCLE   13 ..............................
........................................................................

 iter      E             dE          RMSdq      gap      omega  full diag
   1    -35.5913275 -0.355913E+02  0.381E-02    4.13       0.0  T
   2    -35.5913278 -0.285033E-06  0.223E-02    4.13       1.0  T
   3    -35.5913275  0.260055E-06  0.424E-03    4.13       4.7  T
   4    -35.5913279 -0.340189E-06  0.823E-04    4.13      24.3  T
   5    -35.5913279 -0.379678E-08  0.415E-04    4.13      48.1  T
     SCC iter.                  ...        0 min,  0.003 sec
     gradient                   ...        0 min,  0.006 sec
 * total energy  :   -35.0486537 Eh     change       -0.1136046E-04 Eh
   gradient norm :     0.0015032 Eh/α   predicted    -0.9317662E-05 ( -17.98%)
   displ. norm   :     0.0481861 α      lambda       -0.5978638E-05
   maximum displ.:     0.0248532 α      in ANC's #7, #6, #2, ...

........................................................................
.............................. CYCLE   14 ..............................
........................................................................

 iter      E             dE          RMSdq      gap      omega  full diag
   1    -35.5913916 -0.355914E+02  0.164E-02    4.13       0.0  T
   2    -35.5913921 -0.446004E-06  0.955E-03    4.13       2.1  T
   3    -35.5913921  0.123930E-07  0.326E-03    4.13       6.1  T
   4    -35.5913921 -0.500497E-07  0.487E-04    4.13      41.1  T
   5    -35.5913921 -0.287142E-08  0.237E-04    4.13      84.3  T
     SCC iter.                  ...        0 min,  0.003 sec
     gradient                   ...        0 min,  0.006 sec
 * total energy  :   -35.0486571 Eh     change       -0.3413221E-05 Eh
   gradient norm :     0.0014461 Eh/α   predicted    -0.3001293E-05 ( -12.07%)
   displ. norm   :     0.0159701 α      lambda       -0.3251222E-05
   maximum displ.:     0.0079694 α      in ANC's #6, #1, #11, ...

........................................................................
.............................. CYCLE   15 ..............................
........................................................................

 iter      E             dE          RMSdq      gap      omega  full diag
   1    -35.5914611 -0.355915E+02  0.698E-03    4.13       0.0  T
   2    -35.5914612 -0.154729E-06  0.402E-03    4.13       5.0  T
   3    -35.5914612 -0.644447E-08  0.174E-03    4.13      11.5  T
   4    -35.5914612 -0.934950E-08  0.424E-04    4.13      47.2  T
   5    -35.5914612 -0.138404E-08  0.176E-04    4.13     113.5  T
     SCC iter.                  ...        0 min,  0.003 sec
     gradient                   ...        0 min,  0.006 sec
 * total energy  :   -35.0486595 Eh     change       -0.2401946E-05 Eh
   gradient norm :     0.0004585 Eh/α   predicted    -0.1626063E-05 ( -32.30%)
   displ. norm   :     0.0171579 α      lambda       -0.1292636E-05
   maximum displ.:     0.0118724 α      in ANC's #3, #1, #6, ...

........................................................................
.............................. CYCLE   16 ..............................
........................................................................

 iter      E             dE          RMSdq      gap      omega  full diag
   1    -35.5914352 -0.355914E+02  0.541E-03    4.13       0.0  T
   2    -35.5914352 -0.216052E-08  0.318E-03    4.13       6.3  T
   3    -35.5914352 -0.494779E-09  0.185E-04    4.13     108.2  T
   4    -35.5914352 -0.312404E-09  0.970E-05    4.13     206.2  T
     SCC iter.                  ...        0 min,  0.002 sec
     gradient                   ...        0 min,  0.006 sec
 * total energy  :   -35.0486611 Eh     change       -0.1560799E-05 Eh
   gradient norm :     0.0003437 Eh/α   predicted    -0.6501073E-06 ( -58.35%)
   displ. norm   :     0.0453962 α      lambda       -0.3031051E-05
   maximum displ.:     0.0276179 α      in ANC's #7, #3, #2, ...

........................................................................
.............................. CYCLE   17 ..............................
........................................................................

 iter      E             dE          RMSdq      gap      omega  full diag
   1    -35.5912903 -0.355913E+02  0.108E-02    4.12       0.0  T
   2    -35.5912903 -0.254285E-07  0.635E-03    4.12       3.1  T
   3    -35.5912903 -0.891205E-09  0.579E-04    4.12      34.5  T
   4    -35.5912903 -0.250834E-08  0.234E-04    4.12      85.4  T
     SCC iter.                  ...        0 min,  0.002 sec
     gradient                   ...        0 min,  0.006 sec
 * total energy  :   -35.0486640 Eh     change       -0.2956838E-05 Eh
   gradient norm :     0.0005002 Eh/α   predicted    -0.1521889E-05 ( -48.53%)
   displ. norm   :     0.0393284 α      lambda       -0.1855122E-05
   maximum displ.:     0.0226061 α      in ANC's #7, #3, #1, ...

........................................................................
.............................. CYCLE   18 ..............................
........................................................................

 iter      E             dE          RMSdq      gap      omega  full diag
   1    -35.5914388 -0.355914E+02  0.104E-02    4.12       0.0  T
   2    -35.5914388 -0.219849E-07  0.612E-03    4.12       3.3  T
   3    -35.5914388  0.868278E-08  0.980E-04    4.12      20.4  T
   4    -35.5914388 -0.149643E-07  0.255E-04    4.12      78.5  T
     SCC iter.                  ...        0 min,  0.002 sec
     gradient                   ...        0 min,  0.006 sec
 * total energy  :   -35.0486658 Eh     change       -0.1737510E-05 Eh
   gradient norm :     0.0005818 Eh/α   predicted    -0.9295667E-06 ( -46.50%)
   displ. norm   :     0.0311098 α      lambda       -0.1386374E-05
   maximum displ.:     0.0193364 α      in ANC's #7, #3, #1, ...

........................................................................
.............................. CYCLE   19 ..............................
........................................................................

 iter      E             dE          RMSdq      gap      omega  full diag
   1    -35.5913840 -0.355914E+02  0.906E-03    4.12       0.0  T
   2    -35.5913840 -0.155243E-07  0.533E-03    4.12       3.8  T
   3    -35.5913840  0.118983E-07  0.963E-04    4.12      20.8  T
   4    -35.5913840 -0.156853E-07  0.208E-04    4.12      96.2  T
     SCC iter.                  ...        0 min,  0.002 sec
     gradient                   ...        0 min,  0.006 sec
 * total energy  :   -35.0486672 Eh     change       -0.1412628E-05 Eh
   gradient norm :     0.0004924 Eh/α   predicted    -0.6950855E-06 ( -50.79%)
   displ. norm   :     0.0215396 α      lambda       -0.9898478E-06
   maximum displ.:     0.0108581 α      in ANC's #7, #4, #1, ...

........................................................................
.............................. CYCLE   20 ..............................
........................................................................

 iter      E             dE          RMSdq      gap      omega  full diag
   1    -35.5913407 -0.355913E+02  0.780E-03    4.12       0.0  T
   2    -35.5913408 -0.911304E-08  0.460E-03    4.12       4.4  T
   3    -35.5913407  0.113414E-07  0.878E-04    4.12      22.8  T
   4    -35.5913408 -0.149989E-07  0.157E-04    4.12     127.7  T
     SCC iter.                  ...        0 min,  0.002 sec
     gradient                   ...        0 min,  0.006 sec
 * total energy  :   -35.0486681 Eh     change       -0.9614099E-06 Eh
   gradient norm :     0.0002759 Eh/α   predicted    -0.4968255E-06 ( -48.32%)
   displ. norm   :     0.0146354 α      lambda       -0.5094366E-06
   maximum displ.:     0.0078635 α      in ANC's #2, #1, #4, ...
 * RMSD in coord.:     0.3766253 α      energy gain  -0.2846886E-02 Eh

generating ANC from exact Hessian ...
Using Lindh-Hessian (1995)
 Shifting diagonal of input Hessian by   8.964258676787084E-003
 Lowest  eigenvalues of input Hessian
    0.000000    0.000000    0.000000    0.000000    0.000000    0.000000
    0.010000    0.010515    0.011255    0.014618    0.017812    0.019876
    0.020209    0.022986    0.024439    0.025215    0.025706    0.031729
 Highest eigenvalues
    1.598485    1.889851    1.891194    1.967766    2.061479    2.276879
 

........................................................................
.............................. CYCLE   21 ..............................
........................................................................

 iter      E             dE          RMSdq      gap      omega  full diag
   1    -35.5913835 -0.355914E+02  0.598E-03    4.11       0.0  T
   2    -35.5913835 -0.435361E-08  0.350E-03    4.11       5.7  T
   3    -35.5913835  0.470223E-08  0.584E-04    4.11      34.2  T
   4    -35.5913835 -0.637153E-08  0.111E-04    4.11     181.0  T
     SCC iter.                  ...        0 min,  0.002 sec
     gradient                   ...        0 min,  0.006 sec
 * total energy  :   -35.0486687 Eh     change       -0.5216973E-06 Eh
   gradient norm :     0.0001798 Eh/α   predicted     0.0000000E+00 (-100.00%)
   displ. norm   :     0.0072522 α      lambda       -0.3446202E-07
   maximum displ.:     0.0054456 α      in ANC's #2, #3, #6, ...

........................................................................
.............................. CYCLE   22 ..............................
........................................................................

 iter      E             dE          RMSdq      gap      omega  full diag
   1    -35.5913530 -0.355914E+02  0.298E-03    4.11       0.0  T
   2    -35.5913530 -0.616794E-09  0.175E-03    4.11      11.4  T
   3    -35.5913530 -0.112145E-09  0.994E-05    4.11     201.1  T
   4    -35.5913530 -0.924487E-10  0.495E-05    4.11     403.8  T
     SCC iter.                  ...        0 min,  0.002 sec
     gradient                   ...        0 min,  0.006 sec
 * total energy  :   -35.0486691 Eh     change       -0.4361800E-06 Eh
   gradient norm :     0.0000840 Eh/α   predicted    -0.1839517E-06 ( -57.83%)
   displ. norm   :     0.0148850 α      lambda       -0.4473744E-06
   maximum displ.:     0.0107153 α      in ANC's #2, #6, #3, ...

........................................................................
.............................. CYCLE   23 ..............................
........................................................................

 iter      E             dE          RMSdq      gap      omega  full diag
   1    -35.5913401 -0.355913E+02  0.564E-03    4.11       0.0  T
   2    -35.5913401 -0.111658E-08  0.332E-03    4.11       6.0  T
   3    -35.5913401  0.943530E-10  0.178E-04    4.11     112.2  T
   4    -35.5913401 -0.512713E-09  0.637E-05    4.11     313.8  T
     SCC iter.                  ...        0 min,  0.002 sec
     gradient                   ...        0 min,  0.006 sec
 * total energy  :   -35.0486697 Eh     change       -0.6077326E-06 Eh
   gradient norm :     0.0001507 Eh/α   predicted    -0.2571696E-06 ( -57.68%)
   displ. norm   :     0.0198452 α      lambda       -0.5066295E-06
   maximum displ.:     0.0134435 α      in ANC's #2, #3, #6, ...

........................................................................
.............................. CYCLE   24 ..............................
........................................................................

 iter      E             dE          RMSdq      gap      omega  full diag
   1    -35.5913451 -0.355913E+02  0.759E-03    4.11       0.0  T
   2    -35.5913451 -0.160377E-08  0.446E-03    4.11       4.5  T
   3    -35.5913451  0.110553E-08  0.319E-04    4.11      62.6  T
   4    -35.5913451 -0.191697E-08  0.798E-05    4.11     250.7  T
     SCC iter.                  ...        0 min,  0.002 sec
     gradient                   ...        0 min,  0.006 sec
 * total energy  :   -35.0486703 Eh     change       -0.6140271E-06 Eh
   gradient norm :     0.0001722 Eh/α   predicted    -0.2541359E-06 ( -58.61%)
   displ. norm   :     0.0279530 α      lambda       -0.5850062E-06
   maximum displ.:     0.0184192 α      in ANC's #2, #3, #6, ...

........................................................................
.............................. CYCLE   25 ..............................
........................................................................

 iter      E             dE          RMSdq      gap      omega  full diag
   1    -35.5913325 -0.355913E+02  0.109E-02    4.11       0.0  T
   2    -35.5913325 -0.419099E-08  0.638E-03    4.11       3.1  T
   3    -35.5913325  0.564073E-08  0.628E-04    4.11      31.8  T
   4    -35.5913325 -0.779419E-08  0.119E-04    4.11     168.3  T
     SCC iter.                  ...        0 min,  0.002 sec
     gradient                   ...        0 min,  0.006 sec
 * total energy  :   -35.0486710 Eh     change       -0.6770695E-06 Eh
   gradient norm :     0.0001362 Eh/α   predicted    -0.2948516E-06 ( -56.45%)
   displ. norm   :     0.0348312 α      lambda       -0.5307506E-06
   maximum displ.:     0.0220125 α      in ANC's #2, #3, #6, ...

........................................................................
.............................. CYCLE   26 ..............................
........................................................................

 iter      E             dE          RMSdq      gap      omega  full diag
   1    -35.5913273 -0.355913E+02  0.139E-02    4.11       0.0  T
   2    -35.5913273 -0.802892E-08  0.818E-03    4.11       2.4  T
   3    -35.5913273  0.120503E-07  0.913E-04    4.11      21.9  T
   4    -35.5913273 -0.162459E-07  0.164E-04    4.11     121.6  T
     SCC iter.                  ...        0 min,  0.002 sec
     gradient                   ...        0 min,  0.006 sec
 * total energy  :   -35.0486715 Eh     change       -0.5073466E-06 Eh
   gradient norm :     0.0000987 Eh/α   predicted    -0.2662306E-06 ( -47.52%)
   displ. norm   :     0.0128741 α      lambda       -0.1572245E-06
   maximum displ.:     0.0078390 α      in ANC's #3, #2, #4, ...

........................................................................
.............................. CYCLE   27 ..............................
........................................................................

 iter      E             dE          RMSdq      gap      omega  full diag
   1    -35.5913365 -0.355913E+02  0.565E-03    4.11       0.0  T
   2    -35.5913365 -0.192054E-08  0.331E-03    4.11       6.0  T
   3    -35.5913365  0.329904E-08  0.478E-04    4.11      41.9  T
   4    -35.5913365 -0.429495E-08  0.762E-05    4.11     262.5  T
     SCC iter.                  ...        0 min,  0.002 sec
     gradient                   ...        0 min,  0.006 sec
 * total energy  :   -35.0486717 Eh     change       -0.1789513E-06 Eh
   gradient norm :     0.0000483 Eh/α   predicted    -0.7943310E-07 ( -55.61%)
   displ. norm   :     0.0081771 α      lambda       -0.1266408E-06
   maximum displ.:     0.0058176 α      in ANC's #3, #4, #5, ...

........................................................................
.............................. CYCLE   28 ..............................
........................................................................

 iter      E             dE          RMSdq      gap      omega  full diag
   1    -35.5913393 -0.355913E+02  0.377E-03    4.10       0.0  T
   2    -35.5913393 -0.124275E-08  0.220E-03    4.10       9.1  T
   3    -35.5913393  0.211395E-08  0.384E-04    4.10      52.1  T
   4    -35.5913393 -0.276566E-08  0.583E-05    4.10     343.3  T
     SCC iter.                  ...        0 min,  0.002 sec
     gradient                   ...        0 min,  0.006 sec
 * total energy  :   -35.0486718 Eh     change       -0.1455640E-06 Eh
   gradient norm :     0.0000471 Eh/α   predicted    -0.6588916E-07 ( -54.74%)
   displ. norm   :     0.0069749 α      lambda       -0.8141120E-07
   maximum displ.:     0.0052939 α      in ANC's #3, #5, #4, ...

........................................................................
.............................. CYCLE   29 ..............................
........................................................................

 iter      E             dE          RMSdq      gap      omega  full diag
   1    -35.5913320 -0.355913E+02  0.307E-03    4.10       0.0  T
   2    -35.5913320 -0.788020E-09  0.180E-03    4.10      11.1  T
   3    -35.5913320  0.130210E-08  0.305E-04    4.10      65.7  T
   4    -35.5913320 -0.172329E-08  0.485E-05    4.10     412.2  T
     SCC iter.                  ...        0 min,  0.002 sec
     gradient                   ...        0 min,  0.006 sec
 * total energy  :   -35.0486719 Eh     change       -0.1011513E-06 Eh
   gradient norm :     0.0000701 Eh/α   predicted    -0.4224448E-07 ( -58.24%)
   displ. norm   :     0.0070733 α      lambda       -0.7595810E-07
   maximum displ.:     0.0055073 α      in ANC's #3, #5, #6, ...

........................................................................
.............................. CYCLE   30 ..............................
........................................................................

 iter      E             dE          RMSdq      gap      omega  full diag
   1    -35.5913282 -0.355913E+02  0.294E-03    4.10       0.0  T
   2    -35.5913282 -0.791573E-09  0.172E-03    4.10      11.6  T
   3    -35.5913282  0.119481E-08  0.293E-04    4.10      68.3  T
   4    -35.5913282 -0.157432E-08  0.483E-05    4.10     414.4  T
     SCC iter.                  ...        0 min,  0.002 sec
     gradient                   ...        0 min,  0.006 sec
 * total energy  :   -35.0486720 Eh     change       -0.1103132E-06 Eh
   gradient norm :     0.0000675 Eh/α   predicted    -0.4247944E-07 ( -61.49%)
   displ. norm   :     0.0081938 α      lambda       -0.9758904E-07
   maximum displ.:     0.0061508 α      in ANC's #3, #5, #6, ...

........................................................................
.............................. CYCLE   31 ..............................
........................................................................

 iter      E             dE          RMSdq      gap      omega  full diag
   1    -35.5913263 -0.355913E+02  0.338E-03    4.10       0.0  T
   2    -35.5913263 -0.106850E-08  0.199E-03    4.10      10.1  T
   3    -35.5913263  0.110274E-08  0.295E-04    4.10      67.8  T
   4    -35.5913263 -0.156933E-08  0.630E-05    4.10     317.4  T
     SCC iter.                  ...        0 min,  0.002 sec
     gradient                   ...        0 min,  0.006 sec
 * total energy  :   -35.0486722 Eh     change       -0.1186703E-06 Eh
   gradient norm :     0.0000442 Eh/α   predicted    -0.5006829E-07 ( -57.81%)
   displ. norm   :     0.0107360 α      lambda       -0.8458858E-07
   maximum displ.:     0.0081115 α      in ANC's #3, #5, #6, ...

........................................................................
.............................. CYCLE   32 ..............................
........................................................................

 iter      E             dE          RMSdq      gap      omega  full diag
   1    -35.5913198 -0.355913E+02  0.461E-03    4.10       0.0  T
   2    -35.5913198 -0.196079E-08  0.271E-03    4.10       7.4  T
   3    -35.5913198  0.223753E-08  0.413E-04    4.10      48.4  T
   4    -35.5913198 -0.311655E-08  0.850E-05    4.10     235.3  T
     SCC iter.                  ...        0 min,  0.002 sec
     gradient                   ...        0 min,  0.006 sec
 * total energy  :   -35.0486722 Eh     change       -0.8193882E-07 Eh
   gradient norm :     0.0000240 Eh/α   predicted    -0.4402301E-07 ( -46.27%)
   displ. norm   :     0.0067437 α      lambda        0.3017640E-07
   maximum displ.:     0.0051940 α      in ANC's #3, #5, #6, ...

   *** GEOMETRY OPTIMIZATION CONVERGED AFTER 32 ITERATIONS ***

------------------------------------------------------------------------
 total energy gain   :        -0.0028510 Eh       -1.7890 kcal/mol
 total RMSD          :         0.3713577 a0        0.1965 Å
 total power (kW/mol):        -0.2339146 (step)  -18.2286 (real)
------------------------------------------------------------------------

 ANCopt (total)                0 d,  0 h,  0 min,  0.411 sec
 optimizer setup                ...        0 min,  0.000 sec (  0.076%)
 model hessian                  ...        0 min,  0.010 sec (  2.436%)
 ANC generation                 ...        0 min,  0.001 sec (  0.220%)
 coordinate transformation      ...        0 min,  0.000 sec (  0.041%)
 single point calculation       ...        0 min,  0.390 sec ( 94.852%)
 optimization log               ...        0 min,  0.007 sec (  1.772%)
 hessian update                 ...        0 min,  0.000 sec (  0.043%)
 rational function              ...        0 min,  0.001 sec (  0.311%)

================
 final structure:
================
$coord
       -8.00376658625491       -0.55743720324338       -0.27391381365104      C
       -5.20894621727081       -0.13772110120241       -0.14819728547169      C
       -3.69350533921722       -1.59675054600487        1.42500496399476      C
       -1.10546421325542       -1.24768922063493        1.50145938278857      C
        0.02535864078198        0.58862216610013       -0.00155335799932      C
       -1.48361519800751        2.08706858990980       -1.54364956303300      C
       -4.06615081177630        1.70863841496451       -1.62864860648294      C
        2.79126698418296        1.12153577051364        0.17018979815342      C
        3.53696889737087        3.21754764106293        0.88887466822731      O
        4.39043031991046       -0.74115144913731       -0.45393123567152      N
        7.08839216037732       -0.38330240518007       -0.19040206233225      C
        3.65072302279691       -3.15291736517111       -1.49784976736708      C
       -8.99458704349371        1.22210525177785       -0.54104547195655      H
       -8.45285035648185       -1.77960669356530       -1.86907286403198      H
       -8.68695919649313       -1.45927802477321        1.43939620866987      H
       -4.54909627290743       -3.02212468235939        2.60846713462689      H
        0.04128472325272       -2.38172629005058        2.75125691140637      H
       -0.60988446473127        3.54629163869447       -2.67284983326216      H
       -5.21353027828892        2.87347964254667       -2.84999306597369      H
        8.00235496957070       -0.45411136655835       -2.03683989939915      H
        7.87163985515850       -1.85914698769383        1.01508503168775      H
        7.41827190372687        1.45793040817000        0.66364092103285      H
        1.66702530857796       -3.13372684166629       -2.02282396159640      H
        3.98039368119097       -4.65758501900018       -0.12504922842823      H
        4.78861393101621       -3.53120565321795       -3.17429673010729      H
$end
 
 Bond Distances (Angstroems)
 ---------------------------
C1-C2=1.4970         C1-H13=1.0871        C1-H14=1.0896        C1-H15=1.0865        C2-C1=1.4970         C2-C3=1.3901         
C2-C7=1.3907         C3-C2=1.3901         C3-C4=1.3825         C3-H16=1.0799        C4-C3=1.3825         C4-C5=1.3910         
C4-H17=1.0797        C5-C4=1.3910         C5-C6=1.3901         C5-C8=1.4933         C6-C5=1.3901         C6-C7=1.3819         
C6-H18=1.0803        C7-C2=1.3907         C7-C6=1.3819         C7-H19=1.0800        C8-C5=1.4933         C8-O9=1.2372         
C8-N10=1.3404        O9-C8=1.2372         N10-C8=1.3404        N10-C11=1.4469       N10-C12=1.4447       C11-N10=1.4469       
C11-H20=1.0909       C11-H21=1.0903       C11-H22=1.0881       C12-N10=1.4447       C12-H23=1.0859       C12-H24=1.0919       
C12-H25=1.0907       H13-C1=1.0871        H14-C1=1.0896        H15-C1=1.0865        H16-C3=1.0799        H17-C4=1.0797        
H18-C6=1.0803        H19-C7=1.0800        H20-C11=1.0909       H21-C11=1.0903       H22-C11=1.0881       H23-C12=1.0859       
H24-C12=1.0919       H25-C12=1.0907       
 C  H  Rav=1.0862 sigma=0.0045  Rmin=1.0797  Rmax=1.0919    13
 C  C  Rav=1.4146 sigma=0.0467  Rmin=1.3819  Rmax=1.4970     8
 N  C  Rav=1.4107 sigma=0.0497  Rmin=1.3404  Rmax=1.4469     3
 O  C  Rav=1.2372 sigma=0.0000  Rmin=1.2372  Rmax=1.2372     1
 
 selected bond angles (degree)
 --------------------
H13-C1-C2=110.72               H14-C1-C2=109.75               H14-C1-H13=107.95              H15-C1-C2=110.91               
H15-C1-H13=109.18              H15-C1-H14=108.25              C3-C2-C1=120.94                C7-C2-C1=120.58                
C7-C2-C3=118.47                C4-C3-C2=120.98                H16-C3-C2=119.56               H16-C3-C4=119.45               
C5-C4-C3=120.18                H17-C4-C3=120.03               H17-C4-C5=119.78               C6-C5-C4=119.15                
C8-C5-C4=121.25                C8-C5-C6=119.41                C7-C6-C5=120.30                H18-C6-C5=119.12               
H18-C6-C7=120.58               C6-C7-C2=120.90                H19-C7-C2=119.58               H19-C7-C6=119.52               
O9-C8-C5=120.04                N10-C8-C5=117.70               N10-C8-O9=122.25               C11-N10-C8=120.19              
C12-N10-C8=124.94              C12-N10-C11=114.82             
 
 selected dihedral angles (degree)
 ---------------------------------
C3-C2-C1-H13=144.78           C3-C2-C1-H14=263.86           C3-C2-C1-H15= 23.42           C7-C2-C1-H13=324.08           
C7-C2-C1-H14= 83.16           C7-C2-C1-H15=202.72           C4-C3-C2-C1=178.58            C4-C3-C2-C7=359.26            
H16-C3-C2-C1=358.46           H16-C3-C2-C7=179.14           C5-C4-C3-C2=  0.20            C5-C4-C3-H16=180.32           
H17-C4-C3-C2=179.25           H17-C4-C3-H16=359.36          C6-C5-C4-C3=  1.02            C6-C5-C4-H17=181.97           
C8-C5-C4-C3=175.88            C8-C5-C4-H17=356.83           C7-C6-C5-C4=358.31            C7-C6-C5-C8=183.35            
H18-C6-C5-C4=178.37           H18-C6-C5-C8=  3.41           C6-C7-C2-C1=180.74            C6-C7-C2-C3=  0.06            
H19-C7-C2-C1=  1.26           H19-C7-C2-C3=180.58           C2-C7-C6-C5=  1.16            C2-C7-C6-H18=181.10           
H19-C7-C6-C5=180.65           H19-C7-C6-H18=  0.58          O9-C8-C5-C4=243.69            O9-C8-C5-C6= 58.54            
N10-C8-C5-C4= 63.10           N10-C8-C5-C6=237.96           C11-N10-C8-C5=183.45          C11-N10-C8-O9=  2.85          
C12-N10-C8-C5=  5.88          C12-N10-C8-O9=185.28          
           -------------------------------------------------
          |                Final Singlepoint                |
           -------------------------------------------------

          ...................................................
          :                      SETUP                      :
          :.................................................:
          :  # basis functions                  61          :
          :  # atomic orbitals                  61          :
          :  # shells                           37          :
          :  # electrons                        64          :
          :  max. iterations                   250          :
          :  Hamiltonian                  GFN2-xTB          :
          :  restarted?                      false          :
          :  GBSA solvation                   true          :
          :  PC potential                    false          :
          :  electronic temp.          300.0000000     K    :
          :  accuracy                    1.0000000          :
          :  -> integral cutoff          0.2500000E+02      :
          :  -> integral neglect         0.1000000E-07      :
          :  -> SCF convergence          0.1000000E-05 Eh   :
          :  -> wf. convergence          0.1000000E-03 e    :
          :  Broyden damping             0.4000000          :
          :  net charge                          0          :
          :  unpaired electrons                  0          :
          ...................................................

 iter      E             dE          RMSdq      gap      omega  full diag
   1    -35.5913198 -0.355913E+02  0.460E-05    4.10       0.0  T
   2    -35.5913198 -0.424194E-11  0.297E-05    4.10     673.9  T
   3    -35.5913198 -0.312639E-12  0.175E-05    4.10    1141.6  T

   *** convergence criteria satisfied after 3 iterations ***

         #    Occupation            Energy/Eh            Energy/eV
      -------------------------------------------------------------
         1        2.0000           -0.6967760             -18.9602
       ...           ...                  ...                  ...
        26        2.0000           -0.4557351             -12.4012
        27        2.0000           -0.4395659             -11.9612
        28        2.0000           -0.4224007             -11.4941
        29        2.0000           -0.4073210             -11.0838
        30        2.0000           -0.3988755             -10.8540
        31        2.0000           -0.3903437             -10.6218
        32        2.0000           -0.3887124             -10.5774 (HOMO)
        33                         -0.2380572              -6.4779 (LUMO)
        34                         -0.2253516              -6.1321
        35                         -0.1959657              -5.3325
        36                         -0.0958673              -2.6087
        37                          0.0046821               0.1274
       ...                                ...                  ...
        61                          0.6540879              17.7986
      -------------------------------------------------------------
                  HL-Gap            0.1506552 Eh            4.0995 eV
             Fermi-level           -0.3133848 Eh           -8.5276 eV

 SCC (total)                   0 d,  0 h,  0 min,  0.012 sec
 SCC setup                      ...        0 min,  0.001 sec ( 11.065%)
 Dispersion                     ...        0 min,  0.000 sec (  0.650%)
 classical contributions        ...        0 min,  0.000 sec (  0.198%)
 integral evaluation            ...        0 min,  0.002 sec ( 19.740%)
 iterations                     ...        0 min,  0.002 sec ( 14.912%)
 molecular gradient             ...        0 min,  0.006 sec ( 52.494%)
 printout                       ...        0 min,  0.000 sec (  0.837%)

         :::::::::::::::::::::::::::::::::::::::::::::::::::::
         ::                     SUMMARY                     ::
         :::::::::::::::::::::::::::::::::::::::::::::::::::::
         :: total energy             -35.048672233830 Eh    ::
         :: total w/o Gsasa/hb       -35.047389651800 Eh    ::
         :: gradient norm              0.000024294930 Eh/a0 ::
         :: HOMO-LUMO gap              4.099537660877 eV    ::
         ::.................................................::
         :: SCC energy               -35.591291018050 Eh    ::
         :: -> isotropic ES            0.061109919405 Eh    ::
         :: -> anisotropic ES          0.001505570099 Eh    ::
         :: -> anisotropic XC          0.017508738532 Eh    ::
         :: -> dispersion             -0.021322035051 Eh    ::
         :: -> Gsolv                  -0.016007703572 Eh    ::
         ::    -> Gelec               -0.014725121542 Eh    ::
         ::    -> Gsasa                0.000099229610 Eh    ::
         ::    -> Ghb                 -0.002462571337 Eh    ::
         ::    -> Gshift               0.001080759698 Eh    ::
         :: repulsion energy           0.542618784220 Eh    ::
         :: add. restraining           0.000000000000 Eh    ::
         :: total charge               0.000000000000 e     ::
         :::::::::::::::::::::::::::::::::::::::::::::::::::::

           ------------------------------------------------- 
          |                Numerical Hessian                |
           ------------------------------------------------- 
step length          :   0.00500
SCC accuracy         :   0.30000
Hessian scale factor :   1.00000
frozen atoms in %    :   0.00000    0
RMS gradient         :   0.00002
estimated CPU  time      0.03 min
estimated wall time      0.03 min

writing file <hessian>.

 projected vibrational frequencies (cm⁻¹)
eigval :       -0.00    -0.00    -0.00     0.00     0.00     0.00
eigval :       10.58    38.83    69.30    79.37   132.14   144.98
eigval :      181.98   197.68   260.19   291.92   322.65   345.80
eigval :      367.15   387.95   423.88   540.02   573.62   599.97
eigval :      661.84   692.94   711.82   804.34   829.48   874.09
eigval :      914.80   926.36   933.95  1008.62  1014.86  1028.96
eigval :     1042.05  1085.68  1097.01  1121.57  1140.04  1193.00
eigval :     1213.44  1252.84  1260.97  1274.02  1318.56  1390.83
eigval :     1397.80  1398.29  1401.89  1427.65  1455.08  1460.29
eigval :     1467.11  1471.28  1473.76  1483.30  1496.93  1574.22
eigval :     1602.27  1608.83  2969.64  2979.28  2993.91  2997.01
eigval :     3004.75  3040.39  3040.61  3047.89  3058.09  3073.04
eigval :     3077.13  3084.87  3089.81
           -------------------------------------------------
          |                Property Printout                |
           -------------------------------------------------

    * Orbital Energies and Occupations

         #    Occupation            Energy/Eh            Energy/eV
      -------------------------------------------------------------
         1        2.0000           -0.6967760             -18.9602
       ...           ...                  ...                  ...
        20        2.0000           -0.4805787             -13.0772
        21        2.0000           -0.4801561             -13.0657
        22        2.0000           -0.4789370             -13.0325
        23        2.0000           -0.4777433             -13.0001
        24        2.0000           -0.4684724             -12.7478
        25        2.0000           -0.4589260             -12.4880
        26        2.0000           -0.4557351             -12.4012
        27        2.0000           -0.4395659             -11.9612
        28        2.0000           -0.4224007             -11.4941
        29        2.0000           -0.4073210             -11.0838
        30        2.0000           -0.3988755             -10.8540
        31        2.0000           -0.3903437             -10.6218
        32        2.0000           -0.3887124             -10.5774 (HOMO)
        33                         -0.2380572              -6.4779 (LUMO)
        34                         -0.2253516              -6.1321
        35                         -0.1959657              -5.3325
        36                         -0.0958673              -2.6087
        37                          0.0046821               0.1274
        38                          0.0775793               2.1110
        39                          0.1060139               2.8848
        40                          0.1263471               3.4381
        41                          0.1388267               3.7777
        42                          0.1542976               4.1987
        43                          0.1575704               4.2877
       ...                                ...                  ...
        61                          0.6540880              17.7986
      -------------------------------------------------------------
                  HL-Gap            0.1506552 Eh            4.0995 eV
             Fermi-level           -0.3133848 Eh           -8.5276 eV

     #   Z          covCN         q      C6AA      α(0)
     1   6 C        3.758    -0.127    22.987     6.835
     2   6 C        2.966     0.021    27.526     8.606
     3   6 C        2.924    -0.044    29.099     8.846
     4   6 C        2.920    -0.036    28.901     8.816
     5   6 C        2.974    -0.024    28.601     8.772
     6   6 C        2.922    -0.029    28.726     8.789
     7   6 C        2.924    -0.043    29.079     8.843
     8   6 C        2.770     0.262    22.584     7.783
     9   8 O        0.859    -0.555    25.042     6.709
    10   7 N        2.732    -0.075    22.688     7.074
    11   6 C        3.705    -0.063    21.857     6.684
    12   6 C        3.698    -0.070    22.014     6.711
    13   1 H        0.925     0.056     2.252     2.347
    14   1 H        0.925     0.066     2.125     2.280
    15   1 H        0.925     0.055     2.256     2.349
    16   1 H        0.926     0.048     2.340     2.392
    17   1 H        0.926     0.042     2.428     2.437
    18   1 H        0.926     0.031     2.574     2.509
    19   1 H        0.926     0.044     2.392     2.419
    20   1 H        0.924     0.067     2.114     2.274
    21   1 H        0.924     0.072     2.065     2.247
    22   1 H        0.925     0.074     2.038     2.233
    23   1 H        0.925     0.072     2.062     2.246
    24   1 H        0.924     0.075     2.035     2.231
    25   1 H        0.924     0.080     1.977     2.199

 Mol. C6AA /au·bohr⁶  :       6390.270280
 Mol. C8AA /au·bohr⁸  :     148742.768193
 Mol. α(0) /au        :        124.631277


Wiberg/Mayer (AO) data.
largest (>0.10) Wiberg bond orders for each atom

 ---------------------------------------------------------------------------
     #   Z sym  total        # sym  WBO       # sym  WBO       # sym  WBO
 ---------------------------------------------------------------------------
     1   6 C    3.994 --     2 C    1.030    15 H    0.982    13 H    0.978
                            14 H    0.963
     2   6 C    3.988 --     3 C    1.406     7 C    1.405     1 C    1.030
                             5 C    0.105
     3   6 C    3.990 --     4 C    1.451     2 C    1.406    16 H    0.967
                             6 C    0.107
     4   6 C    3.991 --     3 C    1.451     5 C    1.395    17 H    0.969
                             7 C    0.108
     5   6 C    3.987 --     6 C    1.399     4 C    1.395     8 C    0.974
                             2 C    0.105
     6   6 C    3.991 --     7 C    1.453     5 C    1.399    18 H    0.970
                             3 C    0.107
     7   6 C    3.990 --     6 C    1.453     2 C    1.405    19 H    0.968
                             4 C    0.108
     8   6 C    3.945 --     9 O    1.568    10 N    1.307     5 C    0.974
     9   8 O    1.896 --     8 C    1.568    10 N    0.196
    10   7 N    3.538 --     8 C    1.307    12 C    0.995    11 C    0.993
                             9 O    0.196
    11   6 C    3.960 --    10 N    0.993    22 H    0.977    21 H    0.974
                            20 H    0.974
    12   6 C    3.957 --    10 N    0.995    23 H    0.975    25 H    0.973
                            24 H    0.972
    13   1 H    0.996 --     1 C    0.978
    14   1 H    0.995 --     1 C    0.963
    15   1 H    0.997 --     1 C    0.982
    16   1 H    0.997 --     3 C    0.967
    17   1 H    0.998 --     4 C    0.969
    18   1 H    0.999 --     6 C    0.970
    19   1 H    0.998 --     7 C    0.968
    20   1 H    0.995 --    11 C    0.974
    21   1 H    0.994 --    11 C    0.974
    22   1 H    0.994 --    11 C    0.977
    23   1 H    0.995 --    12 C    0.975
    24   1 H    0.994 --    12 C    0.972
    25   1 H    0.993 --    12 C    0.973
 ---------------------------------------------------------------------------

Topologies differ in total number of bonds
Writing topology from bond orders to xtbtopo.mol

molecular dipole:
                 x           y           z       tot (Debye)
 q only:       -0.482      -2.210      -0.737
   full:       -0.472      -2.204      -0.757       6.045
molecular quadrupole (traceless):
                xx          xy          yy          xz          yz          zz
 q only:       11.776     -11.011      -8.251      -3.326      -2.064      -3.526
  q+dip:       11.548     -11.902      -9.024      -3.296      -5.906      -2.525
   full:       10.585     -11.834      -8.820      -3.478      -3.934      -1.765

           -------------------------------------------------
          |                Geometry Summary                 |
           -------------------------------------------------

      molecular mass/u    :      163.2166969
   center of mass at/Å    :       -0.0157251       0.0290437      -0.0819592
  moments of inertia/u·Å² :        0.2114343E+03   0.9900182E+03   0.1085629E+04
rotational constants/cm⁻¹ :        0.7972987E-01   0.1702760E-01   0.1552799E-01

 * 23 selected distances

     #   Z          #   Z                                           value/Å
     2   6 C        3   6 C                                       1.3900645
     3   6 C        4   6 C                                       1.3825252
     4   6 C        5   6 C                                       1.3910265
     5   6 C        6   6 C                                       1.3900757
     2   6 C        7   6 C                                       1.3907158
     6   6 C        7   6 C                                       1.3819456
     8   6 C        9   8 O                                       1.2371713
     8   6 C       10   7 N                                       1.3404441
    10   7 N       11   6 C                                       1.4469396 (max)
    10   7 N       12   6 C                                       1.4447167
     1   6 C       13   1 H                                       1.0870512
     1   6 C       14   1 H                                       1.0896307
     1   6 C       15   1 H                                       1.0864900
     3   6 C       16   1 H                                       1.0798730
     4   6 C       17   1 H                                       1.0797119 (min)
     6   6 C       18   1 H                                       1.0803294
     7   6 C       19   1 H                                       1.0799647
    11   6 C       20   1 H                                       1.0908851
    11   6 C       21   1 H                                       1.0902584
    11   6 C       22   1 H                                       1.0881445
    12   6 C       23   1 H                                       1.0859128
    12   6 C       24   1 H                                       1.0918619
    12   6 C       25   1 H                                       1.0907179

 * 4 distinct bonds (by element types)

   Z      Z             #   av. dist./Å        max./Å        min./Å
   1 H    6 C          13     1.0862178     1.0918619     1.0797119
   6 C    6 C           6     1.3877255     1.3910265     1.3819456
   6 C    7 N           3     1.4107001     1.4469396     1.3404441
   6 C    8 O           1     1.2371713     1.2371713     1.2371713

           -------------------------------------------------
          |               Frequency Printout                |
           -------------------------------------------------
 projected vibrational frequencies (cm⁻¹)
eigval :       -0.00    -0.00    -0.00     0.00     0.00     0.00
eigval :       10.58    38.83    69.30    79.37   132.14   144.98
eigval :      181.98   197.68   260.19   291.92   322.65   345.80
eigval :      367.15   387.95   423.88   540.02   573.62   599.97
eigval :      661.84   692.94   711.82   804.34   829.48   874.09
eigval :      914.80   926.36   933.95  1008.62  1014.86  1028.96
eigval :     1042.05  1085.68  1097.01  1121.57  1140.04  1193.00
eigval :     1213.44  1252.84  1260.97  1274.02  1318.56  1390.83
eigval :     1397.80  1398.29  1401.89  1427.65  1455.08  1460.29
eigval :     1467.11  1471.28  1473.76  1483.30  1496.93  1574.22
eigval :     1602.27  1608.83  2969.64  2979.28  2993.91  2997.01
eigval :     3004.75  3040.39  3040.61  3047.89  3058.09  3073.04
eigval :     3077.13  3084.87  3089.81
 reduced masses (amu)
   1: 10.08   2: 11.69   3: 12.30   4: 11.29   5: 11.13   6: 10.92   7:  1.23   8: 10.87
   9:  9.89  10:  9.10  11:  5.11  12:  1.71  13:  8.95  14: 10.33  15:  9.53  16: 11.96
  17: 10.11  18:  8.91  19:  9.01  20:  9.79  21:  9.34  22:  9.96  23: 11.48  24: 11.33
  25: 11.40  26: 11.26  27: 11.07  28:  5.39  29: 10.37  30:  3.32  31:  2.74  32:  4.11
  33: 10.42  34:  3.97  35:  8.82  36:  4.72  37:  3.95  38:  3.09  39:  5.92  40:  4.25
  41:  2.82  42:  2.29  43:  6.82  44: 11.05  45: 11.73  46:  3.58  47: 11.73  48:  2.59
  49:  4.94  50:  3.39  51:  9.53  52:  7.37  53:  1.60  54:  1.73  55:  1.61  56:  1.77
  57:  2.05  58:  5.09  59:  8.45  60: 11.49  61: 11.53  62: 12.95  63:  1.88  64:  1.93
  65:  1.53  66:  1.48  67:  1.81  68:  1.72  69:  1.72  70:  1.61  71:  1.71  72:  1.78
  73:  1.78  74:  1.88  75:  1.88
 IR intensities (km·mol⁻¹)
   1:  3.71   2:  0.29   3:  1.91   4:  0.14   5:  1.13   6:  1.61   7:  0.63   8:  6.26
   9:  2.90  10:  1.58  11:  0.49  12:  0.27  13:  2.47  14:  2.03  15:  6.68  16:  5.76
  17: 10.39  18:  4.10  19:  0.35  20:  8.77  21:  6.61  22:  3.56  23: 17.46  24:  2.73
  25:  8.26  26: 17.82  27:  1.74  28: 19.69  29:  0.35  30:  1.46  31:  0.27  32:  1.19
  33: 20.53  34:  3.30  35:  5.78  36: 14.44  37:  7.74  38:  1.26  39:137.58  40:  3.39
  41:  0.52  42: 17.52  43: 27.41  44: 15.47  45:116.44  46:  1.54  47:  0.95  48: 10.20
  49: 40.97  50:  2.51  51:  1.52  52:144.26  53:  4.20  54: 11.01  55:  7.89  56:  4.65
  57:  8.36  58: 34.20  59: 54.47  60:  2.91  61: 63.80  62:925.37  63: 34.09  64: 29.69
  65: 13.68  66: 80.60  67: 30.98  68: 14.95  69: 35.99  70: 38.74  71: 16.47  72: 24.02
  73: 47.69  74:200.79  75: 20.93
 Raman intensities (Ä⁴*amu⁻¹)
   1:  0.00   2:  0.00   3:  0.00   4:  0.00   5:  0.00   6:  0.00   7:  0.00   8:  0.00
   9:  0.00  10:  0.00  11:  0.00  12:  0.00  13:  0.00  14:  0.00  15:  0.00  16:  0.00
  17:  0.00  18:  0.00  19:  0.00  20:  0.00  21:  0.00  22:  0.00  23:  0.00  24:  0.00
  25:  0.00  26:  0.00  27:  0.00  28:  0.00  29:  0.00  30:  0.00  31:  0.00  32:  0.00
  33:  0.00  34:  0.00  35:  0.00  36:  0.00  37:  0.00  38:  0.00  39:  0.00  40:  0.00
  41:  0.00  42:  0.00  43:  0.00  44:  0.00  45:  0.00  46:  0.00  47:  0.00  48:  0.00
  49:  0.00  50:  0.00  51:  0.00  52:  0.00  53:  0.00  54:  0.00  55:  0.00  56:  0.00
  57:  0.00  58:  0.00  59:  0.00  60:  0.00  61:  0.00  62:  0.00  63:  0.00  64:  0.00
  65:  0.00  66:  0.00  67:  0.00  68:  0.00  69:  0.00  70:  0.00  71:  0.00  72:  0.00
  73:  0.00  74:  0.00  75:  0.00
 output can be read by thermo (or use thermo option).
 writing <g98.out> molden fake output.
 recommended (thermochemical) frequency scaling factor: 1.0
           -------------------------------------------------
          |             Thermodynamic Functions             |
           -------------------------------------------------

Molecule has no symmetry elements
It seems to be the C1 point group
c1  symmetry found (for desy threshold:  0.10E+00) used in thermo

          ...................................................
          :                      SETUP                      :
          :.................................................:
          :  # frequencies                          69      :
          :  # imaginary freq.                       0      :
          :  linear?                             false      :
          :  only rotor calc.                    false      :
          :  symmetry                               c1      :
          :  rotational number                       1      :
          :  scaling factor                  1.0000000      :
          :  rotor cutoff                    0.0000000 cm⁻¹ :
          :  imag. cutoff                 -100.0000000 cm⁻¹ :
          :.................................................:

    mode    ω/cm⁻¹     T·S(HO)/kcal·mol⁻¹    T·S(FR)/kcal·mol⁻¹   T·S(vib)
   ------------------------------------------------------------------------
       1     10.58    -2.35482 (100.00%)    -1.51588 (  0.00%)    -2.35482
       2     38.83    -1.58559 (100.00%)    -1.13131 (  0.00%)    -1.58559
       3     69.30    -1.24425 (100.00%)    -0.95977 (  0.00%)    -1.24425
       4     79.37    -1.16466 (100.00%)    -0.91956 (  0.00%)    -1.16466
       5    132.14    -0.86899 (100.00%)    -0.76859 (  0.00%)    -0.86899
       6    144.98    -0.81605 (100.00%)    -0.74113 (  0.00%)    -0.81605
       7    181.98    -0.68813 (100.00%)    -0.67381 (  0.00%)    -0.68813
       8    197.68    -0.64240 (100.00%)    -0.64930 (  0.00%)    -0.64240
       9    260.19    -0.49508 (100.00%)    -0.56791 (  0.00%)    -0.49508
      10    291.92    -0.43613 (100.00%)    -0.53382 (  0.00%)    -0.43613
   ------------------------------------------------------------------------

   temp. (K)  partition function   enthalpy   heat capacity  entropy
                                   cal/mol     cal/K/mol   cal/K/mol   J/K/mol
 298.15  VIB  0.116E+06             6324.288     40.364     44.379
         ROT  0.115E+07              888.752      2.981     30.716
         INT  0.133E+12             7213.041     43.345     75.095
         TR   0.202E+28             1481.254      4.968     41.160
         TOT                        8694.2947    48.3134   116.2550   486.4110

       T/K    H(0)-H(T)+PV         H(T)/Eh          T*S/Eh         G(T)/Eh
   ------------------------------------------------------------------------
    298.15    0.138552E-01    0.218743E+00    0.552365E-01    0.163506E+00
   ------------------------------------------------------------------------

         :::::::::::::::::::::::::::::::::::::::::::::::::::::
         ::                  THERMODYNAMIC                  ::
         :::::::::::::::::::::::::::::::::::::::::::::::::::::
         :: total free energy         -34.885166020329 Eh   ::
         ::.................................................::
         :: total energy              -35.048672233802 Eh   ::
         :: zero point energy           0.204887485591 Eh   ::
         :: G(RRHO) w/o ZPVE           -0.041381272118 Eh   ::
         :: G(RRHO) contrib.            0.163506213473 Eh   ::
         :::::::::::::::::::::::::::::::::::::::::::::::::::::

optimized geometry written to: xtbopt.coord


           -------------------------------------------------
          | TOTAL ENERGY              -35.048672233802 Eh   |
          | TOTAL ENTHALPY            -34.829929507607 Eh   |
          | TOTAL FREE ENERGY         -34.885166020329 Eh   |
          | GRADIENT NORM               0.000024336256 Eh/α |
          | HOMO-LUMO GAP               4.099537101743 eV   |
           -------------------------------------------------

------------------------------------------------------------------------
 * finished run on 2025/04/06 at 02:06:02.760     
------------------------------------------------------------------------
 total:
 * wall-time:     0 d,  0 h,  0 min,  2.396 sec
 *  cpu-time:     0 d,  0 h,  0 min,  2.318 sec
 * ratio c/w:     0.967 speedup
 SCF:
 * wall-time:     0 d,  0 h,  0 min,  0.032 sec
 *  cpu-time:     0 d,  0 h,  0 min,  0.020 sec
 * ratio c/w:     0.637 speedup
 ANC optimizer:
 * wall-time:     0 d,  0 h,  0 min,  0.432 sec
 *  cpu-time:     0 d,  0 h,  0 min,  0.418 sec
 * ratio c/w:     0.968 speedup
 analytical hessian:
 * wall-time:     0 d,  0 h,  0 min,  1.879 sec
 *  cpu-time:     0 d,  0 h,  0 min,  1.867 sec
 * ratio c/w:     0.994 speedup

