24
 energy: -687.116803702846 gnorm: 0.004489879193 xtb: 6.7.1 (edcfbbe)
C           -2.53855812601818       -0.96302488829781        0.35841383921628
C           -1.12098673024801       -0.47294195087008        0.58195662552535
H           -0.94379373079366       -0.42590996241725        1.66938083773507
C           -0.83181032326040        0.90097078879205       -0.03339414412416
H           -1.02674135302294        0.86532453832702       -1.11355181759838
C            0.62863091841938        1.25743244327116        0.20400879665759
H            0.78682761081483        1.37477463479688        1.28875896862805
C            1.55073511854161        0.15693522795285       -0.30609502644678
H            1.45945669760578        0.08254241679880       -1.40142737337994
C            1.13698393121908       -1.17981008053364        0.29664125902773
H            1.25794873138494       -1.16593920118441        1.39263056497735
O           -0.23559452208516       -1.43721229722615       -0.01741485341944
O            1.90937415931546       -2.19151339957902       -0.28858310492850
O            2.90558459225074        0.40318728985940        0.07232076234350
O            1.00181000395020        2.45978642737197       -0.47644696435189
O           -1.61810748730564        1.92449387651498        0.58746760770759
O           -2.90684181411402       -1.01600665386452       -1.02336476221702
H           -3.23398179555219       -0.27287737243993        0.84491209351404
H           -2.65013957361187       -1.94888105626529        0.83007519854468
H            1.82579032960247       -2.98776337077345        0.25778751087375
H            3.15099140785635        1.26403831249066       -0.29252639330488
H            0.48709862370453        3.18045798986649       -0.08789184560025
H           -2.48750485370520        1.93212255105861        0.16750592881683
H           -2.32756071254203       -1.65875733931750       -1.45355597209754
24
 energy: -687.116822658269 gnorm: 0.001703355500 xtb: 6.7.1 (edcfbbe)
C           -2.53899875373844       -0.96268062922615        0.35801385284557
C           -1.12192921102248       -0.47240506781891        0.58373248337524
H           -0.94607407758317       -0.42454367373082        1.67141479348743
C           -0.83190109017893        0.90080118493356       -0.03258734189823
H           -1.02718152041569        0.86513075551782       -1.11264754960009
C            0.62857391642723        1.25689412122231        0.20386629683642
H            0.78787814314952        1.37562190548376        1.28814970171793
C            1.54964618202569        0.15611405463023       -0.30638962811527
H            1.45787758852204        0.08142267841930       -1.40140818236449
C            1.13724432507672       -1.18009117711492        0.29728354385701
H            1.26157661495701       -1.16701734762290        1.39301138156756
O           -0.23617390107765       -1.43845160946525       -0.01342545201653
O            1.90829831753319       -2.19252837821194       -0.29033837118449
O            2.90532358928226        0.40259403514133        0.07085996730887
O            1.00107962332499        2.45940094206077       -0.47810742147348
O           -1.61771582455131        1.92557858412377        0.58786956866815
O           -2.90491696005111       -1.01504678513290       -1.02513405020040
H           -3.23581098667382       -0.27304703303757        0.84327351319856
H           -2.65102614181792       -1.94904107447413        0.82834320323868
H            1.82838518379634       -2.98610349544016        0.25706472567638
H            3.14942677836139        1.26484659271360       -0.29182196177148
H            0.48849659125223        3.18017949175609       -0.08810768745455
H           -2.48755134570842        1.93183799517969        0.16868134678965
H           -2.32491591546162       -1.65803756293906       -1.45398901042310
24
 energy: -687.116836934046 gnorm: 0.002380006581 xtb: 6.7.1 (edcfbbe)
C           -2.54023688916573       -0.96166733801639        0.35649313347178
C           -1.12456601418642       -0.47075880266891        0.58866106737896
H           -0.95263589087905       -0.42057356325048        1.67693423700299
C           -0.83206588677026        0.90032385618419       -0.03048981735838
H           -1.02888643187582        0.86426340512820       -1.11010755649359
C            0.62842635217090        1.25553683669774        0.20332990628338
H            0.79076318707278        1.37777506048112        1.28647519927001
C            1.54686176229373        0.15418485657178       -0.30757953488672
H            1.45326943718858        0.07821005654507       -1.40200066138140
C            1.13775832058900       -1.18061663722753        0.29884738226367
H            1.27101520603122       -1.16949187830233        1.39362464333028
O           -0.23775538010281       -1.44091175450768       -0.00308324727975
O            1.90465025216934       -2.19409989420899       -0.29529474096558
O            2.90469148453707        0.40089032964547        0.06607266424161
O            0.99993468921413        2.45755870042747       -0.48299455858224
O           -1.61678539278127        1.92751526755768        0.58970523018958
O           -2.89918700935779       -1.01239043497332       -1.03004748479515
H           -3.24088779211890       -0.27362843804525        0.83843262788380
H           -2.65362901889622       -1.94928060933885        0.82345271405718
H            1.83588656607247       -2.98282032662489        0.25732042508042
H            3.14445097681832        1.26741169572256       -0.28983584757752
H            0.49360934535843        3.17963765178723       -0.08832464897779
H           -2.48813098596227        1.93017346805732        0.17326713127990
H           -2.31693970448428       -1.65581430363600       -1.45525063864901
24
 energy: -687.116840696547 gnorm: 0.001337106008 xtb: 6.7.1 (edcfbbe)
C           -2.54028254265313       -0.96145082444236        0.35603056159289
C           -1.12462949114905       -0.47072341661652        0.58893580778965
H           -0.95342840828909       -0.42018383176010        1.67724689847039
C           -0.83223260929840        0.90039147523240       -0.03010505890104
H           -1.02940012161607        0.86410773335326       -1.10965666258026
C            0.62835205503618        1.25550820681319        0.20301690664042
H            0.79110479390230        1.37790964385296        1.28608260192890
C            1.54648657898482        0.15387017255324       -0.30784042021992
H            1.45221889787101        0.07755524186578       -1.40228731127055
C            1.13762489407259       -1.18094589228754        0.29891579025792
H            1.27166385304703       -1.16945311999309        1.39347447833749
O           -0.23789053811570       -1.44119525605940       -0.00228417348356
O            1.90398871926181       -2.19435407472078       -0.29558784075560
O            2.90445861944053        0.40073413763097        0.06489070802272
O            0.99997580388847        2.45718516729532       -0.48370336300172
O           -1.61665567814577        1.92760638069803        0.59026477860934
O           -2.89829181980354       -1.01204333206507       -1.03063485826209
H           -3.24128549506661       -0.27354039326229        0.83757563699821
H           -2.65402998112318       -1.94908264459416        0.82280747241303
H            1.83777720381970       -2.98297113423136        0.25876194528120
H            3.14298922420443        1.26813411890777       -0.28955590565273
H            0.49512654978750        3.17987880418030       -0.08787936822066
H           -2.48835630718275        1.92982792773855        0.17470473025845
H           -2.31567302394949       -1.65533814529433       -1.45556580108785
24
 energy: -687.116825797442 gnorm: 0.005957002059 xtb: 6.7.1 (edcfbbe)
C           -2.54157736357154       -0.95959298504185        0.35116979005051
C           -1.12658879543626       -0.46987633724823        0.59324061003069
H           -0.96237334450073       -0.41608147376111        1.68216522989433
C           -0.83329822272409        0.90056820689941       -0.02666730145396
H           -1.03449236210704        0.86318087328070       -1.10547947020085
C            0.62811783117147        1.25468618434129        0.20009372319960
H            0.79546515436263        1.37934504010352        1.28229742580405
C            1.54213095181714        0.15038682143870       -0.31187229271821
H            1.44088300732282        0.07073750811489       -1.40619185446086
C            1.13604962275717       -1.18374570515210        0.29970963107408
H            1.27922124899682       -1.16887156430721        1.39249722462140
O           -0.24036891697225       -1.44383067643923        0.00806203678132
O            1.89716390204656       -2.19751641680664       -0.29855729393126
O            2.90207147973759        0.39827190764508        0.05128377232454
O            1.00000344779920        2.45317231051628       -0.49134168432812
O           -1.61459256482245        1.92818136127273        0.59604807298991
O           -2.88850372746117       -1.00888073002375       -1.03776827647469
H           -3.24651111494050       -0.27254003464144        0.82795529660903
H           -2.65895453052132       -1.94753786788041        0.81607509467030
H            1.85756852795262       -2.98135242355370        0.27268797096129
H            3.12823344309161        1.27598503243984       -0.28586377757118
H            0.51201548361155        3.18187475446507       -0.08280050338003
H           -2.49057474814234        1.92556900714482        0.18998060398516
H           -2.30147728677511       -1.65070866084457       -1.45911723017277
24
 energy: -687.116844370690 gnorm: 0.002473443198 xtb: 6.7.1 (edcfbbe)
C           -2.54104453264763       -0.96044426893054        0.35287002413211
C           -1.12572220870355       -0.47033327977695        0.59113112617554
H           -0.95852242775503       -0.41815979690441        1.67981119094011
C           -0.83288593763998        0.90058399251873       -0.02820525790623
H           -1.03260927597582        0.86393839735932       -1.10730697562774
C            0.62826688367459        1.25497384820377        0.20106639238286
H            0.79376640920549        1.37847475877178        1.28365422934147
C            1.54395207514515        0.15175384196801       -0.31065328411990
H            1.44511973284226        0.07322280325061       -1.40498824843803
C            1.13663056342369       -1.18248760771485        0.29952416452424
H            1.27529195837830       -1.16862705817545        1.39313819112828
O           -0.23926522867093       -1.44249904052451        0.00329762312740
O            1.90012234056625       -2.19636863584249       -0.29635219593308
O            2.90304235723601        0.39930969346037        0.05598320665423
O            1.00012831201151        2.45473441026968       -0.48819291382215
O           -1.61525358297926        1.92772442668526        0.59405050766272
O           -2.89270278253575       -1.01056917589204       -1.03490338890922
H           -3.24416190717184       -0.27284718788829        0.83164497766411
H           -2.65695603179788       -1.94810538612649        0.81895081242957
H            1.84954460129697       -2.98183912162892        0.26784114689529
H            3.13368319628063        1.27328732120796       -0.28725261032605
H            0.50619037536223        3.18118902504317       -0.08434130519396
H           -2.48979235643515        1.92710561376393        0.18476080776426
H           -2.30721139847632       -1.65259236738524       -1.45792117440047
24
 energy: -687.116847672401 gnorm: 0.000676414874 xtb: 6.7.1 (edcfbbe)
C           -2.54090599065648       -0.96093951105121        0.35344979678783
C           -1.12538306906598       -0.47069282950622        0.58982365526265
H           -0.95667850752789       -0.41946050260409        1.67841352019431
C           -0.83274990882350        0.90063434811681       -0.02894921995934
H           -1.03192387794682        0.86467484027859       -1.10818058719636
C            0.62837245658146        1.25497310975319        0.20133047229609
H            0.79315945729146        1.37778237582581        1.28408719513318
C            1.54471408188695        0.15222377031642       -0.31049652951815
H            1.44661313793942        0.07397045887168       -1.40475477176114
C            1.13677008752969       -1.18183693223622        0.29941096183258
H            1.27290965765692       -1.16801472920822        1.39351421837514
O           -0.23884038130247       -1.44195474774411        0.00066015237818
O            1.90167400255264       -2.19603035287436       -0.29465915269227
O            2.90349017432849        0.39973003342631        0.05728676642154
O            1.00025912035801        2.45539380754341       -0.48678973149434
O           -1.61530681380804        1.92754049562182        0.59346269194583
O           -2.89489430080664       -1.01165228063129       -1.03373248401110
H           -3.24305526425824       -0.27291623940120        0.83312384916882
H           -2.65616289246220       -1.94837627480981        0.82031339565019
H            1.84653259617141       -2.98164973402682        0.26686640614905
H            3.13570127484623        1.27259921306570       -0.28781104241125
H            0.50459688662407        3.18105072231484       -0.08433416561137
H           -2.48946783893300        1.92777497124292        0.18324292990099
H           -2.30981296088997       -1.65339839629066       -1.45767124317282
24
 energy: -687.116847672401 gnorm: 0.000676414874 xtb: 6.7.1 (edcfbbe)
C           -2.54090599065648       -0.96093951105121        0.35344979678783
C           -1.12538306906598       -0.47069282950622        0.58982365526265
H           -0.95667850752789       -0.41946050260409        1.67841352019431
C           -0.83274990882350        0.90063434811681       -0.02894921995934
H           -1.03192387794682        0.86467484027859       -1.10818058719636
C            0.62837245658146        1.25497310975319        0.20133047229609
H            0.79315945729146        1.37778237582581        1.28408719513318
C            1.54471408188695        0.15222377031642       -0.31049652951815
H            1.44661313793942        0.07397045887168       -1.40475477176114
C            1.13677008752969       -1.18183693223622        0.29941096183258
H            1.27290965765692       -1.16801472920822        1.39351421837514
O           -0.23884038130247       -1.44195474774411        0.00066015237818
O            1.90167400255264       -2.19603035287436       -0.29465915269227
O            2.90349017432849        0.39973003342631        0.05728676642154
O            1.00025912035801        2.45539380754341       -0.48678973149434
O           -1.61530681380804        1.92754049562182        0.59346269194583
O           -2.89489430080664       -1.01165228063129       -1.03373248401110
H           -3.24305526425824       -0.27291623940120        0.83312384916882
H           -2.65616289246220       -1.94837627480981        0.82031339565019
H            1.84653259617141       -2.98164973402682        0.26686640614905
H            3.13570127484623        1.27259921306570       -0.28781104241125
H            0.50459688662407        3.18105072231484       -0.08433416561137
H           -2.48946783893300        1.92777497124292        0.18324292990099
H           -2.30981296088997       -1.65339839629066       -1.45767124317282
