
                                 *****************
                                 * O   R   C   A *
                                 *****************

                                            #,                                       
                                            ###                                      
                                            ####                                     
                                            #####                                    
                                            ######                                   
                                           ########,                                 
                                     ,,################,,,,,                         
                               ,,#################################,,                 
                          ,,##########################################,,             
                       ,#########################################, ''#####,          
                    ,#############################################,,   '####,        
                  ,##################################################,,,,####,       
                ,###########''''           ''''###############################       
              ,#####''   ,,,,##########,,,,          '''####'''          '####       
            ,##' ,,,,###########################,,,                        '##       
           ' ,,###''''                  '''############,,,                           
         ,,##''                                '''############,,,,        ,,,,,,###''
      ,#''                                            '''#######################'''  
     '                                                          ''''####''''         
             ,#######,   #######,   ,#######,      ##                                
            ,#'     '#,  ##    ##  ,#'     '#,    #''#        ,####,   ,####,        
            ##       ##  ##   ,#'  ##            #'  '#       #'       #'  '#        
            ##       ##  #######   ##           ,######,      #####,   #    #        
            '#,     ,#'  ##    ##  '#,     ,#' ,#      #,     #,   #   #,  ,#        
             '#######'   ##     ##  '#######'  #'      '#     '####' # '####'        



                #########################################################
                #                        -***-                          #
                #          Department of theory and spectroscopy        #
                #                                                       #
                #                      Frank Neese                      #
                #                                                       #
                #     Directorship, Architecture, Infrastructure        #
                #                    SHARK, DRIVERS                     #
                #        Core code/Algorithms in most modules           #
                #                                                       #
                #        Max Planck Institute fuer Kohlenforschung      #
                #                Kaiser Wilhelm Platz 1                 #
                #                 D-45470 Muelheim/Ruhr                 #
                #                      Germany                          #
                #                                                       #
                #                  All rights reserved                  #
                #                        -***-                          #
                #########################################################


                         Program Version 6.0.0  -   RELEASE  -


 With contributions from (in alphabetic order):
   Daniel Aravena         : Magnetic Suceptibility
   Michael Atanasov       : Ab Initio Ligand Field Theory (pilot matlab implementation)
   Alexander A. Auer      : GIAO ZORA, VPT2 properties, NMR spectrum
   Ute Becker             : All parallelization in ORCA, NUMFREQ, NUMCALC
   Giovanni Bistoni       : ED, misc. LED, open-shell LED, HFLD
   Martin Brehm           : Molecular dynamics
   Dmytro Bykov           : pre 5.0 version of the SCF Hessian
   Marcos Casanova-Páez   : Triplet and SCS-CIS(D). UHF-(DLPNO)-IP/EA/STEOM-CCSD. UHF-CVS-IP/STEOM-CCSD
   Vijay G. Chilkuri      : MRCI spin determinant printing, contributions to CSF-ICE
   Pauline Colinet        : FMM embedding
   Dipayan Datta          : RHF DLPNO-CCSD density
   Achintya Kumar Dutta   : EOM-CC, STEOM-CC
   Nicolas Foglia         : Exact transition moments, OPA infrastructure, MCD improvements
   Dmitry Ganyushin       : Spin-Orbit,Spin-Spin,Magnetic field MRCI
   Miquel Garcia          : C-PCM and meta-GGA Hessian, CCSD/C-PCM, Gaussian charge scheme
   Tiago L. C. Gouveia    : GS-ROHF, GS-ROCIS
   Yang Guo               : DLPNO-NEVPT2, F12-NEVPT2, CIM, IAO-localization
   Andreas Hansen         : Spin unrestricted coupled pair/coupled cluster methods
   Ingolf Harden          : AUTO-CI MPn and infrastructure 
   Benjamin Helmich-Paris : MC-RPA, TRAH-(SCF,CASSCF), AVAS, COSX integrals, SCF dyn. polar.
   Lee Huntington         : MR-EOM, pCC
   Robert Izsak           : Overlap fitted RIJCOSX, COSX-SCS-MP3, EOM
   Riya Kayal             : Wick's Theorem for AUTO-CI, AUTO-CI UHF-CCSDT
   Emily Kempfer          : AUTO-CI, RHF CISDT and CCSDT
   Christian Kollmar      : KDIIS, OOCD, Brueckner-CCSD(T), CCSD density, CASPT2, CASPT2-K, improved NEVPT2
   Axel Koslowski         : Symmetry handling
   Simone Kossmann        : Meta GGA functionals, TD-DFT gradient, OOMP2, (MP2 Hessian; deprecated post 5.0)
   Lucas Lang             : DCDCAS
   Marvin Lechner         : AUTO-CI (C++ implementation), FIC-MRCC
   Spencer Leger          : CASSCF response
   Dagmar Lenk            : GEPOL surface, SMD, ORCA-2-JSON
   Dimitrios Liakos       : Extrapolation schemes; Compound Job, initial MDCI parallelization
   Dimitrios Manganas     : Further ROCIS development; embedding schemes. LFT, Crystal Embedding
   Dimitrios Pantazis     : SARC Basis sets
   Anastasios Papadopoulos: AUTO-CI, single reference methods and gradients
   Taras Petrenko         : pre 6.0 DFT Hessian and TD-DFT gradient, (ASA, deprecated), ECA, 1-Electron XAS/XES, NRVS
   Peter Pinski           : DLPNO-MP2, DLPNO-MP2 Gradient
   Christoph Reimann      : Effective Core Potentials
   Marius Retegan         : Local ZFS, SOC
   Christoph Riplinger    : Optimizer, TS searches, QM/MM, DLPNO-CCSD(T), (RO)-DLPNO pert. Triples
   Michael Roemelt        : Original ROCIS implementation
   Masaaki Saitow         : Open-shell DLPNO-CCSD energy and density
   Barbara Sandhoefer     : DKH picture change effects
   Kantharuban Sivalingam : CASSCF convergence/infrastructure, NEVPT2 and variants, FIC-MRCI
   Bernardo de Souza      : ESD, SOC TD-DFT
   Georgi Stoychev        : AutoAux, RI-MP2 NMR, DLPNO-MP2 response, X2C
   Van Anh Tran           : RI-MP2 g-tensors
   Willem Van den Heuvel  : Paramagnetic NMR
   Zikuan Wang            : NOTCH, Electric field optimization 
   Frank Wennmohs         : Technical directorship and infrastructure
   Hang Xu                : AUTO-CI-Response properties 


 We gratefully acknowledge several colleagues who have allowed us to
 interface, adapt or use parts of their codes:
   Stefan Grimme, W. Hujo, H. Kruse, P. Pracht,  : VdW corrections, initial TS optimization,
                  C. Bannwarth, S. Ehlert,         DFT functionals, gCP, sTDA/sTD-DF
                  L. Wittmann, M. Mueller
   Ed Valeev, F. Pavosevic, A. Kumar             : LibInt (2-el integral package), F12 methods
   Garnet Chan, S. Sharma, J. Yang, R. Olivares  : DMRG
   Ulf Ekstrom                                   : XCFun DFT Library
   Mihaly Kallay                                 : mrcc  (arbitrary order and MRCC methods)
   Frank Weinhold                                : gennbo (NPA and NBO analysis)
   Simon Mueller                                 : openCOSMO-RS
   Christopher J. Cramer and Donald G. Truhlar   : smd solvation model
   Lars Goerigk                                  : TD-DFT with DH, B97 family of functionals
   V. Asgeirsson, H. Jonsson                     : NEB implementation
   FAccTs GmbH                                   : IRC, NEB, NEB-TS, DLPNO-Multilevel, CI-OPT
                                                   MM, QMMM, 2- and 3-layer-ONIOM, Crystal-QMMM,
                                                   LR-CPCM, SF, NACMEs, symmetry and pop. for TD-DFT,
                                                   nearIR, NL-DFT gradient (VV10), updates on ESD,
                                                   ML-optimized integration grids, MBIS, APM,
                                                   GOAT, DOCKER, SOLVATOR, interface openCOSMO-RS
   S Lehtola, MJT Oliveira, MAL Marques          : LibXC Library
   Liviu Ungur et al                             : ANISO software


 Your calculation uses the libint2 library for the computation of 2-el integrals
 For citations please refer to: http://libint.valeyev.net

 Your ORCA version has been built with support for libXC version: 6.2.2
 For citations please refer to: https://libxc.gitlab.io

 This ORCA versions uses:
   CBLAS   interface :  Fast vector & matrix operations
   LAPACKE interface :  Fast linear algebra routines
   SCALAPACK package :  Parallel linear algebra routines
   Shared memory     :  Shared parallel matrices
   BLAS/LAPACK       :  OpenBLAS 0.3.27  USE64BITINT DYNAMIC_ARCH NO_AFFINITY SapphireRapids SINGLE_THREADED
        Core in use  :  SapphireRapids
   Copyright (c) 2011-2014, The OpenBLAS Project


Your calculation utilizes the geometrical counterpoise correction gCP
Please cite in your paper:
H.Kruse, S. Grimme J.Chem.Phys., 136, (2012), 154101 
   

Your calculation utilizes the atom-pairwise dispersion correction
based on EEQ partial charges (D4)


Your calculation utilizes the SMD solvation module
Please cite in your paper:
A.V. Marenich, C.J. Cramer, D.G. Truhlar J. Phys. Chem. B, 113, (2009), 6378 

================================================================================

----- Orbital basis set information -----
Your calculation utilizes the basis: def2-mTZVPP
   Stefan Grimme, Andreas Hansen, Sebastian Ehlert, and Jan-Michael Mewes 
   J. Chem. Phys. 154, 064103 (2021). DOI: 10.1063/5.0040021

----- AuxJ basis set information -----
Your calculation utilizes the auxiliary basis: def2/J
   F. Weigend, Phys. Chem. Chem. Phys. 8, 1057 (2006).

================================================================================
                                        WARNINGS
                       Please study these warnings very carefully!
================================================================================

Using LibXC functional ID 497 : Re-regularized SCAN exchange by Furness et al
[ 1]  J. W. Furness, A. D. Kaplan, J. Ning, J. P. Perdew, and J. Sun.,  J. Phys. Chem. Lett. 11, 8208-8215 (2020)
[ 2]  J. W. Furness, A. D. Kaplan, J. Ning, J. P. Perdew, and J. Sun.,  J. Phys. Chem. Lett. 11, 9248-9248 (2020)
Using LibXC functional ID 498 : Re-regularized SCAN correlation by Furness et al
[ 1]  J. W. Furness, A. D. Kaplan, J. Ning, J. P. Perdew, and J. Sun.,  J. Phys. Chem. Lett. 11, 8208-8215 (2020)
[ 2]  J. W. Furness, A. D. Kaplan, J. Ning, J. P. Perdew, and J. Sun.,  J. Phys. Chem. Lett. 11, 9248-9248 (2020)
Using LibXC functional ID 497 : Re-regularized SCAN exchange by Furness et al
[ 1]  J. W. Furness, A. D. Kaplan, J. Ning, J. P. Perdew, and J. Sun.,  J. Phys. Chem. Lett. 11, 8208-8215 (2020)
[ 2]  J. W. Furness, A. D. Kaplan, J. Ning, J. P. Perdew, and J. Sun.,  J. Phys. Chem. Lett. 11, 9248-9248 (2020)
Using LibXC functional ID 498 : Re-regularized SCAN correlation by Furness et al
[ 1]  J. W. Furness, A. D. Kaplan, J. Ning, J. P. Perdew, and J. Sun.,  J. Phys. Chem. Lett. 11, 8208-8215 (2020)
[ 2]  J. W. Furness, A. D. Kaplan, J. Ning, J. P. Perdew, and J. Sun.,  J. Phys. Chem. Lett. 11, 9248-9248 (2020)

================================================================================
                                       INPUT FILE
================================================================================
NAME = sp_solv.inp
|  1> ! r2scan-3c def2/J RI DEFGRID2 scfconv6 printgap
|  2> %output
|  3>     printlevel normal
|  4> end
|  5> %cpcm
|  6>     smd true
|  7>     smdsolvent "water"
|  8> end
|  9> * xyz 0 1
| 10> C -4.7807379139 -0.8095943354 0.1367429575
| 11> N -3.4208959911 -0.8525363373 -0.3513018006
| 12> C -2.4560427479 -0.0491750213 0.1040191626
| 13> O -2.5894780521 0.8159905187 0.9496552932
| 14> O -1.2773537442 -0.3543830445 -0.5045026613
| 15> C -0.1497962871 0.4380885557 -0.2968966407
| 16> C -0.2046228838 1.8057826816 -0.3215424717
| 17> C 0.9692130809 2.5563456891 -0.1566086025
| 18> C 2.173552697 1.9368696122 0.0172523305
| 19> C 2.2610414949 0.5288992071 0.0368574727
| 20> C 1.0813897403 -0.2448153952 -0.120041643
| 21> C 1.1722465082 -1.6514830586 -0.0943513371
| 22> C 2.380213769 -2.2676118714 0.0800467164
| 23> C 3.5490930561 -1.506487502 0.2330532833
| 24> C 3.4903420004 -0.140974419 0.2119465084
| 25> H -5.0493842046 -1.7629986739 0.590076667
| 26> H -5.4656986422 -0.587759181 -0.6805120217
| 27> H -4.8417423289 -0.0225933834 0.8856707019
| 28> H -3.1805156499 -1.5297800091 -1.0591973756
| 29> H -1.1504582388 2.3072424045 -0.4545712459
| 30> H 0.9015259638 3.6327963039 -0.1734694885
| 31> H 3.0763394106 2.514980098 0.1425090483
| 32> H 0.2683176543 -2.2283753327 -0.2140982882
| 33> H 2.4410955744 -3.3449364378 0.1013941829
| 34> H 4.4943781413 -2.009406216 0.3686889803
| 35> H 4.38608828 0.4503106278 0.3293415791
| 36> *
| 37> 
| 38>                          ****END OF INPUT****
================================================================================

                       ****************************
                       * Single Point Calculation *
                       ****************************

---------------------------------
CARTESIAN COORDINATES (ANGSTROEM)
---------------------------------
  C     -4.780738   -0.809594    0.136743
  N     -3.420896   -0.852536   -0.351302
  C     -2.456043   -0.049175    0.104019
  O     -2.589478    0.815991    0.949655
  O     -1.277354   -0.354383   -0.504503
  C     -0.149796    0.438089   -0.296897
  C     -0.204623    1.805783   -0.321542
  C      0.969213    2.556346   -0.156609
  C      2.173553    1.936870    0.017252
  C      2.261041    0.528899    0.036857
  C      1.081390   -0.244815   -0.120042
  C      1.172247   -1.651483   -0.094351
  C      2.380214   -2.267612    0.080047
  C      3.549093   -1.506488    0.233053
  C      3.490342   -0.140974    0.211947
  H     -5.049384   -1.762999    0.590077
  H     -5.465699   -0.587759   -0.680512
  H     -4.841742   -0.022593    0.885671
  H     -3.180516   -1.529780   -1.059197
  H     -1.150458    2.307242   -0.454571
  H      0.901526    3.632796   -0.173469
  H      3.076339    2.514980    0.142509
  H      0.268318   -2.228375   -0.214098
  H      2.441096   -3.344936    0.101394
  H      4.494378   -2.009406    0.368689
  H      4.386088    0.450311    0.329342

----------------------------
CARTESIAN COORDINATES (A.U.)
----------------------------
  NO LB      ZA    FRAG     MASS         X           Y           Z
   0 C     6.0000    0    12.011   -9.034285   -1.529912    0.258407
   1 N     7.0000    0    14.007   -6.464557   -1.611060   -0.663864
   2 C     6.0000    0    12.011   -4.641248   -0.092927    0.196568
   3 O     8.0000    0    15.999   -4.893404    1.541999    1.794588
   4 O     8.0000    0    15.999   -2.413849   -0.669687   -0.953372
   5 C     6.0000    0    12.011   -0.283074    0.827867   -0.561053
   6 C     6.0000    0    12.011   -0.386681    3.412435   -0.607627
   7 C     6.0000    0    12.011    1.831547    4.830793   -0.295947
   8 C     6.0000    0    12.011    4.107419    3.660153    0.032602
   9 C     6.0000    0    12.011    4.272749    0.999475    0.069651
  10 C     6.0000    0    12.011    2.043530   -0.462634   -0.226846
  11 C     6.0000    0    12.011    2.215225   -3.120851   -0.178298
  12 C     6.0000    0    12.011    4.497952   -4.285165    0.151266
  13 C     6.0000    0    12.011    6.706814   -2.846849    0.440407
  14 C     6.0000    0    12.011    6.595790   -0.266403    0.400521
  15 H     1.0000    0     1.008   -9.541953   -3.331585    1.115083
  16 H     1.0000    0     1.008  -10.328674   -1.110704   -1.285981
  17 H     1.0000    0     1.008   -9.149567   -0.042695    1.673675
  18 H     1.0000    0     1.008   -6.010304   -2.890865   -2.001593
  19 H     1.0000    0     1.008   -2.174051    4.360056   -0.859015
  20 H     1.0000    0     1.008    1.703637    6.864990   -0.327810
  21 H     1.0000    0     1.008    5.813439    4.752624    0.269303
  22 H     1.0000    0     1.008    0.507047   -4.211019   -0.404587
  23 H     1.0000    0     1.008    4.613002   -6.321014    0.191607
  24 H     1.0000    0     1.008    8.493144   -3.797227    0.696721
  25 H     1.0000    0     1.008    8.288506    0.850964    0.622365

--------------------------------
INTERNAL COORDINATES (ANGSTROEM)
--------------------------------
 C      0   0   0     0.000000000000     0.00000000     0.00000000
 N      1   0   0     1.445407124806     0.00000000     0.00000000
 C      2   1   0     1.335532988918   123.14053407     0.00000000
 O      3   2   1     1.217134691555   125.82035994   358.78091500
 O      3   2   1     1.361160723438   109.77366012   177.73586453
 C      5   3   2     1.393735023588   120.42951480   173.34236476
 C      6   5   3     1.369014461104   122.20606589   315.52249988
 C      7   6   5     1.403010649090   119.92243727   182.40536410
 C      8   7   6     1.365434782325   120.67773590     0.58595344
 C      9   8   7     1.410822211689   120.61273984   359.88681857
 C      6   5   3     1.418962483800   116.54340771   138.44290803
 C     11   6   5     1.409832918947   122.57324781   357.32034564
 C     12  11   6     1.367192121902   120.59092292   180.06657392
 C     13  12  11     1.403210641002   120.36179789   359.84988931
 C     14  13  12     1.366939341133   120.28915611     0.13803536
 H      1   2   3     1.089340219742   110.27511019   241.62256310
 H      1   2   3     1.089168369017   110.14212228   120.53332382
 H      1   2   3     1.088110657714   107.85647483     1.07504057
 H      2   1   3     1.008740722155   118.75649176   178.99328011
 H      7   6   5     1.078778488488   120.11418147     3.20886424
 H      8   7   6     1.078708376440   118.65341328   180.36961511
 H      9   8   7     1.079316834576   120.63254432   179.90291532
 H     12  11   6     1.078995551950   118.51867791     0.00000000
 H     13  12  11     1.079254617745   120.14639782   179.82444587
 H     14  13  12     1.079299850595   119.37513095   180.06511221
 H     15  14  13     1.079704129200   120.64576385   179.98666281

---------------------------
INTERNAL COORDINATES (A.U.)
---------------------------
 C      0   0   0     0.000000000000     0.00000000     0.00000000
 N      1   0   0     2.731423617902     0.00000000     0.00000000
 C      2   1   0     2.523791591872   123.14053407     0.00000000
 O      3   2   1     2.300051235134   125.82035994   358.78091500
 O      3   2   1     2.572220991549   109.77366012   177.73586453
 C      5   3   2     2.633777497835   120.42951480   173.34236476
 C      6   5   3     2.587062404865   122.20606589   315.52249988
 C      7   6   5     2.651305889755   119.92243727   182.40536410
 C      8   7   6     2.580297792325   120.67773590     0.58595344
 C      9   8   7     2.666067603746   120.61273984   359.88681857
 C      6   5   3     2.681450488690   116.54340771   138.44290803
 C     11   6   5     2.664198111396   122.57324781   357.32034564
 C     12  11   6     2.583618682850   120.59092292   180.06657392
 C     13  12  11     2.651683819697   120.36179789   359.84988931
 C     14  13  12     2.583140996424   120.28915611     0.13803536
 H      1   2   3     2.058554681977   110.27511019   241.62256310
 H      1   2   3     2.058229931173   110.14212228   120.53332382
 H      1   2   3     2.056231146480   107.85647483     1.07504057
 H      2   1   3     1.906243705006   118.75649176   178.99328011
 H      7   6   5     2.038595902408   120.11418147     3.20886424
 H      8   7   6     2.038463409838   118.65341328   180.36961511
 H      9   8   7     2.039613229079   120.63254432   179.90291532
 H     12  11   6     2.039006092904   118.51867791     0.00000000
 H     13  12  11     2.039495656308   120.14639782   179.82444587
 H     14  13  12     2.039581134006   119.37513095   180.06511221
 H     15  14  13     2.040345109852   120.64576385   179.98666281

---------------------
BASIS SET INFORMATION
---------------------
There are 4 groups of distinct atoms

 Group   1 Type C   : 11s6p1d contracted to 5s3p1d pattern {62111/411/1}
 Group   2 Type N   : 11s6p2d contracted to 5s3p2d pattern {62111/411/11}
 Group   3 Type O   : 11s6p2d contracted to 5s3p2d pattern {62111/411/11}
 Group   4 Type H   : 4s1p contracted to 2s1p pattern {31/1}

Atom   0C    basis set group =>   1
Atom   1N    basis set group =>   2
Atom   2C    basis set group =>   1
Atom   3O    basis set group =>   3
Atom   4O    basis set group =>   3
Atom   5C    basis set group =>   1
Atom   6C    basis set group =>   1
Atom   7C    basis set group =>   1
Atom   8C    basis set group =>   1
Atom   9C    basis set group =>   1
Atom  10C    basis set group =>   1
Atom  11C    basis set group =>   1
Atom  12C    basis set group =>   1
Atom  13C    basis set group =>   1
Atom  14C    basis set group =>   1
Atom  15H    basis set group =>   4
Atom  16H    basis set group =>   4
Atom  17H    basis set group =>   4
Atom  18H    basis set group =>   4
Atom  19H    basis set group =>   4
Atom  20H    basis set group =>   4
Atom  21H    basis set group =>   4
Atom  22H    basis set group =>   4
Atom  23H    basis set group =>   4
Atom  24H    basis set group =>   4
Atom  25H    basis set group =>   4
---------------------------------
AUXILIARY/J BASIS SET INFORMATION
---------------------------------
There are 4 groups of distinct atoms

 Group   1 Type C   : 12s5p4d2f1g contracted to 6s4p3d1f1g pattern {711111/2111/211/2/1}
 Group   2 Type N   : 12s5p4d2f1g contracted to 6s4p3d1f1g pattern {711111/2111/211/2/1}
 Group   3 Type O   : 12s5p4d2f1g contracted to 6s4p3d1f1g pattern {711111/2111/211/2/1}
 Group   4 Type H   : 5s2p1d contracted to 3s1p1d pattern {311/2/1}

Atom   0C    basis set group =>   1
Atom   1N    basis set group =>   2
Atom   2C    basis set group =>   1
Atom   3O    basis set group =>   3
Atom   4O    basis set group =>   3
Atom   5C    basis set group =>   1
Atom   6C    basis set group =>   1
Atom   7C    basis set group =>   1
Atom   8C    basis set group =>   1
Atom   9C    basis set group =>   1
Atom  10C    basis set group =>   1
Atom  11C    basis set group =>   1
Atom  12C    basis set group =>   1
Atom  13C    basis set group =>   1
Atom  14C    basis set group =>   1
Atom  15H    basis set group =>   4
Atom  16H    basis set group =>   4
Atom  17H    basis set group =>   4
Atom  18H    basis set group =>   4
Atom  19H    basis set group =>   4
Atom  20H    basis set group =>   4
Atom  21H    basis set group =>   4
Atom  22H    basis set group =>   4
Atom  23H    basis set group =>   4
Atom  24H    basis set group =>   4
Atom  25H    basis set group =>   4

Checking for AutoStart:
The File: sp_solv.gbw exists
Trying to determine its content:
     ... Fine, the file contains calculation information
     ... Fine, the calculation information was read
     ... Fine, the file contains a basis set
     ... Fine, the basis set was read
     ... Fine, the file contains a geometry
     ... Fine, the geometry was read
     ... Fine, the file contains a set of orbitals
     ... Fine, the orbitals can be read
     => possible old guess file was deleted
     => GBW file was renamed to GES file
     => GES file is set as startup file
     => Guess is set to MORead
     ... now leaving AutoStart

------------------------------------------------------------------------------
                             ORCA STARTUP CALCULATIONS
                           -- RI-GTO INTEGRALS CHOSEN --
------------------------------------------------------------------------------
------------------------------------------------------------------------------
                   ___                                                        
                  /   \      - P O W E R E D   B Y -                         
                 /     \                                                     
                 |  |  |   _    _      __       _____    __    __             
                 |  |  |  | |  | |    /  \     |  _  \  |  |  /  |          
                  \  \/   | |  | |   /    \    | | | |  |  | /  /          
                 / \  \   | |__| |  /  /\  \   | |_| |  |  |/  /          
                |  |  |   |  __  | /  /__\  \  |    /   |      \           
                |  |  |   | |  | | |   __   |  |    \   |  |\   \          
                \     /   | |  | | |  |  |  |  | |\  \  |  | \   \       
                 \___/    |_|  |_| |__|  |__|  |_| \__\ |__|  \__/        
                                                                              
                      - O R C A' S   B I G   F R I E N D -                    
                                      &                                       
                       - I N T E G R A L  F E E D E R -                       
                                                                              
 v1 FN, 2020, v2 2021, v3 2022-2024                                           
------------------------------------------------------------------------------


----------------------
SHARK INTEGRAL PACKAGE
----------------------

Number of atoms                             ...     26
Number of basis functions                   ...    355
Number of shells                            ...    171
Maximum angular momentum                    ...      2
Integral batch strategy                     ... SHARK/LIBINT Hybrid
RI-J (if used) integral strategy            ... SPLIT-RIJ (Revised 2003 algorithm where possible)
Printlevel                                  ...      1
Contraction scheme used                     ... SEGMENTED contraction
Prescreening option                         ... SCHWARTZ
   Thresh                                   ... 1.000e-10
   Tcut                                     ... 1.000e-11
   Tpresel                                  ... 1.000e-11 
Coulomb Range Separation                    ... NOT USED
Exchange Range Separation                   ... NOT USED
Multipole approximations                    ... NOT USED
Finite Nucleus Model                        ... NOT USED
CABS basis                                  ... NOT available
Auxiliary Coulomb fitting basis             ... AVAILABLE
   # of basis functions in Aux-J            ...    856
   # of shells in Aux-J                     ...    280
   Maximum angular momentum in Aux-J        ...      4
Auxiliary J/K fitting basis                 ... NOT available
Auxiliary Correlation fitting basis         ... NOT available
Auxiliary 'external' fitting basis          ... NOT available

Checking pre-screening integrals            ... done (  0.0 sec) Dimension = 171
Check shell pair data                       ... done (  0.0 sec)
Shell pair information
Shell pair cut-off parameter TPreSel        ...   1.0e-11
Total number of shell pairs                 ...     14706
Shell pairs after pre-screening             ...     11311
Total number of primitive shell pairs       ...     54319
Primitive shell pairs kept                  ...     27524
          la=0 lb=0:   3445 shell pairs
          la=1 lb=0:   4275 shell pairs
          la=1 lb=1:   1328 shell pairs
          la=2 lb=0:   1315 shell pairs
          la=2 lb=1:    812 shell pairs
          la=2 lb=2:    136 shell pairs

Calculating one electron integrals          ... done (  0.0 sec)
Calculating RI/J V-Matrix + Cholesky decomp.... done (  0.1 sec)
Calculating Nuclear repulsion               ... done (  0.0 sec) ENN=    929.888283392105 Eh

Diagonalization of the overlap matrix:
Smallest eigenvalue                        ... 1.504e-05
Time for diagonalization                   ...    0.011 sec
Threshold for overlap eigenvalues          ... 1.000e-07
Number of eigenvalues below threshold      ... 0
Time for construction of square roots      ...    0.021 sec
Total time needed                          ...    0.040 sec

-------------------
DFT GRID GENERATION
-------------------

General Integration Accuracy     IntAcc      ... 4.388
Radial Grid Type                 RadialGrid  ... OptM3 with GC (2021)
Angular Grid (max. ang.)         AngularGrid ... 4 (Lebedev-302)
Angular grid pruning method      GridPruning ... 4 (adaptive)
Weight generation scheme         WeightScheme... mBecke (2022)
Basis function cutoff            BFCut       ... 1.0000e-10
Integration weight cutoff        WCut        ... 1.0000e-14
Partially contracted basis set               ... off
Rotationally invariant grid construction     ... off
Angular grids for H and He will be reduced by one unit
Diffuse basis detected: some atoms will have their outermost
                        angular grid increased by 1.

Total number of grid points                  ...   125860
Total number of batches                      ...     1981
Average number of points per batch           ...       63
Average number of grid points per atom       ...     4841
Initializing property integral containers    ... done (  0.0 sec)

SHARK setup successfully completed in   1.6 seconds

Maximum memory used throughout the entire STARTUP-calculation: 61.5 MB
-------------------------------------------------------------------------------
                                 ORCA GUESS
                   Start orbitals & Density for SCF / CASSCF
-------------------------------------------------------------------------------

------------
SCF SETTINGS
------------
Hamiltonian:
 Density Functional     Method          .... DFT(GTOs)
  Functional kind                       .... Exchange
  Functional name                       .... Re-regularized SCAN exchange by Furness et al
  Functional family                     .... MGGA
  Functional refs                              
    [ 0] J. W. Furness, A. D. Kaplan, J. Ning, J. P. Perdew, and J. Sun.,  J. Phys. Chem. Lett. 11, 8208-8215 (2020), doi: 10.1021/acs.jpclett.0c02405
    [ 1] J. W. Furness, A. D. Kaplan, J. Ning, J. P. Perdew, and J. Sun.,  J. Phys. Chem. Lett. 11, 9248-9248 (2020), doi: 10.1021/acs.jpclett.0c03077
  Functional external parameters        .... 6
    Parameter  0 _c1        =  6.670000e-01 : c1 parameter        
    Parameter  1 _c2        =  8.000000e-01 : c2 parameter        
    Parameter  2 _d         =  1.240000e+00 : d parameter         
    Parameter  3 _k1        =  6.500000e-02 : k1 parameter        
    Parameter  4 _eta       =  1.000000e-03 : eta parameter       
    Parameter  5 _dp2       =  3.610000e-01 : dp2 parameter       
  Functional kind                       .... Correlation
  Functional name                       .... Re-regularized SCAN correlation by Furness et al
  Functional family                     .... MGGA
  Functional refs                              
    [ 0] J. W. Furness, A. D. Kaplan, J. Ning, J. P. Perdew, and J. Sun.,  J. Phys. Chem. Lett. 11, 8208-8215 (2020), doi: 10.1021/acs.jpclett.0c02405
    [ 1] J. W. Furness, A. D. Kaplan, J. Ning, J. P. Perdew, and J. Sun.,  J. Phys. Chem. Lett. 11, 9248-9248 (2020), doi: 10.1021/acs.jpclett.0c03077
  Functional external parameters        .... 1
    Parameter  0 _eta       =  1.000000e-03 : Regularization parameter
 Gradients option       PostSCFGGA      .... off
 RI-approximation to the Coulomb term is turned on
   Number of AuxJ basis functions       .... 856


General Settings:
 Integral files         IntName         .... sp_solv
 Hartree-Fock type      HFTyp           .... RHF
 Total Charge           Charge          ....    0
 Multiplicity           Mult            ....    1
 Number of Electrons    NEL             ....  106
 Basis Dimension        Dim             ....  355
 Nuclear Repulsion      ENuc            ....    929.8882833921 Eh

Convergence Acceleration:
 AO-DIIS                CNVDIIS         .... on
   Start iteration      DIISMaxIt       ....    12
   Startup error        DIISStart       ....  0.200000
   # of expansion vecs  DIISMaxEq       ....     5
   Bias factor          DIISBfac        ....   1.050
   Max. coefficient     DIISMaxC        ....  10.000
 MO-DIIS                CNVKDIIS        .... off
 Trust-Rad. Augm. Hess. CNVTRAH         .... auto
   Auto Start mean grad. ratio tolernc. ....  1.125000
   Auto Start start iteration           ....     1
   Auto Start num. interpolation iter.  ....    10
   Max. Number of Micro iterations      ....    24
   Max. Number of Macro iterations      .... Maxiter - #DIIS iter
   Number of Davidson start vectors     ....     2
   Converg. threshold    (grad. norm)   ....   3.330e-04
   Grad. Scal. Fac. for Micro threshold ....   0.100
   Minimum threshold for Micro iter.    ....   1.000e-02
   NR start threshold (gradient norm)   ....   1.000e-04
   Initial trust radius                 ....   0.400
   Minimum AH scaling param. (alpha)    ....   1.000
   Maximum AH scaling param. (alpha)    .... 1000.000
   Quad. conv. algorithm                .... NR
   White noise on init. David. guess    .... on
   Maximum white noise                  ....   0.010
   Pseudo random numbers                .... off
   Inactive MOs                         .... canonical
   Orbital update algorithm             .... Taylor
   Preconditioner                       .... Diag
   Full preconditioner red. dimension   ....   250
   COSX micro iterations for RIJONX calc.... off
 SOSCF                  CNVSOSCF        .... on
   Start iteration      SOSCFMaxIt      ....   150
   Startup grad/error   SOSCFStart      ....  0.003300
   Hessian update       SOSCFHessUp     .... L-BFGS
 Level Shifting         CNVShift        .... on
   Level shift para.    LevelShift      ....    0.2500
   Turn off err/grad.   ShiftErr        ....    0.0010
 Zerner damping         CNVZerner       .... off
 Static damping         CNVDamp         .... on
   Fraction old density DampFac         ....    0.7000
   Max. Damping (<1)    DampMax         ....    0.9800
   Min. Damping (>=0)   DampMin         ....    0.0000
   Turn off err/grad.   DampErr         ....    0.1000

SCF Procedure:
 Maximum # iterations   MaxIter         ....   125
 SCF integral mode      SCFMode         .... Direct
   Integral package                     .... SHARK and LIBINT hybrid scheme
 Reset frequency        DirectResetFreq ....    20
 Integral Threshold     Thresh          ....  1.000e-10 Eh
 Primitive CutOff       TCut            ....  1.000e-11 Eh

Convergence Tolerance:
 Convergence Check Mode ConvCheckMode   .... Total+1el-Energy
 Convergence forced     ConvForced      .... 0
 Energy Change          TolE            ....  1.000e-06 Eh
 1-El. energy change                    ....  1.000e-03 Eh
 Orbital Gradient       TolG            ....  3.330e-04
 Orbital Rotation angle TolX            ....  3.330e-04
 DIIS Error             TolErr          ....  1.000e-06

---------------------
INITIAL GUESS: MOREAD
---------------------
Guess MOs are being read from file: sp_solv.ges
Input Geometry matches current geometry (good)
Atom 0: N(Shells)= 9 and 6 - projection required
Input basis set needs projection
NBasis(read)= 232
NBasis(calc)= 355
Basis set overlap was calculated
Using GuessMode=FMatrix for the initial guess
C*T matrix was formed
Effective Fockian was calculated
Effective Fockian was diagonalized
Initial density was built
                      ------------------
                      INITIAL GUESS DONE (   0.1 sec)
                      ------------------
             **** ENERGY FILE WAS UPDATED (sp_solv.en.tmp) ****
Finished Guess after   0.3 sec
Maximum memory used throughout the entire GUESS-calculation: 30.7 MB

-------------------------------------------------------------------------------------------
                                      ORCA LEAN-SCF
                              memory conserving SCF solver
-------------------------------------------------------------------------------------------

--------------------
CPCM SOLVATION MODEL
--------------------
CPCM parameters:
  Epsilon                                         ...      78.3550
  Refrac                                          ...       1.3328
  Rsolv                                           ...       1.3000
  Surface type                                    ... GAUSSIAN VDW
  Discretization scheme                           ... Constant charge density
    Threshold for H atoms                         ...       5.0000 (charges/Ang^2)
    Threshold for non-H atoms                     ...       5.0000 (charges/Ang^2)
  Epsilon function type                           ...         CPCM
Solvent:                                          ... WATER
SMD-CDS solvent descriptors:
  Soln                                            ...       1.3328
  Soln25                                          ...       1.3323
  Sola                                            ...       0.0000
  Solb                                            ...       0.0000
  Solg                                            ...       0.0000
  Solc                                            ...       0.0000
  Solh                                            ...       0.0000
Radii:
  Scheme                                          ... Element-dependent radii
  Radius for C  used is    3.4960 Bohr (=   1.8500 Ang.)
  Radius for N  used is    3.5716 Bohr (=   1.8900 Ang.)
  Radius for O  used is    2.8724 Bohr (=   1.5200 Ang.)
  Radius for H  used is    2.2677 Bohr (=   1.2000 Ang.)
Calculating surface                               ...        done! (  0.0s)
Cavity surface points                             ...         1998
Cavity Volume                                     ...    1364.3299
Cavity Surface-area                               ...     805.4814
Calculating surface distance matrix               ...        done! (  0.0s)
Performing Cholesky decomposition & store         ...        done! (  0.1s)
Overall time for CPCM initialization              ...                 0.2s

----------------------------------------D-I-I-S--------------------------------------------
Iteration    Energy (Eh)           Delta-E    RMSDP     MaxDP     DIISErr   Damp  Time(sec)
-------------------------------------------------------------------------------------------
               ***  Starting incremental Fock matrix formation  ***
    1    -668.6916190922255510     0.00e+00  1.91e-02  1.03e+00  6.28e-01  0.700   6.0
    2    -668.7847111700485812    -9.31e-02  1.43e-02  7.58e-01  4.43e-01  0.700   5.2
    3    -668.8504676617043287    -6.58e-02  1.02e-02  5.37e-01  3.11e-01  0.700   5.1
    4    -668.8966439172639866    -4.62e-02  7.13e-03  3.76e-01  2.18e-01  0.700   5.0
                               ***Turning on AO-DIIS***
    5    -668.9290460465207389    -3.24e-02  5.00e-03  2.63e-01  1.53e-01  0.700   4.9
    6    -668.9517566632847547    -2.27e-02  3.50e-03  1.84e-01  1.06e-01  0.700   4.8
    7    -668.9676899961417575    -1.59e-02  2.45e-03  1.28e-01  7.44e-02  0.700   4.7
    8    -668.9788548824077452    -1.12e-02  5.72e-03  2.99e-01  5.23e-02  0.000   4.6
                              *** Initializing SOSCF ***
---------------------------------------S-O-S-C-F--------------------------------------
Iteration    Energy (Eh)           Delta-E    RMSDP     MaxDP     MaxGrad    Time(sec)
--------------------------------------------------------------------------------------
    9    -669.0049485227524428    -2.61e-02  1.96e-05  4.66e-04  2.50e-04     4.9
               *** Restarting incremental Fock matrix formation ***
   10    -669.0049487423767687    -2.20e-07  1.72e-05  5.95e-04  5.18e-05     5.9
                  *** Gradient check signals convergence ***

               *****************************************************
               *                     SUCCESS                       *
               *           SCF CONVERGED AFTER  10 CYCLES          *
               *****************************************************


SMD CDS free energy correction energy :                 5.76900     Kcal/mol
Total Energy after SMD CDS correction =              -668.995755252 Eh
             **** ENERGY FILE WAS UPDATED (sp_solv.en.tmp) ****

----------------
TOTAL SCF ENERGY
----------------

Total Energy       :       -668.99575525195371 Eh          -18204.29999 eV

Components:
Nuclear Repulsion  :        929.88828339210511 Eh           25303.54660 eV
Electronic Energy  :      -1598.86520606571662 Eh          -43507.33413 eV
One Electron Energy:      -2754.18823181354628 Eh          -74945.27193 eV
Two Electron Energy:       1155.32302574782966 Eh           31437.93780 eV
CPCM Dielectric    :         -0.02802606876529 Eh              -0.76263 eV
SMD CDS (Gcds)     :          0.00919349042308 Eh               0.25017 eV

Virial components:
Potential Energy   :      -1335.40348399373488 Eh          -36338.17620 eV
Kinetic Energy     :        666.40772874178117 Eh           18133.87621 eV
Virial Ratio       :          2.00388354816211

DFT components:
N(Alpha)           :       52.999996305419 electrons
N(Beta)            :       52.999996305419 electrons
N(Total)           :      105.999992610839 electrons
E(X)               :      -89.727672925035 Eh       
E(C)               :       -3.477201854273 Eh       
E(XC)              :      -93.204874779309 Eh       

CPCM Solvation Model Properties:
Surface-charge          :         -0.05112688322997
Corrected charge        :         -0.00000000000000
Outlying charge corr.   :          0.00016616584552 Eh               0.00452 eV
Free-energy (cav+disp)  :          0.00919349042308 Eh               0.25017 eV

---------------
SCF CONVERGENCE
---------------

  Last Energy change         ...    2.1962e-07  Tolerance :   1.0000e-06
  Last MAX-Density change    ...    5.9476e-04  Tolerance :   1.0000e-05
  Last RMS-Density change    ...    1.7162e-05  Tolerance :   1.0000e-06
  Last DIIS Error            ...    2.4984e-04  Tolerance :   1.0000e-06
  Last Orbital Gradient      ...    5.1807e-05  Tolerance :   3.3300e-04
  Last Orbital Rotation      ...    3.3141e-04  Tolerance :   3.3300e-04


----------------
ORBITAL ENERGIES
----------------

  NO   OCC          E(Eh)            E(eV) 
   0   2.0000     -19.013664      -517.3881 
   1   2.0000     -18.934649      -515.2380 
   2   2.0000     -14.192297      -386.1920 
   3   2.0000     -10.186728      -277.1950 
   4   2.0000     -10.107990      -275.0524 
   5   2.0000     -10.056680      -273.6562 
   6   2.0000     -10.054133      -273.5869 
   7   2.0000     -10.051790      -273.5231 
   8   2.0000     -10.039823      -273.1975 
   9   2.0000     -10.039412      -273.1863 
  10   2.0000     -10.038992      -273.1749 
  11   2.0000     -10.037955      -273.1467 
  12   2.0000     -10.037100      -273.1234 
  13   2.0000     -10.036469      -273.1062 
  14   2.0000     -10.035645      -273.0838 
  15   2.0000      -1.089550       -29.6482 
  16   2.0000      -0.997357       -27.1395 
  17   2.0000      -0.904087       -24.6015 
  18   2.0000      -0.851895       -23.1812 
  19   2.0000      -0.798545       -21.7295 
  20   2.0000      -0.752520       -20.4771 
  21   2.0000      -0.719627       -19.5820 
  22   2.0000      -0.705012       -19.1843 
  23   2.0000      -0.675579       -18.3834 
  24   2.0000      -0.613028       -16.6813 
  25   2.0000      -0.593721       -16.1560 
  26   2.0000      -0.587255       -15.9800 
  27   2.0000      -0.553813       -15.0700 
  28   2.0000      -0.529034       -14.3958 
  29   2.0000      -0.494098       -13.4451 
  30   2.0000      -0.476239       -12.9591 
  31   2.0000      -0.463840       -12.6217 
  32   2.0000      -0.456599       -12.4247 
  33   2.0000      -0.446815       -12.1584 
  34   2.0000      -0.421957       -11.4820 
  35   2.0000      -0.416812       -11.3420 
  36   2.0000      -0.402842       -10.9619 
  37   2.0000      -0.398947       -10.8559 
  38   2.0000      -0.395184       -10.7535 
  39   2.0000      -0.380015       -10.3407 
  40   2.0000      -0.373510       -10.1637 
  41   2.0000      -0.367252        -9.9934 
  42   2.0000      -0.358583        -9.7575 
  43   2.0000      -0.345031        -9.3888 
  44   2.0000      -0.325823        -8.8661 
  45   2.0000      -0.313364        -8.5271 
  46   2.0000      -0.307649        -8.3716 
  47   2.0000      -0.299082        -8.1384 
  48   2.0000      -0.265718        -7.2305 
  49   2.0000      -0.263258        -7.1636 
  50   2.0000      -0.239428        -6.5152 
  51   2.0000      -0.237625        -6.4661 
  52   2.0000      -0.203706        -5.5431 
  53   0.0000      -0.071883        -1.9560 
  54   0.0000      -0.042537        -1.1575 
  55   0.0000      -0.007782        -0.2118 
  56   0.0000       0.019177         0.5218 
  57   0.0000       0.061439         1.6718 
  58   0.0000       0.063753         1.7348 
  59   0.0000       0.083431         2.2703 
  60   0.0000       0.095285         2.5928 
  61   0.0000       0.109154         2.9702 
  62   0.0000       0.114605         3.1186 
  63   0.0000       0.123387         3.3575 
*Only the first 10 virtual orbitals were printed.

                    ********************************
                    * MULLIKEN POPULATION ANALYSIS *
                    ********************************

-----------------------
MULLIKEN ATOMIC CHARGES
-----------------------
   0 C :   -0.405301
   1 N :   -0.181475
   2 C :    0.360653
   3 O :   -0.560499
   4 O :   -0.162267
   5 C :    0.298857
   6 C :   -0.256607
   7 C :   -0.189031
   8 C :   -0.279194
   9 C :    0.124953
  10 C :    0.013232
  11 C :   -0.290317
  12 C :   -0.182504
  13 C :   -0.170117
  14 C :   -0.236208
  15 H :    0.171169
  16 H :    0.171390
  17 H :    0.186793
  18 H :    0.306426
  19 H :    0.191709
  20 H :    0.181256
  21 H :    0.180240
  22 H :    0.187418
  23 H :    0.179276
  24 H :    0.179747
  25 H :    0.180402
Sum of atomic charges:    0.0000000

--------------------------------
MULLIKEN REDUCED ORBITAL CHARGES
--------------------------------
  0 C s       :     3.345901  s :     3.345901
      pz      :     1.074713  p :     3.022229
      px      :     0.828973
      py      :     1.118542
      dz2     :     0.003555  d :     0.037171
      dxz     :     0.010859
      dyz     :     0.006033
      dx2y2   :     0.011075
      dxy     :     0.005650

  1 N s       :     3.345305  s :     3.345305
      pz      :     1.389148  p :     3.760516
      px      :     1.032483
      py      :     1.338884
      dz2     :     0.006510  d :     0.075654
      dxz     :     0.021599
      dyz     :     0.015016
      dx2y2   :     0.015819
      dxy     :     0.016710

  2 C s       :     3.032257  s :     3.032257
      pz      :     0.789003  p :     2.462001
      px      :     0.870080
      py      :     0.802917
      dz2     :     0.028067  d :     0.145089
      dxz     :     0.037558
      dyz     :     0.015948
      dx2y2   :     0.028223
      dxy     :     0.035294

  3 O s       :     3.843380  s :     3.843380
      pz      :     1.455196  p :     4.689971
      px      :     1.786721
      py      :     1.448054
      dz2     :     0.006130  d :     0.027147
      dxz     :     0.002233
      dyz     :     0.011207
      dx2y2   :     0.005534
      dxy     :     0.002044

  4 O s       :     3.687649  s :     3.687649
      pz      :     1.672811  p :     4.426817
      px      :     1.106455
      py      :     1.647551
      dz2     :     0.003169  d :     0.047801
      dxz     :     0.011561
      dyz     :     0.007152
      dx2y2   :     0.010702
      dxy     :     0.015216

  5 C s       :     3.113042  s :     3.113042
      pz      :     1.014256  p :     2.520349
      px      :     0.746842
      py      :     0.759250
      dz2     :     0.005050  d :     0.067752
      dxz     :     0.009835
      dyz     :     0.009882
      dx2y2   :     0.019686
      dxy     :     0.023301

  6 C s       :     3.261081  s :     3.261081
      pz      :     1.004009  p :     2.959296
      px      :     1.024226
      py      :     0.931061
      dz2     :     0.003400  d :     0.036231
      dxz     :     0.003572
      dyz     :     0.006304
      dx2y2   :     0.012840
      dxy     :     0.010115

  7 C s       :     3.252433  s :     3.252433
      pz      :     0.985733  p :     2.898441
      px      :     0.900159
      py      :     1.012549
      dz2     :     0.003407  d :     0.038157
      dxz     :     0.007344
      dyz     :     0.002595
      dx2y2   :     0.013078
      dxy     :     0.011733

  8 C s       :     3.275493  s :     3.275493
      pz      :     0.998046  p :     2.966371
      px      :     1.015153
      py      :     0.953171
      dz2     :     0.003284  d :     0.037330
      dxz     :     0.004210
      dyz     :     0.005166
      dx2y2   :     0.012475
      dxy     :     0.012194

  9 C s       :     3.171445  s :     3.171445
      pz      :     0.980411  p :     2.655409
      px      :     0.853496
      py      :     0.821502
      dz2     :     0.003859  d :     0.048193
      dxz     :     0.006286
      dyz     :     0.007180
      dx2y2   :     0.014902
      dxy     :     0.015966

 10 C s       :     3.309817  s :     3.309817
      pz      :     1.006889  p :     2.630465
      px      :     0.812797
      py      :     0.810779
      dz2     :     0.003943  d :     0.046487
      dxz     :     0.006113
      dyz     :     0.007133
      dx2y2   :     0.013646
      dxy     :     0.015653

 11 C s       :     3.293902  s :     3.293902
      pz      :     0.987176  p :     2.959126
      px      :     1.041883
      py      :     0.930066
      dz2     :     0.003285  d :     0.037290
      dxz     :     0.004124
      dyz     :     0.005318
      dx2y2   :     0.012612
      dxy     :     0.011951

 12 C s       :     3.236692  s :     3.236692
      pz      :     0.982843  p :     2.908009
      px      :     0.898052
      py      :     1.027114
      dz2     :     0.003344  d :     0.037803
      dxz     :     0.006877
      dyz     :     0.002561
      dx2y2   :     0.013283
      dxy     :     0.011739

 13 C s       :     3.225884  s :     3.225884
      pz      :     0.981597  p :     2.906518
      px      :     0.992740
      py      :     0.932181
      dz2     :     0.003191  d :     0.037715
      dxz     :     0.003323
      dyz     :     0.006190
      dx2y2   :     0.011895
      dxy     :     0.013115

 14 C s       :     3.259666  s :     3.259666
      pz      :     0.988538  p :     2.939232
      px      :     0.993642
      py      :     0.957053
      dz2     :     0.003215  d :     0.037311
      dxz     :     0.003229
      dyz     :     0.006143
      dx2y2   :     0.011107
      dxy     :     0.013616

 15 H s       :     0.810779  s :     0.810779
      pz      :     0.005125  p :     0.018051
      px      :     0.003328
      py      :     0.009598

 16 H s       :     0.810549  s :     0.810549
      pz      :     0.007682  p :     0.018061
      px      :     0.006334
      py      :     0.004045

 17 H s       :     0.794654  s :     0.794654
      pz      :     0.007602  p :     0.018553
      px      :     0.002860
      py      :     0.008090

 18 H s       :     0.661200  s :     0.661200
      pz      :     0.014275  p :     0.032374
      px      :     0.004917
      py      :     0.013181

 19 H s       :     0.788256  s :     0.788256
      pz      :     0.004141  p :     0.020035
      px      :     0.010832
      py      :     0.005061

 20 H s       :     0.799129  s :     0.799129
      pz      :     0.003934  p :     0.019615
      px      :     0.003076
      py      :     0.012605

 21 H s       :     0.800048  s :     0.800048
      pz      :     0.004196  p :     0.019713
      px      :     0.009685
      py      :     0.005832

 22 H s       :     0.792609  s :     0.792609
      pz      :     0.004122  p :     0.019973
      px      :     0.010044
      py      :     0.005806

 23 H s       :     0.801176  s :     0.801176
      pz      :     0.003930  p :     0.019548
      px      :     0.003073
      py      :     0.012545

 24 H s       :     0.800713  s :     0.800713
      pz      :     0.004071  p :     0.019540
      px      :     0.010388
      py      :     0.005081

 25 H s       :     0.799946  s :     0.799946
      pz      :     0.004070  p :     0.019653
      px      :     0.009737
      py      :     0.005846


------------------------
MULLIKEN OVERLAP CHARGES
------------------------
B(  0-C ,  1-N ) :   0.5139 B(  0-C ,  2-C ) :  -0.1743 B(  0-C , 15-H ) :   0.8047 
B(  0-C , 16-H ) :   0.8048 B(  0-C , 17-H ) :   0.8247 B(  0-C , 18-H ) :  -0.0575 
B(  1-N ,  2-C ) :   0.8004 B(  1-N ,  3-O ) :  -0.2380 B(  1-N ,  4-O ) :  -0.3221 
B(  1-N , 15-H ) :  -0.0828 B(  1-N , 16-H ) :  -0.0837 B(  1-N , 17-H ) :  -0.0540 
B(  1-N , 18-H ) :   0.7443 B(  2-C ,  3-O ) :   1.1195 B(  2-C ,  4-O ) :   0.6730 
B(  2-C ,  5-C ) :  -0.3242 B(  2-C ,  6-C ) :  -0.1396 B(  2-C , 10-C ) :   0.0629 
B(  2-C , 18-H ) :  -0.0664 B(  3-O ,  4-O ) :  -0.2000 B(  3-O ,  6-C ) :   0.0745 
B(  4-O ,  5-C ) :   0.3723 B(  4-O ,  6-C ) :  -0.0862 B(  4-O , 10-C ) :  -0.1822 
B(  4-O , 11-C ) :   0.0610 B(  5-C ,  6-C ) :   0.6623 B(  5-C ,  8-C ) :  -0.4079 
B(  5-C , 10-C ) :   0.4671 B(  5-C , 11-C ) :  -0.4084 B(  5-C , 14-C ) :   0.0961 
B(  5-C , 19-H ) :  -0.0646 B(  6-C ,  7-C ) :   0.5404 B(  6-C ,  9-C ) :  -0.2896 
B(  6-C , 10-C ) :  -0.1709 B(  6-C , 11-C ) :   0.1043 B(  6-C , 19-H ) :   0.8147 
B(  6-C , 20-H ) :  -0.0932 B(  7-C ,  8-C ) :   0.6929 B(  7-C , 10-C ) :  -0.1277 
B(  7-C , 19-H ) :  -0.0651 B(  7-C , 20-H ) :   0.8573 B(  7-C , 21-H ) :  -0.0584 
B(  8-C ,  9-C ) :   0.6278 B(  8-C , 10-C ) :   0.0540 B(  8-C , 11-C ) :   0.1122 
B(  8-C , 14-C ) :  -0.3883 B(  8-C , 20-H ) :  -0.0835 B(  8-C , 21-H ) :   0.8328 
B(  9-C , 10-C ) :   0.4953 B(  9-C , 11-C ) :  -0.2680 B(  9-C , 12-C ) :  -0.1022 
B(  9-C , 13-C ) :  -0.0804 B(  9-C , 14-C ) :   0.6033 B(  9-C , 21-H ) :  -0.0826 
B(  9-C , 25-H ) :  -0.0871 B( 10-C , 11-C ) :   0.6921 B( 10-C , 12-C ) :  -0.0784 
B( 10-C , 13-C ) :  -0.1001 B( 10-C , 14-C ) :   0.0693 B( 10-C , 22-H ) :  -0.0875 
B( 11-C , 12-C ) :   0.5201 B( 11-C , 14-C ) :  -0.3344 B( 11-C , 22-H ) :   0.8588 
B( 11-C , 23-H ) :  -0.0805 B( 12-C , 13-C ) :   0.6736 B( 12-C , 22-H ) :  -0.0761 
B( 12-C , 23-H ) :   0.8447 B( 12-C , 24-H ) :  -0.0801 B( 13-C , 14-C ) :   0.7488 
B( 13-C , 23-H ) :  -0.0834 B( 13-C , 24-H ) :   0.8369 B( 13-C , 25-H ) :  -0.0613 
B( 14-C , 24-H ) :  -0.0771 B( 14-C , 25-H ) :   0.8386 B( 15-H , 16-H ) :  -0.0507 



                     *******************************
                     * LOEWDIN POPULATION ANALYSIS *
                     *******************************

----------------------
LOEWDIN ATOMIC CHARGES
----------------------
   0 C :   -0.103224
   1 N :   -0.575951
   2 C :    0.461417
   3 O :   -0.485667
   4 O :   -0.510618
   5 C :    0.214524
   6 C :   -0.128960
   7 C :   -0.159894
   8 C :   -0.155637
   9 C :   -0.066054
  10 C :   -0.031055
  11 C :   -0.138685
  12 C :   -0.165717
  13 C :   -0.167146
  14 C :   -0.146456
  15 H :    0.181489
  16 H :    0.181948
  17 H :    0.200045
  18 H :    0.295641
  19 H :    0.197868
  20 H :    0.182423
  21 H :    0.184042
  22 H :    0.191257
  23 H :    0.180170
  24 H :    0.179824
  25 H :    0.184415

-------------------------------
LOEWDIN REDUCED ORBITAL CHARGES
-------------------------------
  0 C s       :     2.886505  s :     2.886505
      pz      :     1.088100  p :     3.127306
      px      :     0.925551
      py      :     1.113655
      dz2     :     0.007340  d :     0.089414
      dxz     :     0.026570
      dyz     :     0.016143
      dx2y2   :     0.026267
      dxy     :     0.013093

  1 N s       :     3.095943  s :     3.095943
      pz      :     1.397560  p :     3.973615
      px      :     1.208988
      py      :     1.367067
      dz2     :     0.061014  d :     0.506393
      dxz     :     0.121691
      dyz     :     0.072399
      dx2y2   :     0.130379
      dxy     :     0.120911

  2 C s       :     2.663064  s :     2.663064
      pz      :     0.838024  p :     2.564331
      px      :     0.857073
      py      :     0.869234
      dz2     :     0.053833  d :     0.311187
      dxz     :     0.080147
      dyz     :     0.041192
      dx2y2   :     0.060582
      dxy     :     0.075433

  3 O s       :     3.537897  s :     3.537897
      pz      :     1.504634  p :     4.727673
      px      :     1.710673
      py      :     1.512367
      dz2     :     0.041874  d :     0.220097
      dxz     :     0.038206
      dyz     :     0.060702
      dx2y2   :     0.038988
      dxy     :     0.040326

  4 O s       :     3.428603  s :     3.428603
      pz      :     1.673104  p :     4.619061
      px      :     1.295747
      py      :     1.650209
      dz2     :     0.061596  d :     0.462954
      dxz     :     0.106573
      dyz     :     0.049722
      dx2y2   :     0.121906
      dxy     :     0.123157

  5 C s       :     2.771236  s :     2.771236
      pz      :     0.940419  p :     2.865316
      px      :     0.903682
      py      :     1.021215
      dz2     :     0.010710  d :     0.148923
      dxz     :     0.019413
      dyz     :     0.019001
      dx2y2   :     0.046236
      dxy     :     0.053563

  6 C s       :     2.893340  s :     2.893340
      pz      :     0.995454  p :     3.156753
      px      :     1.102159
      py      :     1.059139
      dz2     :     0.005683  d :     0.078867
      dxz     :     0.005956
      dyz     :     0.011552
      dx2y2   :     0.029779
      dxy     :     0.025898

  7 C s       :     2.902797  s :     2.902797
      pz      :     0.976402  p :     3.173914
      px      :     1.090361
      py      :     1.107152
      dz2     :     0.005839  d :     0.083183
      dxz     :     0.013946
      dyz     :     0.003991
      dx2y2   :     0.031680
      dxy     :     0.027727

  8 C s       :     2.897536  s :     2.897536
      pz      :     0.991676  p :     3.176630
      px      :     1.111130
      py      :     1.073824
      dz2     :     0.005608  d :     0.081471
      dxz     :     0.007083
      dyz     :     0.009560
      dx2y2   :     0.029463
      dxy     :     0.029757

  9 C s       :     2.845057  s :     2.845057
      pz      :     0.969194  p :     3.119861
      px      :     1.073410
      py      :     1.077257
      dz2     :     0.007036  d :     0.101137
      dxz     :     0.011256
      dyz     :     0.012693
      dx2y2   :     0.034286
      dxy     :     0.035865

 10 C s       :     2.835743  s :     2.835743
      pz      :     0.988239  p :     3.098248
      px      :     1.032715
      py      :     1.077294
      dz2     :     0.007073  d :     0.097064
      dxz     :     0.010721
      dyz     :     0.012783
      dx2y2   :     0.031092
      dxy     :     0.035395

 11 C s       :     2.894691  s :     2.894691
      pz      :     0.980090  p :     3.162789
      px      :     1.110492
      py      :     1.072207
      dz2     :     0.005525  d :     0.081205
      dxz     :     0.006923
      dyz     :     0.009851
      dx2y2   :     0.029670
      dxy     :     0.029236

 12 C s       :     2.905708  s :     2.905708
      pz      :     0.973371  p :     3.177672
      px      :     1.095339
      py      :     1.108962
      dz2     :     0.005730  d :     0.082337
      dxz     :     0.012937
      dyz     :     0.003901
      dx2y2   :     0.032101
      dxy     :     0.027668

 13 C s       :     2.906350  s :     2.906350
      pz      :     0.974034  p :     3.178629
      px      :     1.100025
      py      :     1.104571
      dz2     :     0.005440  d :     0.082167
      dxz     :     0.005511
      dyz     :     0.011413
      dx2y2   :     0.028461
      dxy     :     0.031342

 14 C s       :     2.899604  s :     2.899604
      pz      :     0.977197  p :     3.165651
      px      :     1.084581
      py      :     1.103873
      dz2     :     0.005505  d :     0.081202
      dxz     :     0.005573
      dyz     :     0.010984
      dx2y2   :     0.026687
      dxy     :     0.032451

 15 H s       :     0.777370  s :     0.777370
      pz      :     0.011460  p :     0.041141
      px      :     0.006303
      py      :     0.023377

 16 H s       :     0.776926  s :     0.776926
      pz      :     0.019135  p :     0.041126
      px      :     0.012925
      py      :     0.009066

 17 H s       :     0.756984  s :     0.756984
      pz      :     0.017531  p :     0.042971
      px      :     0.005863
      py      :     0.019577

 18 H s       :     0.617935  s :     0.617935
      pz      :     0.037938  p :     0.086424
      px      :     0.013402
      py      :     0.035083

 19 H s       :     0.755453  s :     0.755453
      pz      :     0.009256  p :     0.046678
      px      :     0.026083
      py      :     0.011339

 20 H s       :     0.771846  s :     0.771846
      pz      :     0.008815  p :     0.045731
      px      :     0.006868
      py      :     0.030048

 21 H s       :     0.769871  s :     0.769871
      pz      :     0.009535  p :     0.046087
      px      :     0.023003
      py      :     0.013549

 22 H s       :     0.761926  s :     0.761926
      pz      :     0.009305  p :     0.046817
      px      :     0.024268
      py      :     0.013244

 23 H s       :     0.774150  s :     0.774150
      pz      :     0.008777  p :     0.045680
      px      :     0.006978
      py      :     0.029924

 24 H s       :     0.774510  s :     0.774510
      pz      :     0.009100  p :     0.045666
      px      :     0.024776
      py      :     0.011789

 25 H s       :     0.769689  s :     0.769689
      pz      :     0.009205  p :     0.045896
      px      :     0.023042
      py      :     0.013649


---------------------------------
LOEWDIN BOND ORDERS (THRESH 0.050000)
---------------------------------
B(  0-C ,  1-N ) :   1.3657 B(  0-C ,  2-C ) :   0.0839 B(  0-C , 15-H ) :   0.8569 
B(  0-C , 16-H ) :   0.8569 B(  0-C , 17-H ) :   0.8363 B(  1-N ,  2-C ) :   1.3713 
B(  1-N ,  3-O ) :   0.4332 B(  1-N ,  4-O ) :   0.3701 B(  1-N , 15-H ) :   0.1030 
B(  1-N , 16-H ) :   0.1029 B(  1-N , 17-H ) :   0.1007 B(  1-N , 18-H ) :   0.8460 
B(  2-C ,  3-O ) :   1.9723 B(  2-C ,  4-O ) :   1.2300 B(  2-C ,  5-C ) :   0.0717 
B(  2-C , 18-H ) :   0.0546 B(  3-O ,  4-O ) :   0.3570 B(  3-O ,  6-C ) :   0.0525 
B(  4-O ,  5-C ) :   1.3127 B(  4-O ,  6-C ) :   0.1961 B(  4-O , 10-C ) :   0.1803 
B(  4-O , 11-C ) :   0.0525 B(  5-C ,  6-C ) :   1.4305 B(  5-C ,  7-C ) :   0.0958 
B(  5-C ,  8-C ) :   0.1143 B(  5-C ,  9-C ) :   0.0824 B(  5-C , 10-C ) :   1.1673 
B(  5-C , 11-C ) :   0.0833 B(  5-C , 19-H ) :   0.0547 B(  6-C ,  7-C ) :   1.3857 
B(  6-C ,  8-C ) :   0.0903 B(  6-C ,  9-C ) :   0.0779 B(  6-C , 10-C ) :   0.0840 
B(  6-C , 19-H ) :   0.8441 B(  6-C , 20-H ) :   0.0529 B(  7-C ,  8-C ) :   1.6103 
B(  7-C ,  9-C ) :   0.0898 B(  7-C , 10-C ) :   0.0782 B(  7-C , 20-H ) :   0.8655 
B(  7-C , 21-H ) :   0.0553 B(  8-C ,  9-C ) :   1.3140 B(  8-C , 10-C ) :   0.0779 
B(  8-C , 14-C ) :   0.0943 B(  8-C , 20-H ) :   0.0569 B(  8-C , 21-H ) :   0.8605 
B(  9-C , 10-C ) :   1.2399 B(  9-C , 11-C ) :   0.0760 B(  9-C , 12-C ) :   0.0839 
B(  9-C , 13-C ) :   0.0889 B(  9-C , 14-C ) :   1.3198 B(  9-C , 21-H ) :   0.0510 
B(  9-C , 25-H ) :   0.0512 B( 10-C , 11-C ) :   1.3072 B( 10-C , 12-C ) :   0.0902 
B( 10-C , 13-C ) :   0.0824 B( 10-C , 14-C ) :   0.0783 B( 11-C , 12-C ) :   1.6149 
B( 11-C , 13-C ) :   0.0891 B( 11-C , 14-C ) :   0.1340 B( 11-C , 22-H ) :   0.8493 
B( 11-C , 23-H ) :   0.0574 B( 12-C , 13-C ) :   1.3919 B( 12-C , 14-C ) :   0.0879 
B( 12-C , 22-H ) :   0.0547 B( 12-C , 23-H ) :   0.8683 B( 12-C , 24-H ) :   0.0516 
B( 13-C , 14-C ) :   1.6171 B( 13-C , 23-H ) :   0.0513 B( 13-C , 24-H ) :   0.8688 
B( 13-C , 25-H ) :   0.0550 B( 14-C , 24-H ) :   0.0574 B( 14-C , 25-H ) :   0.8603 


------------------------------------------
LOEWDIN REDUCED ORBITAL POPULATIONS PER MO
-------------------------------------------
THRESHOLD FOR PRINTING IS 0.1%%
                      0         1         2         3         4         5   
                 -19.01366 -18.93465 -14.19230 -10.18673 -10.10799 -10.05668
                   2.00000   2.00000   2.00000   2.00000   2.00000   2.00000
                  --------  --------  --------  --------  --------  --------
 0 C  s               0.0       0.0       0.0       0.0       0.0      99.4
 1 N  s               0.0       0.0      99.8       0.0       0.0       0.0
 1 N  dx2y2           0.0       0.0       0.0       0.0       0.0       0.2
 1 N  dxy             0.0       0.0       0.0       0.2       0.0       0.0
 2 C  s               0.0       0.0       0.0      98.6       0.0       0.0
 3 O  s               0.0      99.9       0.0       0.0       0.0       0.0
 3 O  dyz             0.0       0.0       0.0       0.2       0.0       0.0
 4 O  s              99.9       0.0       0.0       0.0       0.0       0.0
 4 O  dxz             0.0       0.0       0.0       0.1       0.0       0.0
 4 O  dx2y2           0.0       0.0       0.0       0.1       0.0       0.0
 4 O  dxy             0.0       0.0       0.0       0.0       0.2       0.0
 5 C  s               0.0       0.0       0.0       0.0      99.2       0.0
 6 C  py              0.0       0.0       0.0       0.0       0.1       0.0

                      6         7         8         9        10        11   
                 -10.05413 -10.05179 -10.03982 -10.03941 -10.03899 -10.03796
                   2.00000   2.00000   2.00000   2.00000   2.00000   2.00000
                  --------  --------  --------  --------  --------  --------
 6 C  s               0.0       0.0      35.5      64.1       0.0       0.0
 7 C  s               0.0       0.0      63.8      35.3       0.0       0.0
 8 C  s               0.0       0.0       0.3       0.2       0.0       0.0
 8 C  py              0.0       0.1       0.0       0.0       0.0       0.0
 9 C  s               0.5      99.0       0.0       0.0       0.0       0.0
10 C  s              99.0       0.5       0.0       0.0       0.0       0.0
10 C  py              0.0       0.0       0.0       0.0       0.1       0.0
11 C  s               0.0       0.0       0.0       0.0      97.6       0.0
11 C  py              0.1       0.0       0.0       0.0       0.0       0.0
12 C  s               0.0       0.0       0.0       0.0       2.0       0.2
12 C  px              0.0       0.0       0.0       0.0       0.1       0.0
13 C  s               0.0       0.0       0.0       0.0       0.0       4.0
13 C  py              0.0       0.0       0.0       0.0       0.0       0.1
14 C  s               0.0       0.0       0.0       0.0       0.0      95.4

                     12        13        14        15        16        17   
                 -10.03710 -10.03647 -10.03564  -1.08955  -0.99736  -0.90409
                   2.00000   2.00000   2.00000   2.00000   2.00000   2.00000
                  --------  --------  --------  --------  --------  --------
 0 C  s               0.0       0.0       0.0       0.3       0.4       7.3
 0 C  pz              0.0       0.0       0.0       0.0       0.0       0.6
 0 C  px              0.0       0.0       0.0       0.6       0.4       4.4
 0 C  dxz             0.0       0.0       0.0       0.0       0.0       0.1
 0 C  dx2y2           0.0       0.0       0.0       0.0       0.0       0.2
 1 N  s               0.0       0.0       0.0       3.1       1.9      40.6
 1 N  pz              0.0       0.0       0.0       0.2       0.4       0.1
 1 N  px              0.0       0.0       0.0       1.4       0.0       0.2
 1 N  py              0.0       0.0       0.0       0.7       0.5       0.1
 1 N  dz2             0.0       0.0       0.0       0.3       0.0       0.1
 1 N  dxz             0.0       0.0       0.0       0.1       0.1       0.2
 1 N  dyz             0.0       0.0       0.0       0.2       0.5       0.0
 1 N  dx2y2           0.0       0.0       0.0       0.3       0.3       0.3
 1 N  dxy             0.0       0.0       0.0       0.7       0.1       0.0
 2 C  s               0.0       0.0       0.0      16.3       5.3       1.6
 2 C  pz              0.0       0.0       0.0       0.1       8.5       4.3
 2 C  px              0.0       0.0       0.0       2.7       5.7       6.2
 2 C  py              0.0       0.0       0.0       0.1       5.7       9.3
 2 C  dz2             0.0       0.0       0.0       0.0       0.1       0.1
 2 C  dxz             0.0       0.0       0.0       0.3       0.1       0.2
 2 C  dyz             0.0       0.0       0.0       0.5       0.9       0.0
 2 C  dx2y2           0.0       0.0       0.0       0.1       0.6       0.1
 2 C  dxy             0.0       0.0       0.0       0.0       0.0       0.4
 3 O  s               0.0       0.0       0.0      10.7      38.3       6.5
 3 O  pz              0.0       0.0       0.0       1.4       1.6       0.2
 3 O  px              0.0       0.0       0.0       0.1       0.0       0.2
 3 O  py              0.0       0.0       0.0       1.3       1.8       0.3
 3 O  dxz             0.0       0.0       0.0       0.2       0.1       0.2
 3 O  dyz             0.0       0.0       0.0       0.8       0.1       0.4
 3 O  dx2y2           0.0       0.0       0.0       0.0       0.1       0.1
 3 O  dxy             0.0       0.0       0.0       0.1       0.1       0.2
 4 O  s               0.0       0.0       0.0      39.8      16.6       0.5
 4 O  pz              0.0       0.0       0.0       0.9       0.2       0.0
 4 O  px              0.0       0.0       0.0       0.5       1.2       1.7
 4 O  py              0.0       0.0       0.0       1.0       0.2       0.4
 4 O  dz2             0.0       0.0       0.0       0.1       0.0       0.2
 4 O  dxz             0.0       0.0       0.0       0.3       0.5       0.0
 4 O  dyz             0.0       0.0       0.0       0.1       0.2       0.1
 4 O  dx2y2           0.0       0.0       0.0       0.3       0.0       0.6
 4 O  dxy             0.0       0.0       0.0       0.0       0.5       0.1
 5 C  s               0.0       0.0       0.0       4.5       2.5       1.1
 5 C  pz              0.0       0.0       0.0       0.0       0.1       0.0
 5 C  px              0.0       0.0       0.0       4.5       1.1       0.1
 5 C  py              0.0       0.0       0.0       1.3       0.9       0.0
 5 C  dz2             0.0       0.0       0.0       0.2       0.1       0.0
 5 C  dxy             0.0       0.0       0.0       0.3       0.2       0.0
 6 C  s               0.0       0.0       0.0       0.4       0.2       0.3
 6 C  px              0.0       0.0       0.0       0.2       0.0       0.0
 6 C  py              0.0       0.0       0.0       0.9       0.3       0.1
 7 C  s               0.0       0.0       0.5       0.0       0.0       0.1
 7 C  px              0.0       0.0       0.1       0.0       0.0       0.0
 8 C  s               0.0       0.0      99.1       0.0       0.0       0.0
 9 C  py              0.0       0.0       0.1       0.0       0.0       0.0
10 C  s               0.0       0.0       0.0       0.3       0.3       0.3
10 C  px              0.0       0.0       0.0       0.7       0.4       0.1
11 C  s               1.9       0.1       0.0       0.0       0.1       0.1
11 C  px              0.1       0.0       0.0       0.1       0.0       0.0
12 C  s              87.3      10.2       0.0       0.0       0.0       0.0
13 C  s               9.4      86.2       0.0       0.0       0.0       0.0
14 C  s               1.0       3.2       0.0       0.0       0.0       0.0
14 C  py              0.0       0.1       0.0       0.0       0.0       0.0
15 H  s               0.0       0.0       0.0       0.0       0.0       0.6
16 H  s               0.0       0.0       0.0       0.0       0.0       0.6
17 H  s               0.0       0.0       0.0       0.0       0.1       0.7
18 H  s               0.0       0.0       0.0       0.4       0.1       6.2
18 H  pz              0.0       0.0       0.0       0.0       0.0       0.5
18 H  py              0.0       0.0       0.0       0.0       0.0       0.5

                     18        19        20        21        22        23   
                  -0.85190  -0.79854  -0.75252  -0.71963  -0.70501  -0.67558
                   2.00000   2.00000   2.00000   2.00000   2.00000   2.00000
                  --------  --------  --------  --------  --------  --------
 0 C  s               0.3       0.2       1.8       0.0       7.8      15.8
 0 C  px              0.1       0.0       0.1       0.0       0.1       0.3
 1 N  s               0.8       0.2       0.4       0.0       0.1       0.6
 1 N  pz              0.0       0.0       0.0       0.0       0.1       0.4
 1 N  px              0.1       0.2       2.1       0.0       7.8      12.2
 1 N  py              0.0       0.0       0.1       0.0       0.3       0.4
 1 N  dz2             0.0       0.0       0.0       0.0       0.0       0.1
 1 N  dxz             0.0       0.0       0.0       0.0       0.2       0.5
 1 N  dx2y2           0.0       0.0       0.0       0.0       0.1       0.9
 2 C  s               0.0       0.1       0.8       0.0       1.8       1.4
 2 C  pz              0.0       0.0       0.6       0.0       0.9       0.8
 2 C  px              0.6       0.2       0.9       0.0       0.1       1.0
 2 C  py              0.0       0.0       0.3       0.0       1.1       1.2
 3 O  s               0.0       0.0       0.2       0.0       0.3       0.3
 3 O  pz              0.0       0.0       0.0       0.0       0.1       0.1
 3 O  py              0.0       0.0       0.0       0.0       0.1       0.1
 3 O  dyz             0.0       0.0       0.1       0.0       0.1       0.1
 3 O  dx2y2           0.0       0.0       0.0       0.0       0.1       0.1
 4 O  s               0.9       0.4       0.5       0.0       0.0       1.8
 4 O  px              0.8       0.7       6.6       0.2       6.8       1.2
 4 O  py              0.1       0.3       0.4       0.1       1.1       0.1
 4 O  dz2             0.2       0.1       0.2       0.0       0.0       0.4
 4 O  dxz             0.0       0.0       0.1       0.0       0.0       0.0
 4 O  dx2y2           0.1       0.0       0.1       0.2       0.2       0.3
 4 O  dxy             0.2       0.4       0.3       0.0       0.3       0.5
 5 C  s               4.8       4.0       7.5       0.0       3.1       2.1
 5 C  px              3.5       0.2       0.7       1.6       1.1       1.5
 5 C  py              0.2       3.4       0.4       5.9       0.2       2.9
 5 C  dx2y2           0.0       0.1       0.0       0.2       0.0       0.0
 5 C  dxy             0.1       0.0       0.0       0.0       0.0       0.1
 6 C  s               4.2      10.6       0.6      10.8       0.5       3.7
 6 C  px              1.2       1.4       0.5       0.4       0.8       0.4
 6 C  py              0.3       0.1       2.3       0.8       1.5       1.3
 7 C  s               4.7      10.3       3.0       8.3       2.3       1.9
 7 C  px              0.1       0.1       2.4       2.1       0.8       4.7
 7 C  py              1.5       1.3       0.1       0.1       0.0       0.1
 7 C  dxy             0.0       0.0       0.1       0.1       0.0       0.1
 8 C  s               7.0       4.4      10.1       0.1       2.1       7.5
 8 C  px              0.6       2.3       0.1       1.9       0.7       0.1
 8 C  py              1.5       0.3       0.3       4.1       0.5       0.6
 8 C  dx2y2           0.0       0.0       0.0       0.2       0.0       0.0
 9 C  s              15.1       0.0       6.2       9.1       0.1       0.0
 9 C  px              0.4       1.7       4.0       0.5       3.2       0.0
 9 C  py              0.2       4.4       2.3       0.1       0.8       3.3
 9 C  dz2             0.2       0.0       0.1       0.1       0.0       0.0
 9 C  dx2y2           0.0       0.0       0.0       0.0       0.0       0.1
 9 C  dxy             0.0       0.0       0.1       0.0       0.1       0.0
10 C  s              14.5       0.0       5.8       7.3       1.3       0.9
10 C  px              0.7       1.6       4.5       0.6       0.4       0.2
10 C  py              0.2       4.5       1.9       0.5       2.7       1.3
10 C  dz2             0.2       0.0       0.0       0.0       0.0       0.0
10 C  dx2y2           0.0       0.0       0.0       0.0       0.1       0.0
10 C  dxy             0.0       0.0       0.1       0.1       0.0       0.0
11 C  s               6.7       5.4       7.4       0.1       9.4       1.6
11 C  px              0.6       2.2       0.2       2.2       0.2       0.2
11 C  py              1.4       0.2       0.5       4.2       0.1       0.9
11 C  dx2y2           0.0       0.0       0.0       0.2       0.0       0.0
12 C  s               4.6      10.4       1.1      10.6       2.2       1.8
12 C  px              0.1       0.1       2.3       1.1       4.9       0.8
12 C  py              1.5       1.4       0.0       0.2       0.0       0.1
12 C  dxy             0.0       0.0       0.1       0.0       0.1       0.0
13 C  s               4.6      10.3       1.5       9.0       4.7       0.4
13 C  px              1.0       1.4       0.3       0.6       0.9       0.4
13 C  py              0.5       0.1       1.9       1.3       3.0       1.1
13 C  dx2y2           0.0       0.0       0.1       0.0       0.1       0.0
14 C  s               6.9       5.1       7.7       0.0       9.5       1.6
14 C  px              2.0       0.1       0.3       1.6       0.3       0.0
14 C  py              0.0       2.4       0.3       4.8       0.6       0.3
14 C  dx2y2           0.0       0.0       0.0       0.1       0.0       0.0
15 H  s               0.0       0.0       0.3       0.0       1.5       3.7
15 H  py              0.0       0.0       0.0       0.0       0.1       0.2
16 H  s               0.0       0.0       0.3       0.0       1.6       3.7
16 H  pz              0.0       0.0       0.0       0.0       0.1       0.2
16 H  px              0.0       0.0       0.0       0.0       0.1       0.1
17 H  s               0.0       0.0       0.3       0.0       1.4       3.4
17 H  pz              0.0       0.0       0.0       0.0       0.1       0.1
17 H  py              0.0       0.0       0.0       0.0       0.1       0.2
18 H  s               0.1       0.0       0.0       0.0       0.0       0.3
19 H  s               0.3       1.1       0.1       1.9       0.1       0.7
19 H  px              0.0       0.1       0.0       0.1       0.0       0.0
20 H  s               0.4       1.1       0.4       1.4       0.4       0.5
20 H  py              0.0       0.1       0.0       0.1       0.0       0.0
21 H  s               0.6       0.4       1.5       0.0       0.3       1.7
21 H  px              0.0       0.0       0.1       0.0       0.0       0.1
22 H  s               0.6       0.5       1.2       0.0       1.6       0.4
22 H  px              0.0       0.0       0.1       0.0       0.1       0.0
[...]
13 C  dxy             1.0       0.7       0.0       0.0       0.0       0.0
14 C  s               0.1       0.1       0.0       0.0       9.8      12.0
14 C  px              0.3       0.2       0.0       0.0       0.0       0.0
14 C  dxy             1.3       0.9       0.0       0.0       0.0       0.0
17 H  py              0.1       0.0       0.0       0.0       0.0       0.0
18 H  s               5.5       3.3       1.6       0.5       0.0       0.0
18 H  pz              4.8       2.6       0.9       0.3       0.0       0.0
18 H  px              1.4       0.3       0.0       0.1       0.0       0.0
18 H  py              3.8       2.4       1.0       0.2       0.0       0.0
19 H  s               0.2       0.8       0.1       0.1       0.0       0.0
19 H  px              0.3       1.1       0.2       0.1       0.0       0.0
19 H  py              0.1       0.3       0.0       0.0       0.0       0.0
20 H  s               0.2       0.5       0.0       0.0       0.0       0.0
20 H  py              0.4       0.9       0.1       0.0       0.0       0.0
21 H  s               0.3       0.4       0.0       0.0       0.0       0.0
21 H  px              0.3       0.5       0.0       0.0       0.0       0.0
21 H  py              0.2       0.3       0.0       0.0       0.0       0.0
22 H  s               0.4       0.4       0.0       0.0       0.0       0.0
22 H  px              0.4       0.5       0.0       0.0       0.0       0.0
22 H  py              0.3       0.1       0.0       0.0       0.0       0.0
23 H  s               0.4       0.2       0.0       0.0       0.0       0.0
23 H  py              0.6       0.4       0.0       0.0       0.0       0.0
24 H  s               0.3       0.2       0.0       0.0       0.0       0.0
24 H  px              0.5       0.3       0.0       0.0       0.0       0.0
24 H  py              0.1       0.1       0.0       0.0       0.0       0.0
25 H  s               0.3       0.2       0.0       0.0       0.0       0.0
25 H  px              0.4       0.2       0.0       0.0       0.0       0.0
25 H  py              0.2       0.1       0.0       0.0       0.0       0.0

                    342       343       344       345       346       347   
                  21.93368  21.99752  22.04204  22.05195  22.15968  22.19650
                   0.00000   0.00000   0.00000   0.00000   0.00000   0.00000
                  --------  --------  --------  --------  --------  --------
 0 C  s               0.0       1.5      71.8      25.8       0.0       0.1
 2 C  s               0.6       0.0       0.1       0.1       0.7       0.1
 5 C  s              12.1       0.7       3.9       9.4       0.0      10.2
 6 C  s               2.9       6.0       5.9      15.0      21.5       6.3
 7 C  s               1.6      20.4       0.2       2.3      10.7      13.6
 8 C  s              13.9       1.6       2.8      10.2       1.8      11.6
 9 C  s              13.5      18.5       0.8       0.6      16.5       2.3
 9 C  px              0.1       0.0       0.0       0.0       0.0       0.0
10 C  s              18.2      20.1       0.9       0.0      16.4       0.0
11 C  s              12.5       0.1       4.1      12.4       0.3      18.4
12 C  s               5.3      19.9       0.4       6.0      13.8      13.0
13 C  s               2.2       8.8       6.4      11.1      18.0       7.2
14 C  s              16.4       1.9       1.9       6.3       0.0      16.7

                    348       349       350       351       352       353   
                  22.24603  22.31690  22.37165  22.42551  31.91485  43.73154
                   0.00000   0.00000   0.00000   0.00000   0.00000   0.00000
                  --------  --------  --------  --------  --------  --------
 0 C  s               0.0       0.0       0.0       0.2       0.0       0.0
 1 N  s               0.0       0.0       0.0       0.1      99.7       0.0
 2 C  s               1.7       3.8      16.6      75.0       0.0       0.0
 3 O  s               0.0       0.0       0.0       0.1       0.0      98.5
 4 O  s               0.0       0.0       0.0       0.0       0.0       1.4
 4 O  px              0.0       0.0       0.0       0.2       0.0       0.0
 5 C  s              22.8       8.6       8.5      10.7       0.0       0.0
 6 C  s               1.0      12.7       3.4       4.9       0.0       0.0
 7 C  s               7.1      15.2       3.3       1.7       0.0       0.0
 8 C  s              19.1       9.8       6.2       1.7       0.0       0.0
 9 C  s              11.6       0.0      14.9       0.8       0.0       0.0
10 C  s               7.0       0.0      16.7       1.6       0.0       0.0
10 C  py              0.0       0.1       0.0       0.0       0.0       0.0
11 C  s               9.5      13.3      11.0       1.8       0.0       0.0
12 C  s               0.7      12.8       5.9       0.3       0.0       0.0
13 C  s               3.3      12.9       5.1       0.1       0.0       0.0
14 C  s              15.7      10.4       8.0       0.2       0.0       0.0

                    354   
                  43.94160
                   0.00000
                  --------
 3 O  s               1.4
 4 O  s              98.4


                      *****************************
                      * MAYER POPULATION ANALYSIS *
                      *****************************

  NA   - Mulliken gross atomic population
  ZA   - Total nuclear charge
  QA   - Mulliken gross atomic charge
  VA   - Mayer's total valence
  BVA  - Mayer's bonded valence
  FA   - Mayer's free valence

  ATOM       NA         ZA         QA         VA         BVA        FA
  0 C      6.4053     6.0000    -0.4053     3.7673     3.7673    -0.0000
  1 N      7.1815     7.0000    -0.1815     3.1672     3.1672     0.0000
  2 C      5.6393     6.0000     0.3607     4.1140     4.1140    -0.0000
  3 O      8.5605     8.0000    -0.5605     1.9167     1.9167     0.0000
  4 O      8.1623     8.0000    -0.1623     2.0477     2.0477    -0.0000
  5 C      5.7011     6.0000     0.2989     3.4755     3.4755     0.0000
  6 C      6.2566     6.0000    -0.2566     3.7093     3.7093     0.0000
  7 C      6.1890     6.0000    -0.1890     3.7037     3.7037     0.0000
  8 C      6.2792     6.0000    -0.2792     3.6424     3.6424     0.0000
  9 C      5.8750     6.0000     0.1250     3.5899     3.5899    -0.0000
 10 C      5.9868     6.0000     0.0132     3.8356     3.8356    -0.0000
 11 C      6.2903     6.0000    -0.2903     3.6722     3.6722    -0.0000
 12 C      6.1825     6.0000    -0.1825     3.6933     3.6933    -0.0000
 13 C      6.1701     6.0000    -0.1701     3.7150     3.7150     0.0000
 14 C      6.2362     6.0000    -0.2362     3.6481     3.6481     0.0000
 15 H      0.8288     1.0000     0.1712     0.9513     0.9513     0.0000
 16 H      0.8286     1.0000     0.1714     0.9513     0.9513    -0.0000
 17 H      0.8132     1.0000     0.1868     0.9560     0.9560     0.0000
 18 H      0.6936     1.0000     0.3064     0.9028     0.9028     0.0000
 19 H      0.8083     1.0000     0.1917     0.9507     0.9507     0.0000
 20 H      0.8187     1.0000     0.1813     0.9582     0.9582    -0.0000
 21 H      0.8198     1.0000     0.1802     0.9601     0.9601     0.0000
 22 H      0.8126     1.0000     0.1874     0.9546     0.9546    -0.0000
 23 H      0.8207     1.0000     0.1793     0.9584     0.9584    -0.0000
 24 H      0.8203     1.0000     0.1797     0.9582     0.9582     0.0000
 25 H      0.8196     1.0000     0.1804     0.9598     0.9598     0.0000

  Mayer bond orders larger than 0.100000
B(  0-C ,  1-N ) :   0.8890 B(  0-C , 15-H ) :   0.9534 B(  0-C , 16-H ) :   0.9537 
B(  0-C , 17-H ) :   0.9595 B(  1-N ,  2-C ) :   1.3265 B(  1-N , 18-H ) :   0.8868 
B(  2-C ,  3-O ) :   1.7725 B(  2-C ,  4-O ) :   1.0587 B(  4-O ,  5-C ) :   0.8686 
B(  5-C ,  6-C ) :   1.4583 B(  5-C , 10-C ) :   1.2652 B(  5-C , 11-C ) :  -0.1024 
B(  6-C ,  7-C ) :   1.2037 B(  6-C , 19-H ) :   0.9488 B(  7-C ,  8-C ) :   1.4643 
B(  7-C , 20-H ) :   0.9713 B(  8-C ,  9-C ) :   1.1662 B(  8-C , 21-H ) :   0.9588 
B(  9-C , 10-C ) :   1.3451 B(  9-C , 14-C ) :   1.1875 B( 10-C , 11-C ) :   1.2312 
B( 11-C , 12-C ) :   1.4568 B( 11-C , 22-H ) :   0.9707 B( 12-C , 13-C ) :   1.2355 
B( 12-C , 23-H ) :   0.9627 B( 13-C , 14-C ) :   1.4762 B( 13-C , 24-H ) :   0.9591 
B( 14-C , 25-H ) :   0.9586 

-------
TIMINGS
-------

Total SCF time: 0 days 0 hours 0 min 51 sec 

Total time                  ....      51.888 sec
Sum of individual times     ....      51.369 sec  ( 99.0%)

SCF preparation             ....       0.389 sec  (  0.8%)
Fock matrix formation       ....      49.552 sec  ( 95.5%)
  Startup                   ....       0.068 sec  (  0.1% of F)
  Split-RI-J                ....      10.443 sec  ( 21.1% of F)
  XC integration            ....      27.123 sec  ( 54.7% of F)
    XC Preparation          ....       0.000 sec  (  0.0% of XC)
    Basis function eval.    ....       4.329 sec  ( 16.0% of XC)
    Density eval.           ....       9.749 sec  ( 35.9% of XC)
    XC-Functional eval.     ....       2.238 sec  (  8.3% of XC)
    XC-Potential eval.      ....       9.843 sec  ( 36.3% of XC)
  CPCM terms                ....      11.320 sec  ( 22.8% of F)
Diagonalization             ....       0.000 sec  (  0.0%)
Density matrix formation    ....       0.286 sec  (  0.6%)
Total Energy calculation    ....       0.049 sec  (  0.1%)
Population analysis         ....       0.225 sec  (  0.4%)
Orbital Transformation      ....       0.088 sec  (  0.2%)
Orbital Orthonormalization  ....       0.000 sec  (  0.0%)
DIIS solution               ....       0.703 sec  (  1.4%)
  MO trafo                  ....       0.000 sec  (  0.0 % of DIIS)
  Orb grad                  ....       0.000 sec  (  0.0 % of DIIS)
  Energy W gradient         ....       0.000 sec  (  0.0 % of DIIS)
  DIIS error                ....       0.045 sec  (  6.4 % of DIIS)
  DIIS work                 ....       0.591 sec  ( 84.2 % of DIIS)
  Form Q                    ....       0.000 sec  (  0.0 % of DIIS)
  Form QpQm                 ....       0.000 sec  (  0.0 % of DIIS)
  Exp/Cayley                ....       0.000 sec  (  0.0 % of DIIS)
  Orb update                ....       0.000 sec  (  0.0 % of DIIS)
  Wake-sleep                ....       0.021 sec  (  3.0 % of DIIS)
SOSCF solution              ....       0.078 sec  (  0.1%)
  MO trafo                  ....       0.057 sec  ( 73.9 % of SOSCF)
  Orb grad                  ....       0.001 sec  (  0.8 % of SOSCF)
  Rot update                ....       0.000 sec  (  0.1 % of SOSCF)
  Step                      ....       0.019 sec  ( 25.0 % of SOSCF)
Finished LeanSCF after  52.0 sec

Maximum memory used throughout the entire LEANSCF-calculation: 55.9 MB


-------------------------------------------------------------------------------
                          DFT DISPERSION CORRECTION                            
                                                                               
                                DFTD4 V3.4.0                                   
-------------------------------------------------------------------------------
The R2SCAN3C composite method is recognized
Using three-body term ABC
Active option DFTDOPT                   ...         5   

-------------------------   ----------------
Dispersion correction           -0.010534966
-------------------------   ----------------

------------------   -----------------
gCP correction             0.014942991
------------------   -----------------

-------------------------   --------------------
FINAL SINGLE POINT ENERGY      -668.991347227533
-------------------------   --------------------


------------------------------------------------------------------------------
                              ORCA PROPERTY CALCULATIONS
------------------------------------------------------------------------------

GBWName                                 ... sp_solv.gbw
Number of atoms                         ...     26
Number of basis functions               ...    355
Max core memory                         ...   1024 MB

Electric properties:
Dipole moment                           ... YES
Quadrupole moment                       ...  NO
Static polarizability (Dipole/Dipole)   ...  NO
Static polarizability (Dipole/Quad.)    ...  NO
Static polarizability (Quad./Quad.)     ...  NO
Static polarizability (Velocity)        ...  NO

Atomic electric properties:
Dipole moment                           ...  NO
Quadrupole moment                       ...  NO
Static polarizability                   ...  NO

Choice of electric origin               ... Center of mass
Position of electric origin             ...     0.000001    -0.000007    -0.000003

General magnetic properties:
Magnetizability                         ...  NO

EPR properties:
g-Tensor (aka g-matrix)                 ...  NO
Zero-Field splitting spin-orbit         ...  NO
Zero-field splitting spin-spin          ...  NO
Hyperfine couplings                     ...  NO (   0 nuclei)
Quadrupole couplings                    ...  NO (   0 nuclei)
Contact density                         ...  NO (   0 nuclei)

NMR properties:
Chemical shifts                         ...  NO (   0 nuclei)
Spin-rotation constants                 ...  NO (   0 nuclei)
Spin-spin couplings                     ...  NO (   0 nuclei,    0 pairs)

Choice of magnetic origin               ... GIAO
Position of magnetic origin             ...     0.000000     0.000000     0.000000

Properties with geometric perturbations:
SCF Hessian                             ...  NO
IR spectrum                             ...  NO
VCD spectrum                            ...  NO
X-ray spectroscopy properties:
SCF XES/XAS/RIXS spectra                ...  NO


-------------
DIPOLE MOMENT
-------------

Method             : SCF
Type of density    : Electron Density
Multiplicity       :   1
Irrep              :   0
Energy             :  -668.9957552519537103 Eh
Relativity type    : 
Basis              : AO
                                X                 Y                 Z
Electronic contribution:      3.537027363       1.240878465      -0.865416774
Nuclear contribution   :     -3.941368532      -2.418814647      -0.149353423
                        -----------------------------------------
Total Dipole Moment    :     -0.404341168      -1.177936182      -1.014770197
                        -----------------------------------------
Magnitude (a.u.)       :      1.606481865
Magnitude (Debye)      :      4.083352391



--------------------
Rotational spectrum 
--------------------
 
Rotational constants in cm-1:             0.042002             0.012525             0.009968 
Rotational constants in MHz :          1259.183772           375.495405           298.836520 

Dipole components along the rotational axes: 
x,y,z [a.u.] :     0.404345    -1.177934    -1.014771 
x,y,z [Debye]:     1.027764    -2.994070    -2.579343 

 

Dipole moment calculation done in   0.0 sec 

Maximum memory used throughout the entire PROP-calculation: 27.3 MB

--------------------------------
SUGGESTED CITATIONS FOR THIS RUN
--------------------------------

Below you find a list of papers that are relevant to this ORCA run
We neither can nor want to force you to cite these papers, but we appreciate if you do
You receive ORCA, which is the product of decades of hard work by many enthusiastic individuals, for free
The only thing we kindly ask in return is that you cite our papers,
We deeply appreciate it, if you show your appreciation for ORCA by not just citing the generic ORCA reference.

Please note that relegating all ORCA citations to the supporting information does *not* help us.
SI sections are not indexed - citations you put there will not count into any citation statistics
But we need these citations in order to attract the funding resources that allow us to do what we are doing

Therefore, if you are a happy ORCA user, please consider citing a few of the papers listed below in the main body of your paper

In addition to the list printed below, the program has created the file sp_solv.bibtex that contains the list in bibtex format
You can import this file easily into all common literature databanks and citation aid programs


List of essential papers. We consider these as the minimum necessary citations

  1. Neese,F.
     Software update: the ORCA program system, version 5.0
     WIRES Comput. Molec. Sci., 2022 12(1)e1606
     doi.org/10.1002/wcms.1606
  2. Grimme,S.; Hansen,A.; Ehlert,S.; Mewes,J.
     r2SCAN-3c: A 'Swiss army knife' composite electronic-structure method
     J. Chem. Phys., 2021 154 064103
     doi.org/10.1063/5.0040021

List of papers to cite with high priority. The work reported in these papers was absolutely
necessary for this run to complete.
Our perspective: the developers of density functionals and basis sets usually get cited in chemistry papers
Good! But without the algorithms to do something with them, the functionals or basis sets would not do anything.
Hence, in our opinion, the algorithm design and method developments papers are equally worthy of getting cited

  1. Neese,F.
     An improvement of the resolution of the identity approximation for the formation of the Coulomb matrix
     J. Comp. Chem., 2003 24(14)1740-1747
     doi.org/10.1002/jcc.10318
  2. Garcia-Rates,M.; Neese,F.
     Effect of the Solute Cavity on the Solvation Energy and its Derivatives within the Framework of the Gaussian Charge Scheme
     J. Comput. Chem., 2020 41 922-939
     doi.org/10.1002/jcc.26139
  3. Neese,F.
     The SHARK Integral Generation and Digestion System
     J. Comp. Chem., 2022  1-16
     doi.org/10.1002/jcc.26942
  4. Lehtola,S.; Steigemann,C.; Oliveira,M.; Marques,M.
     Recent developments in Libxc - A comprehensive library of functionals for density functional theory
     Software X, 2018 7 
     doi.org/10.1016/j.softx.2017.11.002
  5. Caldeweyher,E.; Bannwarth,C.; Grimme,S.
     Extension of the D3 dispersion coefficient model
     J. Chem. Phys., 2017 147 034112-XXXX
     doi.org/10.1063/1.4993215
  6. Caldeweyher,E.; Ehlert,S.; Hansen,A.; Neugebauer,H.; Spicher,S.; Bannwarth,C.; Grimme,S.
     A generally applicable atomic-charge dependent London dispersion correction
     J. Chem. Phys., 2019 150 154122-XXXX
     doi.org/10.1063/1.5090222
  7. Caldeweyher,E.; Mewes,J.; Ehlert,S.; Grimme,S.
     Extension and evaluation of the D4 London-dispersion model for periodic systems
     Phys. Chem. Chem. Phys., 2020 22(16)8499-8512
     doi.org/10.1039/D0CP00502A

List of suggested additional citations. These are papers that are important in the 'surrounding' of 
of this run, or papers that preceded the highly important papers. If you like your results we are grateful for a citation.

  1. Neese,F.
     The ORCA program system
     WIRES Comput. Molec. Sci., 2012 2(1)73-78
     doi.org/10.1002/wcms.81
  2. Neese,F.
     Software update: the ORCA program system, version 4.0
     WIRES Comput. Molec. Sci., 2018 8(1)1-6
     doi.org/10.1002/wcms.1327
  3. Neese,F.; Wennmohs,F.; Becker,U.; Riplinger,C.
     The ORCA quantum chemistry program package
     J. Chem. Phys., 2020 152 Art. No. L224108
     doi.org/10.1063/5.0004608

List of optional additional citations

  1. Neese,F.
     Approximate second-order SCF convergence for spin unrestricted wavefunctions
     Chem. Phys. Lett., 2000 325(1-3)93-98
     doi.org/10.1016/s0009-2614(00)00662-x

Timings for individual modules:

Sum of individual times          ...       54.167 sec (=   0.903 min)
Startup calculation              ...        1.668 sec (=   0.028 min)   3.1 %
SCF iterations                   ...       52.390 sec (=   0.873 min)  96.7 %
Property calculations            ...        0.109 sec (=   0.002 min)   0.2 %
                             ****ORCA TERMINATED NORMALLY****
TOTAL RUN TIME: 0 days 0 hours 0 minutes 54 seconds 846 msec
