15
 energy: -30.427134333711 gnorm: 0.041775715142 xtb: 6.7.1 (edcfbbe)
C           -1.07867035548062       -1.87741938361776        0.00000820460413
C            0.25667276546915       -1.49518318625351        0.00002244271447
C            0.53551188391565       -0.13198779729273        0.00004028163831
C           -0.44950068130455        0.84773477442265        0.00010195385761
C           -1.77796111336982        0.43386270824786        0.00007906497412
C           -2.09456667618934       -0.92791369609009       -0.00001265559436
O           -2.73546133339503        1.40938369687274        0.00005802988806
N            1.93686263102061        0.29932296842788       -0.00006414451315
O            2.81303701958228       -0.56447213306277       -0.00009064810736
O            2.17778405602247        1.50572604767712        0.00002856631608
H           -1.33436790137024       -2.93122653035138       -0.00003095225711
H            1.05282784034201       -2.22716267917371        0.00005388252791
H           -0.20095548289775        1.90114095345356        0.00017756141986
H           -3.13628582185410       -1.23532672223627       -0.00011647252624
H           -3.61341871677959        1.00103717885622       -0.00002532011070
15
 energy: -30.428647908776 gnorm: 0.021966188896 xtb: 6.7.1 (edcfbbe)
C           -1.07593407703038       -1.87189426484912       -0.00001143119059
C            0.25440233098965       -1.48887101955759        0.00002302590844
C            0.54143963181630       -0.12946521446861        0.00006323877751
C           -0.44643112456720        0.84410176278052        0.00008386310889
C           -1.77634730506057        0.43638483236208        0.00004024741820
C           -2.08687131348420       -0.92433351840641       -0.00002384593294
O           -2.72977323319089        1.40126048582668        0.00006140211445
N            1.92316361937048        0.29355393423895        0.00007984044620
O            2.79217256510907       -0.56566565979481       -0.00012051919292
O            2.16487756206040        1.49119210560386       -0.00001342402300
H           -1.33008240908674       -2.92098630440487       -0.00003602242868
H            1.05150491737222       -2.21426287789100        0.00002418704919
H           -0.19642744419652        1.89278510061628        0.00013643336535
H           -3.12113715252738       -1.23692755984033       -0.00007770093601
H           -3.61304845386308        1.00064439766417        0.00000050034754
15
 energy: -30.429028716621 gnorm: 0.008489334316 xtb: 6.7.1 (edcfbbe)
C           -1.07415727637297       -1.87060934881334       -0.00000166732597
C            0.25333974306704       -1.48637973196077       -0.00000296243570
C            0.54908328442857       -0.12707067282702       -0.00002782688972
C           -0.44547684060911        0.84119678613133        0.00004702050383
C           -1.77780953297575        0.43975658193526        0.00004482897332
C           -2.08258670404676       -0.92243640907912        0.00001440026802
O           -2.72601559604798        1.39622006809493        0.00006227451114
N            1.91354962992338        0.28969721270516       -0.00027574736815
O            2.78054938764154       -0.56703617277732        0.00012603023490
O            2.15734660207131        1.48353931294025        0.00022228970298
H           -1.32717352112901       -2.91747780744388       -0.00002670373960
H            1.05354594768997       -2.20670475643035       -0.00004097516298
H           -0.19413120011941        1.88820099579816        0.00005193932166
H           -3.11291638167141       -1.24010635103061        0.00000249885170
H           -3.61563942813827        1.00672649263713        0.00003439538619
15
 energy: -30.429067105045 gnorm: 0.004071330979 xtb: 6.7.1 (edcfbbe)
C           -1.07401302978743       -1.87149185321815       -0.00004457524168
C            0.25314143736894       -1.48702339242961        0.00000053586942
C            0.55086435237711       -0.12672303859311        0.00014732134397
C           -0.44634633912225        0.84024658776485        0.00006416643773
C           -1.77926595552725        0.44037738705404        0.00001874256836
C           -2.08269681025267       -0.92282270970184       -0.00003078579449
O           -2.72577463670270        1.39608433256495        0.00003926175858
N            1.91276002148856        0.28949334278979        0.00066786298768
O            2.78183109546474       -0.56724920366043       -0.00038762809094
O            2.15831306383132        1.48444544326536       -0.00028119607260
H           -1.32685492963025       -2.91863838282487       -0.00006672776271
H            1.05483728170603       -2.20645161279884        0.00003996208920
H           -0.19457394521494        1.88781916165602        0.00013409624341
H           -3.11322710011709       -1.24176588232602       -0.00007892899671
H           -3.61748639217097        1.01121602033767        0.00000768749240
15
 energy: -30.429075015461 gnorm: 0.001614701384 xtb: 6.7.1 (edcfbbe)
C           -1.07385276305002       -1.87243809659377        0.00008456362380
C            0.25311099595280       -1.48804229191757       -0.00004874056659
C            0.55182762814867       -0.12676936569855       -0.00048209655259
C           -0.44726651667648        0.83924388102106       -0.00004889255634
C           -1.78047691179220        0.44043575807171        0.00007796168086
C           -2.08308124250119       -0.92354242685946        0.00012283231009
O           -2.72544912792586        1.39640111636097        0.00011568790196
N            1.91210577768373        0.28958943438568       -0.00246670293809
O            2.78396453356662       -0.56676901165729        0.00141550602449
O            2.15936787596968        1.48589211792628        0.00145574558116
H           -1.32670729279899       -2.91997707279995        0.00007121262327
H            1.05608549340706       -2.20683142475183       -0.00027998751903
H           -0.19503980894305        1.88745058023331       -0.00021100621973
H           -3.11406213637069       -1.24327795004084        0.00027555395633
H           -3.61901839095896        1.01615095220006        0.00014815748202
15
 energy: -30.429069852147 gnorm: 0.002523901672 xtb: 6.7.1 (edcfbbe)
C           -1.07371089701537       -1.87273346134492       -0.00016658854579
C            0.25325721641901       -1.48859315832098        0.00008097771159
C            0.55168589024181       -0.12702747203282        0.00080350081687
C           -0.44754198554540        0.83884040679758        0.00021304652843
C           -1.78067929019348        0.44005797264944       -0.00002556821388
C           -2.08329471246390       -0.92399314261748       -0.00017932917919
O           -2.72514356778264        1.39669942752010       -0.00005080714726
N            1.91166047741564        0.28972984159121        0.00364134915448
O            2.78488375108879       -0.56606813633858       -0.00214913288071
O            2.15950137567675        1.48648585541730       -0.00198568309385
H           -1.32672019902251       -2.92040770990155       -0.00022842681311
H            1.05651719401918       -2.20723403434750        0.00037037923948
H           -0.19513965099775        1.88721422988653        0.00049861282700
H           -3.11446367850593       -1.24372744063203       -0.00044279411476
H           -3.61930380962305        1.01827302155350       -0.00014974145768
15
 energy: -30.429078385751 gnorm: 0.000757126431 xtb: 6.7.1 (edcfbbe)
C           -1.07372336073668       -1.87243780656206       -0.00007139670163
C            0.25329153715373       -1.48828410217955        0.00001083508115
C            0.55144130450776       -0.12700037829170        0.00028134304174
C           -0.44725367130785        0.83912896248967        0.00008915306673
C           -1.78032001094222        0.44002441070318        0.00000956867982
C           -2.08315158925111       -0.92378601244827       -0.00006063766025
O           -2.72518752793325        1.39656289267253        0.00001871706966
N            1.91173065860217        0.28966447148085        0.00131451129924
O            2.78412986231169       -0.56618121436824       -0.00075742778215
O            2.15911371066113        1.48596632845678       -0.00064914807615
H           -1.32674578281200       -2.91997239641512       -0.00010090960166
H            1.05617790753340       -2.20706839123566        0.00010974037617
H           -0.19499122009315        1.88728288442723        0.00020926832960
H           -3.11413584065495       -1.24331824825678       -0.00015486515864
H           -3.61886786332753        1.01693479940694       -0.00001895713200
15
 energy: -30.429079157709 gnorm: 0.000389951511 xtb: 6.7.1 (edcfbbe)
C           -1.07368845884654       -1.87240727957581        0.00000801817304
C            0.25332682574961       -1.48825469348505       -0.00001826133298
C            0.55145177185359       -0.12697775495248       -0.00010415524472
C           -0.44722198201263        0.83917109131988        0.00002911619815
C           -1.78029913624015        0.43998155934946        0.00005030446488
C           -2.08312853366152       -0.92378757489915        0.00003496526228
O           -2.72514617597244        1.39650904761656        0.00006624396476
N            1.91164473641625        0.28962446697231       -0.00065126272720
O            2.78399007014899       -0.56616740662927        0.00036658679400
O            2.15907053648405        1.48584555498878        0.00043714728855
H           -1.32674392255351       -2.91991138640877       -0.00001274455192
H            1.05617338852510       -2.20701496748705       -0.00009669773611
H           -0.19500587567978        1.88727241114033       -0.00000640002224
H           -3.11404023251535       -1.24334786561113        0.00007017703787
H           -3.61887489798453        1.01698099754119        0.00005675726325
15
 energy: -30.429079440879 gnorm: 0.000030751663 xtb: 6.7.1 (edcfbbe)
C           -1.07368639321758       -1.87240622334434       -0.00001692358999
C            0.25333160927620       -1.48825849000244       -0.00001023938740
C            0.55141605245889       -0.12698873083439        0.00002066315246
C           -0.44721707077078        0.83918006668748        0.00004259795440
C           -1.78028148060053        0.43995905655416        0.00003313829015
C           -2.08313462628558       -0.92379564734794        0.00000339089909
O           -2.72514539960681        1.39652387520428        0.00005134302276
N            1.91165858533348        0.28963342397889        0.00002595419782
O            2.78400264956964       -0.56615279695558       -0.00001271080729
O            2.15907040483502        1.48585349998454        0.00006449118216
H           -1.32674847495805       -2.91991214185457       -0.00004316855100
H            1.05616289333858       -2.20703431297126       -0.00002615133438
H           -0.19501231270648        1.88728290941862        0.00006823559621
H           -3.11405257930136       -1.24334035834166       -0.00000705050055
H           -3.61885574365348        1.01697206970401        0.00003622470719
15
 energy: -30.429079441840 gnorm: 0.000020017185 xtb: 6.7.1 (edcfbbe)
C           -1.07368014683649       -1.87241979110566       -0.00002063247859
C            0.25333296117271       -1.48826997737237       -0.00001421285372
C            0.55142429448262       -0.12698789870725        0.00001510404517
C           -0.44722575607429        0.83917057607360        0.00003792659137
C           -1.78029334445272        0.43995047070502        0.00003059643180
C           -2.08313963490143       -0.92380800164834        0.00000098535068
O           -2.72513485355226        1.39652703423456        0.00005362006922
N            1.91164734636386        0.28963325003388        0.00002792610970
O            2.78402513004914       -0.56614497655427       -0.00000434472916
O            2.15908261558482        1.48586698088031        0.00006920698677
H           -1.32674645252590       -2.91992911452451       -0.00003870974242
H            1.05617827721897       -2.20703795074065       -0.00002908923531
H           -0.19502732485387        1.88728112893868        0.00006106167234
H           -3.11405945246139       -1.24336701881936       -0.00000236858295
H           -3.61887554550263        1.01705148848618        0.00004272519670
