23
 energy: -388.417012511688 gnorm: 0.001552521453 xtb: 6.7.1 (edcfbbe)
C           -2.72982671945235       -0.03472074049778        1.07258095143898
C           -1.78022130783364        0.14946282026412       -0.07249051857141
O           -2.17312613676613        0.15759140027276       -1.23616056867395
C           -0.32007804616062        0.31214242679761        0.27344423403120
C            0.45149740621379        1.15393636512469       -0.74467287431928
C            1.92468063357765        1.26305316092035       -0.34765841226266
C            2.56358866695680       -0.12067021203486       -0.21505360555007
C            1.78690617687849       -0.99226691328919        0.77288460427732
C            0.31017103806285       -1.09709191518168        0.38783399971678
H           -2.30427309378980       -0.69370010398560        1.83507830540112
H           -2.87161904292293        0.94450791057680        1.54825074958771
H           -3.69585872388790       -0.41033903941833        0.73115847898045
H           -0.25968888601740        0.78140750932939        1.26548720190254
H            0.37466763900996        0.67997510808308       -1.73111862066426
H           -0.00204392556547        2.14852900407736       -0.82645233587998
H            2.46612378810286        1.86147601294130       -1.08930452821608
H            2.00399191584150        1.79327597247214        0.61153698582778
H            2.57046000446130       -0.60939356678756       -1.19930956567342
H            3.60809414574218       -0.02818227559775        0.10446414901748
H            2.22342553449603       -1.99671333660580        0.82065126243349
H            1.86394240525054       -0.55924446103011        1.77955215683061
H            0.21494373904134       -1.59837682645244       -0.58500313614881
H           -0.23434631741191       -1.69879155052062        1.12400840753237
23
 energy: -388.417014617531 gnorm: 0.000613761629 xtb: 6.7.1 (edcfbbe)
C           -2.73031676593309       -0.03561101707477        1.07191410878407
C           -1.78025724865861        0.14994620910072       -0.07265063136671
O           -2.17256797485890        0.15779392950302       -1.23749258785583
C           -0.32023478030942        0.31261318088288        0.27400098957703
C            0.45204678190305        1.15416724310326       -0.74375187657835
C            1.92553200467316        1.26336347339268       -0.34823219067328
C            2.56266502612741       -0.12112499372864       -0.21574452158152
C            1.78721077153296       -0.99243253047179        0.77335943181015
C            0.31045170997428       -1.09658010823782        0.38853099712702
H           -2.30466437847939       -0.69415657253806        1.83526566708795
H           -2.87368388431889        0.94363935581610        1.54736294132760
H           -3.69589238915355       -0.41179185733724        0.72990555994349
H           -0.26008810289053        0.78188688143694        1.26598044189028
H            0.37402805659470        0.68148698066705       -1.73067476070750
H           -0.00096326405798        2.14919166910072       -0.82411934409562
H            2.46666154580341        1.86157547863900       -1.09034679631993
H            2.00573864080130        1.79325280339240        0.61100920010327
H            2.56821472158215       -0.61017964882303       -1.19977991349969
H            3.60755210344313       -0.02926931902075        0.10248990483217
H            2.22368813746930       -1.99688445201593        0.82168041789475
H            1.86504777380455       -0.55865668815200        1.77955800750551
H            0.21486523287177       -1.59854063766368       -0.58381418988544
H           -0.23362291422005       -1.69782225729138        1.12525646161952
23
 energy: -388.417014617531 gnorm: 0.000613761629 xtb: 6.7.1 (edcfbbe)
C           -2.73031676593309       -0.03561101707477        1.07191410878407
C           -1.78025724865861        0.14994620910072       -0.07265063136671
O           -2.17256797485890        0.15779392950302       -1.23749258785583
C           -0.32023478030942        0.31261318088288        0.27400098957703
C            0.45204678190305        1.15416724310326       -0.74375187657835
C            1.92553200467316        1.26336347339268       -0.34823219067328
C            2.56266502612741       -0.12112499372864       -0.21574452158152
C            1.78721077153296       -0.99243253047179        0.77335943181015
C            0.31045170997428       -1.09658010823782        0.38853099712702
H           -2.30466437847939       -0.69415657253806        1.83526566708795
H           -2.87368388431889        0.94363935581610        1.54736294132760
H           -3.69589238915355       -0.41179185733724        0.72990555994349
H           -0.26008810289053        0.78188688143694        1.26598044189028
H            0.37402805659470        0.68148698066705       -1.73067476070750
H           -0.00096326405798        2.14919166910072       -0.82411934409562
H            2.46666154580341        1.86157547863900       -1.09034679631993
H            2.00573864080130        1.79325280339240        0.61100920010327
H            2.56821472158215       -0.61017964882303       -1.19977991349969
H            3.60755210344313       -0.02926931902075        0.10248990483217
H            2.22368813746930       -1.99688445201593        0.82168041789475
H            1.86504777380455       -0.55865668815200        1.77955800750551
H            0.21486523287177       -1.59854063766368       -0.58381418988544
H           -0.23362291422005       -1.69782225729138        1.12525646161952
