 Entering Gaussian System
 *********************************************
 Gaussian 98:
 frequency output generated by the xtb code
 *********************************************
                         Standard orientation:
 --------------------------------------------------------------------
  Center     Atomic     Atomic              Coordinates (Angstroms)
  Number     Number      Type              X           Y           Z
 --------------------------------------------------------------------
    1          6             0       -1.180619   -1.203492    0.000011
    2          6             0        0.199795   -1.205176   -0.000001
    3          6             0        0.880946    0.000879   -0.000004
    4          6             0        0.199184    1.204322    0.000004
    5          6             0       -1.183994    1.201982    0.000015
    6          6             0       -1.884802   -0.000419    0.000019
    7          8             0       -3.237008   -0.055704    0.000030
    8         17             0        2.625475    0.001624   -0.000019
    9          1             0       -1.734282   -2.128113    0.000013
   10          1             0        0.743763   -2.135523   -0.000008
   11          1             0        0.742588    2.135143    0.000001
   12          1             0       -1.715138    2.141583    0.000022
   13          1             0       -3.621739    0.834513    0.000036
 --------------------------------------------------------------------
     1 basis functions        1 primitive gaussians
     1 alpha electrons        1 beta electrons
 
 Harmonic frequencies (cm**-1), IR intensities (km*mol⁻¹),
 Raman scattering activities (A**4/amu), Raman depolarization ratios,
 reduced masses (AMU), force constants (mDyne/A) and normal coordinates:
                      1                      2                      3
                        a                      a                      a 
 Frequencies --   116.3875               243.6976               321.8335
 Red. masses --    17.5407                18.9702                12.3108
 Frc consts  --     0.0000                 0.0000                 0.0000
 IR Inten    --     0.1430                 2.7446                 0.2753
 Raman Activ --     0.0000                 0.0000                 0.0000
 Depolar     --     0.0000                 0.0000                 0.0000
 Atom AN      X      Y      Z        X      Y      Z        X      Y      Z
   1   6     0.00  -0.00   0.23    -0.14  -0.13   0.00    -0.00  -0.00  -0.38
   2   6     0.00  -0.00   0.34    -0.10  -0.33  -0.00     0.00  -0.00   0.24
   3   6     0.00  -0.00   0.24     0.00  -0.38  -0.00     0.00  -0.00   0.55
   4   6     0.00  -0.00   0.34     0.10  -0.33  -0.00     0.00   0.00   0.22
   5   6     0.00  -0.00   0.23     0.14  -0.13  -0.00    -0.00   0.00  -0.35
   6   6     0.00   0.00   0.01    -0.00  -0.04  -0.00    -0.00  -0.00  -0.30
   7   8    -0.00   0.00  -0.57    -0.02   0.39   0.00     0.00   0.00   0.32
   8  17    -0.00   0.00  -0.46     0.00   0.55   0.00    -0.00   0.00  -0.20
   9   1     0.00  -0.00   0.06    -0.07  -0.02   0.00    -0.00   0.00  -0.18
  10   1     0.00  -0.00   0.11    -0.07  -0.12   0.00     0.00  -0.00   0.09
  11   1     0.00  -0.00   0.11     0.07  -0.12  -0.00     0.00  -0.00   0.07
  12   1     0.00  -0.00   0.06     0.07  -0.02  -0.00    -0.00   0.00  -0.17
  13   1    -0.00   0.00  -0.18     0.08   0.13  -0.00     0.00   0.00   0.13
                      4                      5                      6
                        a                      a                      a 
 Frequencies --   349.5706               373.8659               397.1426
 Red. masses --    25.2875                 7.9284                11.2701
 Frc consts  --     0.0000                 0.0000                 0.0000
 IR Inten    --     0.2090                36.1642                14.7485
 Raman Activ --     0.0000                 0.0000                 0.0000
 Depolar     --     0.0000                 0.0000                 0.0000
 Atom AN      X      Y      Z        X      Y      Z        X      Y      Z
   1   6    -0.14   0.09   0.00     0.00  -0.00   0.36     0.11  -0.32  -0.00
   2   6    -0.09   0.12   0.00    -0.00   0.00  -0.40     0.14   0.16  -0.00
   3   6     0.14   0.01   0.00     0.00   0.00   0.03    -0.00   0.24  -0.00
   4   6    -0.11  -0.10   0.00     0.00  -0.00   0.40    -0.12   0.16  -0.00
   5   6    -0.15  -0.12  -0.00    -0.00   0.00  -0.40    -0.08  -0.32   0.00
   6   6    -0.34  -0.02   0.00     0.00  -0.00   0.00     0.01  -0.37   0.00
   7   8    -0.43   0.02   0.00     0.00  -0.00   0.12    -0.03   0.53   0.00
   8  17     0.74  -0.01  -0.00    -0.00  -0.00  -0.01    -0.05  -0.11   0.00
   9   1     0.01  -0.00  -0.00     0.00  -0.00   0.20     0.12  -0.15  -0.00
  10   1    -0.07   0.01   0.00    -0.00   0.00  -0.25     0.12   0.09  -0.00
  11   1    -0.08   0.00   0.00     0.00  -0.00   0.24    -0.11   0.09   0.00
  12   1    -0.01  -0.01  -0.00    -0.00   0.00  -0.23    -0.11  -0.14   0.00
  13   1    -0.10   0.01  -0.00    -0.00   0.00  -0.39     0.20   0.22  -0.00
                      7                      8                      9
                        a                      a                      a 
 Frequencies --   413.8560               482.0781               606.4909
 Red. masses --     3.4497                 9.2630                11.6934
 Frc consts  --     0.0000                 0.0000                 0.0000
 IR Inten    --   174.0341                 0.0905                 4.0595
 Raman Activ --     0.0000                 0.0000                 0.0000
 Depolar     --     0.0000                 0.0000                 0.0000
 Atom AN      X      Y      Z        X      Y      Z        X      Y      Z
   1   6    -0.00   0.00  -0.24    -0.00   0.00  -0.01     0.42   0.28  -0.00
   2   6     0.00  -0.00   0.13    -0.00   0.00  -0.23     0.44  -0.24  -0.00
   3   6     0.00  -0.00   0.04     0.00  -0.00   0.52     0.06  -0.11  -0.00
   4   6    -0.00   0.00  -0.16    -0.00   0.00  -0.23    -0.35  -0.29   0.00
   5   6     0.00   0.00   0.19    -0.00   0.00  -0.02    -0.34   0.19   0.00
   6   6     0.00   0.00   0.05     0.00  -0.00   0.56    -0.04   0.09   0.00
   7   8     0.00  -0.00   0.24    -0.00   0.00  -0.20    -0.09   0.17   0.00
   8  17    -0.00   0.00  -0.00     0.00   0.00  -0.04    -0.07  -0.07   0.00
   9   1    -0.00   0.00  -0.15    -0.00   0.00  -0.22     0.11   0.08  -0.00
  10   1     0.00  -0.00   0.06    -0.00   0.00  -0.29     0.09  -0.09  -0.00
  11   1    -0.00   0.00  -0.11    -0.00   0.00  -0.29    -0.08  -0.09   0.00
  12   1     0.00   0.00   0.10    -0.00   0.00  -0.23    -0.05   0.08   0.00
  13   1    -0.00   0.00  -0.87     0.00  -0.00   0.03     0.03   0.06  -0.00
                     10                     11                     12
                        a                      a                      a 
 Frequencies --   615.4251               657.5074               802.9654
 Red. masses --    15.5807                11.1147                 4.9600
 Frc consts  --     0.0000                 0.0000                 0.0000
 IR Inten    --    31.0447                 1.3681                55.7791
 Raman Activ --     0.0000                 0.0000                 0.0000
 Depolar     --     0.0000                 0.0000                 0.0000
 Atom AN      X      Y      Z        X      Y      Z        X      Y      Z
   1   6    -0.16  -0.20   0.00     0.00  -0.00   0.30     0.00  -0.00   0.22
   2   6    -0.18  -0.19   0.00    -0.00   0.00  -0.33     0.00   0.00   0.17
   3   6    -0.36  -0.01   0.00     0.00  -0.00   0.46    -0.00   0.00  -0.21
   4   6    -0.32   0.10   0.00    -0.00   0.00  -0.32     0.00  -0.00   0.19
   5   6    -0.30   0.26   0.00     0.00  -0.00   0.30     0.00  -0.00   0.29
   6   6     0.23   0.01  -0.00    -0.00   0.00  -0.55    -0.00   0.00  -0.33
   7   8     0.44   0.05  -0.00     0.00   0.00   0.08     0.00  -0.00   0.07
   8  17     0.39  -0.01  -0.00    -0.00  -0.00  -0.02    -0.00  -0.00   0.02
   9   1    -0.14   0.00   0.00     0.00  -0.00   0.20    -0.00   0.00  -0.37
  10   1    -0.01  -0.03   0.00    -0.00   0.00  -0.06    -0.00   0.00  -0.32
  11   1    -0.05   0.00   0.00    -0.00   0.00  -0.06    -0.00   0.00  -0.38
  12   1    -0.17   0.03   0.00     0.00  -0.00   0.20    -0.00   0.00  -0.51
  13   1     0.11   0.01  -0.00     0.00   0.00   0.00     0.00   0.00   0.02
                     13                     14                     15
                        a                      a                      a 
 Frequencies --   831.2703               857.2780               895.2586
 Red. masses --    12.2149                 3.3264                 2.7710
 Frc consts  --     0.0000                 0.0000                 0.0000
 IR Inten    --     5.4639                 0.5094                 0.0231
 Raman Activ --     0.0000                 0.0000                 0.0000
 Depolar     --     0.0000                 0.0000                 0.0000
 Atom AN      X      Y      Z        X      Y      Z        X      Y      Z
   1   6     0.11  -0.22  -0.00    -0.00   0.00  -0.25    -0.00  -0.00  -0.12
   2   6     0.22  -0.42  -0.00    -0.00   0.00  -0.25     0.00  -0.00   0.10
   3   6    -0.33  -0.00   0.00     0.00  -0.00   0.02    -0.00   0.00   0.00
   4   6     0.22   0.42  -0.00     0.00  -0.00   0.17     0.00  -0.00   0.30
   5   6     0.11   0.22  -0.00     0.00  -0.00   0.23    -0.00   0.00  -0.21
   6   6    -0.01  -0.00  -0.00     0.00  -0.00   0.05    -0.00   0.00  -0.04
   7   8    -0.47   0.00   0.00    -0.00   0.00  -0.01     0.00   0.00  -0.01
   8  17     0.10  -0.00  -0.00     0.00  -0.00  -0.00     0.00  -0.00   0.01
   9   1    -0.01  -0.05  -0.00     0.00  -0.00   0.49     0.00  -0.00   0.33
  10   1     0.17  -0.05  -0.00     0.00  -0.00   0.49    -0.00   0.00  -0.32
  11   1     0.17   0.05  -0.00    -0.00   0.00  -0.31    -0.00   0.00  -0.65
  12   1    -0.01   0.05   0.00    -0.00   0.00  -0.47     0.00  -0.00   0.45
  13   1    -0.11  -0.00   0.00    -0.00   0.00  -0.01    -0.00  -0.00   0.00
                     16                     17                     18
                        a                      a                      a 
 Frequencies --   912.2081               991.8190              1094.1350
 Red. masses --     3.7946                10.2944                 6.7260
 Frc consts  --     0.0000                 0.0000                 0.0000
 IR Inten    --     0.1949                51.6792                18.0505
 Raman Activ --     0.0000                 0.0000                 0.0000
 Depolar     --     0.0000                 0.0000                 0.0000
 Atom AN      X      Y      Z        X      Y      Z        X      Y      Z
   1   6     0.00  -0.00   0.29    -0.11  -0.51  -0.00     0.13   0.15  -0.00
   2   6    -0.00   0.00  -0.31    -0.02   0.24   0.00    -0.09   0.27   0.00
   3   6    -0.00  -0.00  -0.01     0.34   0.00  -0.00    -0.55  -0.06   0.00
   4   6     0.00  -0.00   0.21    -0.02  -0.24  -0.00    -0.02  -0.18  -0.00
   5   6    -0.00   0.00  -0.17    -0.12   0.51   0.00     0.09  -0.00  -0.00
   6   6    -0.00   0.00  -0.00     0.12   0.00  -0.00    -0.09  -0.08   0.00
   7   8     0.00   0.00   0.01    -0.16   0.00   0.00     0.01  -0.06  -0.00
   8  17    -0.00   0.00  -0.00    -0.07   0.00   0.00     0.09   0.00  -0.00
   9   1    -0.00   0.00  -0.52     0.09  -0.21  -0.00     0.39  -0.16  -0.00
  10   1     0.00  -0.00   0.57     0.12   0.13  -0.00     0.09   0.16  -0.00
  11   1    -0.00   0.00  -0.31     0.12  -0.13  -0.00     0.35  -0.26  -0.00
  12   1     0.00  -0.00   0.25     0.09   0.21  -0.00     0.19   0.09  -0.00
  13   1    -0.00  -0.00  -0.01    -0.05  -0.01   0.00     0.21   0.08  -0.00
                     19                     20                     21
                        a                      a                      a 
 Frequencies --  1099.5372              1126.2815              1174.3689
 Red. masses --     4.5097                 2.3565                 1.8451
 Frc consts  --     0.0000                 0.0000                 0.0000
 IR Inten    --   347.9666                80.8623                30.5652
 Raman Activ --     0.0000                 0.0000                 0.0000
 Depolar     --     0.0000                 0.0000                 0.0000
 Atom AN      X      Y      Z        X      Y      Z        X      Y      Z
   1   6     0.01  -0.13  -0.00    -0.09  -0.02   0.00     0.04  -0.08  -0.00
   2   6     0.06  -0.00  -0.00     0.09  -0.01  -0.00    -0.06  -0.14   0.00
   3   6    -0.21   0.09   0.00    -0.09   0.11   0.00    -0.03   0.01   0.00
   4   6    -0.07  -0.19   0.00    -0.10  -0.13   0.00    -0.08   0.09   0.00
   5   6     0.09  -0.20  -0.00     0.12  -0.06  -0.00     0.09   0.07  -0.00
   6   6    -0.06   0.22   0.00     0.03   0.02  -0.00    -0.10   0.03   0.00
   7   8     0.19   0.21  -0.00    -0.12  -0.13   0.00     0.07  -0.02  -0.00
   8  17     0.03  -0.00  -0.00     0.01  -0.00  -0.00     0.00  -0.00  -0.00
   9   1     0.01  -0.04  -0.00    -0.45   0.25   0.00     0.39  -0.25  -0.00
  10   1     0.34   0.19  -0.00     0.38   0.21  -0.00    -0.30  -0.20   0.00
  11   1    -0.13   0.01   0.00    -0.23   0.08   0.00    -0.46   0.28   0.00
  12   1     0.15   0.01  -0.00     0.42   0.20  -0.00     0.48   0.27  -0.00
  13   1    -0.67  -0.26   0.00     0.37   0.14  -0.00     0.04   0.01   0.00
                     22                     23                     24
                        a                      a                      a 
 Frequencies --  1256.7466              1260.1672              1330.3581
 Red. masses --     4.5674                 9.4479                11.6287
 Frc consts  --     0.0000                 0.0000                 0.0000
 IR Inten    --    12.0383               318.8457                31.6589
 Raman Activ --     0.0000                 0.0000                 0.0000
 Depolar     --     0.0000                 0.0000                 0.0000
 Atom AN      X      Y      Z        X      Y      Z        X      Y      Z
   1   6     0.20  -0.11  -0.00     0.13   0.06  -0.00     0.33  -0.18  -0.00
   2   6     0.06   0.14  -0.00    -0.15   0.18   0.00    -0.35  -0.20   0.00
   3   6    -0.12   0.25   0.00    -0.19  -0.15   0.00    -0.02   0.41   0.00
   4   6    -0.17  -0.05   0.00    -0.07  -0.19   0.00     0.35  -0.22  -0.00
   5   6     0.02  -0.10  -0.00     0.25   0.06  -0.00    -0.32  -0.19   0.00
   6   6     0.27  -0.15  -0.00     0.58   0.05  -0.00     0.04   0.42   0.00
   7   8    -0.13   0.08   0.00    -0.36  -0.02   0.00    -0.07  -0.05   0.00
   8  17     0.02  -0.01  -0.00     0.03   0.00  -0.00     0.00   0.01  -0.00
   9   1    -0.31   0.19   0.00     0.09  -0.00  -0.00     0.04  -0.02  -0.00
  10   1    -0.50  -0.26   0.00    -0.04   0.06   0.00    -0.01  -0.01   0.00
  11   1     0.23  -0.18  -0.00    -0.38   0.15   0.00     0.00  -0.01  -0.00
  12   1     0.29   0.13  -0.00    -0.26  -0.18   0.00    -0.04  -0.03   0.00
  13   1    -0.21  -0.07   0.00    -0.04   0.01   0.00     0.17   0.07  -0.00
                     25                     26                     27
                        a                      a                      a 
 Frequencies --  1415.6522              1459.3792              1580.5182
 Red. masses --    10.0272                 9.3580                11.6575
 Frc consts  --     0.0000                 0.0000                 0.0000
 IR Inten    --    34.0834               264.3860                22.2420
 Raman Activ --     0.0000                 0.0000                 0.0000
 Depolar     --     0.0000                 0.0000                 0.0000
 Atom AN      X      Y      Z        X      Y      Z        X      Y      Z
   1   6     0.37   0.07  -0.00     0.11  -0.26  -0.00     0.05  -0.26  -0.00
   2   6    -0.30   0.15   0.00     0.30   0.26  -0.00     0.21   0.30  -0.00
   3   6    -0.02  -0.37  -0.00    -0.30   0.01   0.00    -0.02  -0.50  -0.00
   4   6     0.34   0.12  -0.00     0.27  -0.26  -0.00    -0.08   0.28   0.00
   5   6    -0.36   0.10   0.00     0.14   0.24  -0.00    -0.21  -0.31   0.00
   6   6    -0.02  -0.38  -0.00    -0.44   0.04   0.00     0.06   0.53   0.00
   7   8     0.05   0.10  -0.00     0.13  -0.02  -0.00    -0.03  -0.05   0.00
   8  17    -0.00   0.02   0.00     0.01  -0.00  -0.00    -0.00   0.00   0.00
   9   1    -0.14   0.17   0.00    -0.22   0.07   0.00    -0.05  -0.03   0.00
  10   1     0.07   0.14  -0.00    -0.23  -0.11   0.00    -0.08   0.00   0.00
  11   1    -0.11   0.16   0.00    -0.23   0.10   0.00     0.07   0.02  -0.00
  12   1     0.13   0.17  -0.00    -0.24  -0.08   0.00     0.10   0.00  -0.00
  13   1    -0.16  -0.05   0.00     0.07   0.02  -0.00     0.09   0.03  -0.00
                     28                     29                     30
                        a                      a                      a 
 Frequencies --  1590.2033              3089.4751              3107.3312
 Red. masses --    11.5412                 1.8122                 1.8047
 Frc consts  --     0.0000                 0.0000                 0.0000
 IR Inten    --    54.0429                37.2077                20.1584
 Raman Activ --     0.0000                 0.0000                 0.0000
 Depolar     --     0.0000                 0.0000                 0.0000
 Atom AN      X      Y      Z        X      Y      Z        X      Y      Z
   1   6     0.49  -0.19  -0.00    -0.01  -0.01   0.00     0.06   0.11  -0.00
   2   6    -0.39  -0.05   0.00    -0.00   0.00   0.00     0.11  -0.20  -0.00
   3   6     0.17  -0.09  -0.00     0.00   0.00  -0.00     0.01  -0.00  -0.00
   4   6    -0.42   0.15   0.00     0.03   0.06  -0.00    -0.04  -0.06   0.00
   5   6     0.42   0.09  -0.00     0.13  -0.23  -0.00     0.01  -0.02  -0.00
   6   6    -0.30   0.09   0.00     0.01  -0.00  -0.00     0.01   0.00  -0.00
   7   8     0.03  -0.01  -0.00    -0.00   0.00   0.00     0.00  -0.00  -0.00
   8  17     0.00   0.00  -0.00    -0.00  -0.00  -0.00    -0.00   0.00   0.00
   9   1    -0.09   0.08   0.00     0.02   0.03  -0.00    -0.24  -0.40   0.00
  10   1     0.04   0.07  -0.00     0.01  -0.01  -0.00    -0.41   0.70   0.00
  11   1     0.06  -0.06  -0.00    -0.13  -0.22   0.00     0.11   0.20  -0.00
  12   1    -0.07  -0.08   0.00    -0.45   0.81   0.00    -0.04   0.08   0.00
  13   1     0.04   0.02  -0.00    -0.00  -0.00  -0.00    -0.00   0.00   0.00
                     31                     32                     33
                        a                      a                      a 
 Frequencies --  3110.8978              3119.0877              3442.5676
 Red. masses --     1.8619                 1.8856                 1.8646
 Frc consts  --     0.0000                 0.0000                 0.0000
 IR Inten    --    32.0600                18.4074               181.2827
 Raman Activ --     0.0000                 0.0000                 0.0000
 Depolar     --     0.0000                 0.0000                 0.0000
 Atom AN      X      Y      Z        X      Y      Z        X      Y      Z
   1   6     0.03   0.05  -0.00     0.12   0.20  -0.00    -0.00  -0.00   0.00
   2   6     0.02  -0.04  -0.00    -0.08   0.13   0.00     0.00  -0.00   0.00
   3   6     0.01  -0.00  -0.00    -0.01  -0.00   0.00     0.00   0.00  -0.00
   4   6     0.13   0.22  -0.00    -0.02  -0.03   0.00     0.00  -0.00  -0.00
   5   6    -0.04   0.06   0.00     0.01  -0.02  -0.00    -0.00   0.00   0.00
   6   6    -0.00  -0.00   0.00     0.01  -0.00  -0.00     0.01  -0.00  -0.00
   7   8     0.00   0.00  -0.00    -0.00  -0.00  -0.00     0.09  -0.22  -0.00
   8  17    -0.00   0.00   0.00     0.00   0.00  -0.00    -0.00   0.00   0.00
   9   1    -0.12  -0.20   0.00    -0.41  -0.70   0.00     0.00   0.01  -0.00
  10   1    -0.07   0.13   0.00     0.25  -0.43  -0.00    -0.00   0.00   0.00
  11   1    -0.45  -0.77   0.00     0.05   0.10  -0.00    -0.00  -0.00   0.00
  12   1     0.11  -0.20  -0.00    -0.03   0.05   0.00     0.00   0.00  -0.00
  13   1    -0.00   0.00   0.00    -0.00   0.01   0.00    -0.40   0.89   0.00
