      -----------------------------------------------------------      
     |                   =====================                   |     
     |                           x T B                           |     
     |                   =====================                   |     
     |                         S. Grimme                         |     
     |          Mulliken Center for Theoretical Chemistry        |     
     |                    University of Bonn                     |     
      -----------------------------------------------------------      

   * xtb version 6.7.1 (edcfbbe) compiled by 'albert@albert-system' on 2024-07-22

   xtb is free software: you can redistribute it and/or modify it under
   the terms of the GNU Lesser General Public License as published by
   the Free Software Foundation, either version 3 of the License, or
   (at your option) any later version.
   
   xtb is distributed in the hope that it will be useful,
   but WITHOUT ANY WARRANTY; without even the implied warranty of
   MERCHANTABILITY or FITNESS FOR A PARTICULAR PURPOSE.  See the
   GNU Lesser General Public License for more details.
   
   Cite this work as:
   * C. Bannwarth, E. Caldeweyher, S. Ehlert, A. Hansen, P. Pracht,
     J. Seibert, S. Spicher, S. Grimme, WIREs Comput. Mol. Sci., 2020, 11,
     e01493. DOI: 10.1002/wcms.1493
   
   for GFN2-xTB:
   * C. Bannwarth, S. Ehlert and S. Grimme., J. Chem. Theory Comput., 2019,
     15, 1652-1671. DOI: 10.1021/acs.jctc.8b01176
   for GFN1-xTB:
   * S. Grimme, C. Bannwarth, P. Shushkov, J. Chem. Theory Comput., 2017,
     13, 1989-2009. DOI: 10.1021/acs.jctc.7b00118
   for GFN0-xTB:
   * P. Pracht, E. Caldeweyher, S. Ehlert, S. Grimme, ChemRxiv, 2019, preprint.
     DOI: 10.26434/chemrxiv.8326202.v1
   for GFN-FF:
   * S. Spicher and S. Grimme, Angew. Chem. Int. Ed., 2020, 59, 15665-15673.
     DOI: 10.1002/anie.202004239
   
   for ALPB and GBSA implicit solvation:
   * S. Ehlert, M. Stahn, S. Spicher, S. Grimme, J. Chem. Theory Comput.,
     2021, 17, 4250-4261. DOI: 10.1021/acs.jctc.1c00471
   
   for ddCOSMO and CPCM-X implicit solvation:
   * M. Stahn, S. Ehlert, S. Grimme, J. Phys. Chem. A,
     2023, XX, XXXX-XXXX. DOI: 10.1021/acs.jpca.3c04382
   
   for DFT-D4:
   * E. Caldeweyher, C. Bannwarth and S. Grimme, J. Chem. Phys., 2017,
     147, 034112. DOI: 10.1063/1.4993215
   * E. Caldeweyher, S. Ehlert, A. Hansen, H. Neugebauer, S. Spicher,
     C. Bannwarth and S. Grimme, J. Chem. Phys., 2019, 150, 154122.
     DOI: 10.1063/1.5090222
   * E. Caldeweyher, J.-M. Mewes, S. Ehlert and S. Grimme, Phys. Chem. Chem. Phys.
     2020, 22, 8499-8512. DOI: 10.1039/D0CP00502A
   
   for sTDA-xTB:
   * S. Grimme and C. Bannwarth, J. Chem. Phys., 2016, 145, 054103.
     DOI: 10.1063/1.4959605
   
   in the mass-spec context:
   * V. Asgeirsson, C. Bauer and S. Grimme, Chem. Sci., 2017, 8, 4879.
     DOI: 10.1039/c7sc00601b
   * J. Koopman and S. Grimme, ACS Omega 2019, 4, 12, 15120-15133.
     DOI: 10.1021/acsomega.9b02011
   
   for metadynamics refer to:
   * S. Grimme, J. Chem. Theory Comput., 2019, 155, 2847-2862
     DOI: 10.1021/acs.jctc.9b00143
   
   for SPH calculations refer to:
   * S. Spicher and S. Grimme, J. Chem. Theory Comput., 2021, 17, 1701-1714
     DOI: 10.1021/acs.jctc.0c01306
   
   for ONIOM refer to:
   * C. Plett, A. Katbashev, S. Ehlert, S. Grimme, M. Bursch,
     Phys. Chem. Chem. Phys., 2023, 25, 17860-17868. DOI: 10.1039/D3CP02178E
   
   for DIPRO refer to:
   * J. Kohn, N. Gildemeister, S. Grimme, D. Fazzi, A. Hansen,
     J. Chem. Phys., 2023, just accepted.
   
   for PTB refer to:
   * S. Grimme, M. Mueller, A. Hansen, J. Chem. Phys., 2023, 158, 124111.
     DOI: 10.1063/5.0137838
   
   with help from (in alphabetical order)
   P. Atkinson, C. Bannwarth, F. Bohle, G. Brandenburg, E. Caldeweyher
   M. Checinski, S. Dohm, S. Ehlert, S. Ehrlich, I. Gerasimov, C. Hölzer
   A. Katbashev, J. Kohn, J. Koopman, C. Lavigne, S. Lehtola, F. März, M. Müller,
   F. Musil, H. Neugebauer, J. Pisarek, C. Plett, P. Pracht, F. Pultar,
   J. Seibert, P. Shushkov, S. Spicher, M. Stahn, M. Steiner, T. Strunk,
   J. Stückrath, T. Rose, and J. Unsleber
   
 * started run on 2025/04/06 at 07:06:59.319     
   ID    Z sym.   atoms
    1    6 C      1, 3, 4, 7-12
    2    7 N      2, 6
    3    8 O      5
    4    1 H      13-24

           -------------------------------------------------
          |                Calculation Setup                |
           -------------------------------------------------

          program call               : /srv/scratch/z5358697/.xtb/bin/xtb gas.coord --gfn2 --sp --chrg 0 --norestart --parallel 1
          hostname                   : k148
          coordinate file            : gas.coord
          omp threads                :                     1


           -------------------------------------------------
          |                 G F N 2 - x T B                 |
           -------------------------------------------------

        Reference                      10.1021/acs.jctc.8b01176
      * Hamiltonian:
        H0-scaling (s, p, d)           1.850000    2.230000    2.230000
        zeta-weighting                 0.500000
      * Dispersion:
        s8                             2.700000
        a1                             0.520000
        a2                             5.000000
        s9                             5.000000
      * Repulsion:
        kExp                           1.500000    1.000000
        rExp                           1.000000
      * Coulomb:
        alpha                          2.000000
        third order                    shell-resolved
        anisotropic                    true
        a3                             3.000000
        a5                             4.000000
        cn-shift                       1.200000
        cn-exp                         4.000000
        max-rad                        5.000000


          ...................................................
          :                      SETUP                      :
          :.................................................:
          :  # basis functions                  60          :
          :  # atomic orbitals                  60          :
          :  # shells                           36          :
          :  # electrons                        64          :
          :  max. iterations                   250          :
          :  Hamiltonian                  GFN2-xTB          :
          :  restarted?                      false          :
          :  GBSA solvation                  false          :
          :  PC potential                    false          :
          :  electronic temp.          300.0000000     K    :
          :  accuracy                    1.0000000          :
          :  -> integral cutoff          0.2500000E+02      :
          :  -> integral neglect         0.1000000E-07      :
          :  -> SCF convergence          0.1000000E-05 Eh   :
          :  -> wf. convergence          0.1000000E-03 e    :
          :  Broyden damping             0.4000000          :
          :  net charge                          0          :
          :  unpaired electrons                  0          :
          ...................................................

 iter      E             dE          RMSdq      gap      omega  full diag
   1    -35.7642470 -0.357642E+02  0.428E+00    3.35       0.0  T
   2    -35.8435036 -0.792565E-01  0.260E+00    4.12       1.0  T
   3    -35.8447687 -0.126515E-02  0.125E+00    4.09       1.0  T
   4    -35.8464875 -0.171880E-02  0.408E-01    4.06       1.0  T
   5    -35.8489029 -0.241544E-02  0.889E-02    4.09       1.0  T
   6    -35.8489248 -0.218558E-04  0.416E-02    4.09       1.0  T
   7    -35.8489280 -0.322730E-05  0.183E-02    4.09       1.1  T
   8    -35.8489303 -0.224432E-05  0.517E-03    4.09       3.9  T
   9    -35.8489303 -0.746639E-07  0.254E-03    4.09       8.0  T
  10    -35.8489304 -0.396630E-07  0.105E-03    4.09      19.4  T
  11    -35.8489304 -0.507858E-08  0.474E-04    4.09      43.1  T
  12    -35.8489304 -0.192657E-08  0.145E-04    4.09     141.0  T

   *** convergence criteria satisfied after 12 iterations ***

         #    Occupation            Energy/Eh            Energy/eV
      -------------------------------------------------------------
         1        2.0000           -0.6888067             -18.7434
       ...           ...                  ...                  ...
        26        2.0000           -0.4348185             -11.8320
        27        2.0000           -0.4294653             -11.6863
        28        2.0000           -0.4184618             -11.3869
        29        2.0000           -0.3965481             -10.7906
        30        2.0000           -0.3848239             -10.4716
        31        2.0000           -0.3838663             -10.4455
        32        2.0000           -0.3676978             -10.0056 (HOMO)
        33                         -0.2174508              -5.9171 (LUMO)
        34                         -0.2142119              -5.8290
        35                         -0.1643002              -4.4708
        36                         -0.0768595              -2.0915
        37                         -0.0235935              -0.6420
       ...                                ...                  ...
        60                          0.6827192              18.5777
      -------------------------------------------------------------
                  HL-Gap            0.1502471 Eh            4.0884 eV
             Fermi-level           -0.2925743 Eh           -7.9614 eV

 SCC (total)                   0 d,  0 h,  0 min,  0.029 sec
 SCC setup                      ...        0 min,  0.000 sec (  0.577%)
 Dispersion                     ...        0 min,  0.000 sec (  0.503%)
 classical contributions        ...        0 min,  0.000 sec (  0.088%)
 integral evaluation            ...        0 min,  0.002 sec (  8.120%)
 iterations                     ...        0 min,  0.021 sec ( 69.753%)
 molecular gradient             ...        0 min,  0.006 sec ( 20.526%)
 printout                       ...        0 min,  0.000 sec (  0.390%)

         :::::::::::::::::::::::::::::::::::::::::::::::::::::
         ::                     SUMMARY                     ::
         :::::::::::::::::::::::::::::::::::::::::::::::::::::
         :: total energy             -35.318702401300 Eh    ::
         :: gradient norm              0.037972059827 Eh/a0 ::
         :: HOMO-LUMO gap              4.088430497225 eV    ::
         ::.................................................::
         :: SCC energy               -35.848999703736 Eh    ::
         :: -> isotropic ES            0.050741975629 Eh    ::
         :: -> anisotropic ES          0.005510284068 Eh    ::
         :: -> anisotropic XC          0.015832675711 Eh    ::
         :: -> dispersion             -0.019942792028 Eh    ::
         :: repulsion energy           0.530297302436 Eh    ::
         :: add. restraining           0.000000000000 Eh    ::
         :: total charge               0.000000000000 e     ::
         :::::::::::::::::::::::::::::::::::::::::::::::::::::

           -------------------------------------------------
          |                Property Printout                |
           -------------------------------------------------

    * Orbital Energies and Occupations

         #    Occupation            Energy/Eh            Energy/eV
      -------------------------------------------------------------
         1        2.0000           -0.6888067             -18.7434
       ...           ...                  ...                  ...
        20        2.0000           -0.4935566             -13.4304
        21        2.0000           -0.4790063             -13.0344
        22        2.0000           -0.4787826             -13.0283
        23        2.0000           -0.4750370             -12.9264
        24        2.0000           -0.4722296             -12.8500
        25        2.0000           -0.4667120             -12.6999
        26        2.0000           -0.4348185             -11.8320
        27        2.0000           -0.4294653             -11.6863
        28        2.0000           -0.4184618             -11.3869
        29        2.0000           -0.3965481             -10.7906
        30        2.0000           -0.3848239             -10.4716
        31        2.0000           -0.3838663             -10.4455
        32        2.0000           -0.3676978             -10.0056 (HOMO)
        33                         -0.2174508              -5.9171 (LUMO)
        34                         -0.2142119              -5.8290
        35                         -0.1643002              -4.4708
        36                         -0.0768595              -2.0915
        37                         -0.0235935              -0.6420
        38                          0.0262164               0.7134
        39                          0.0818788               2.2280
        40                          0.1045394               2.8447
        41                          0.1302398               3.5440
        42                          0.1475658               4.0155
        43                          0.1567186               4.2645
       ...                                ...                  ...
        60                          0.6827192              18.5777
      -------------------------------------------------------------
                  HL-Gap            0.1502471 Eh            4.0884 eV
             Fermi-level           -0.2925743 Eh           -7.9614 eV

     #   Z          covCN         q      C6AA      α(0)
     1   6 C        3.705    -0.040    21.436     6.619
     2   7 N        2.737    -0.122    23.654     7.223
     3   6 C        3.690    -0.046    21.589     6.650
     4   6 C        2.705     0.315    21.654     7.617
     5   8 O        0.859    -0.482    23.393     6.485
     6   7 N        2.701    -0.186    25.029     7.430
     7   6 C        2.904     0.079    26.238     8.399
     8   6 C        2.920    -0.049    29.229     8.866
     9   6 C        2.921    -0.029    28.715     8.788
    10   6 C        2.918    -0.040    29.000     8.831
    11   6 C        2.919    -0.030    28.757     8.794
    12   6 C        2.927    -0.059    29.462     8.901
    13   1 H        0.924     0.065     2.143     2.290
    14   1 H        0.925     0.049     2.331     2.387
    15   1 H        0.924     0.063     2.159     2.298
    16   1 H        0.924     0.046     2.371     2.408
    17   1 H        0.925     0.064     2.151     2.293
    18   1 H        0.924     0.046     2.368     2.407
    19   1 H        0.860     0.171     1.267     1.763
    20   1 H        0.926     0.076     2.023     2.224
    21   1 H        0.926     0.034     2.523     2.484
    22   1 H        0.926     0.028     2.610     2.526
    23   1 H        0.926     0.028     2.611     2.527
    24   1 H        0.926     0.018     2.761     2.598

 Mol. C6AA /au·bohr⁶  :       6176.133735
 Mol. C8AA /au·bohr⁸  :     142481.243333
 Mol. α(0) /au        :        122.807392


Wiberg/Mayer (AO) data.
largest (>0.10) Wiberg bond orders for each atom

 ---------------------------------------------------------------------------
     #   Z sym  total        # sym  WBO       # sym  WBO       # sym  WBO
 ---------------------------------------------------------------------------
     1   6 C    3.966 --     2 N    0.995    14 H    0.982    15 H    0.977
                            13 H    0.977
     2   7 N    3.426 --     4 C    1.183     3 C    1.004     1 C    0.995
                             5 O    0.155
     3   6 C    3.977 --     2 N    1.004    17 H    0.977    16 H    0.975
                            18 H    0.975
     4   6 C    3.962 --     5 O    1.579     2 N    1.183     6 N    1.130
     5   8 O    1.941 --     4 C    1.579     2 N    0.155     6 N    0.121
     6   7 N    3.450 --     4 C    1.130     7 C    1.084    19 H    0.929
                             5 O    0.121
     7   6 C    3.960 --     8 C    1.370    12 C    1.361     6 N    1.084
     8   6 C    3.986 --     9 C    1.451     7 C    1.370    20 H    0.959
                            11 C    0.107
     9   6 C    3.992 --     8 C    1.451    10 C    1.436    21 H    0.971
                            12 C    0.106
    10   6 C    3.988 --     9 C    1.436    11 C    1.428    22 H    0.972
    11   6 C    3.992 --    12 C    1.459    10 C    1.428    23 H    0.971
                             8 C    0.107
    12   6 C    3.987 --    11 C    1.459     7 C    1.361    24 H    0.967
                             9 C    0.106
    13   1 H    0.995 --     1 C    0.977
    14   1 H    0.997 --     1 C    0.982
    15   1 H    0.995 --     1 C    0.977
    16   1 H    0.998 --     3 C    0.975
    17   1 H    0.996 --     3 C    0.977
    18   1 H    0.998 --     3 C    0.975
    19   1 H    0.970 --     6 N    0.929
    20   1 H    0.994 --     8 C    0.959
    21   1 H    0.998 --     9 C    0.971
    22   1 H    0.999 --    10 C    0.972
    23   1 H    0.999 --    11 C    0.971
    24   1 H    1.000 --    12 C    0.967
 ---------------------------------------------------------------------------

Topologies differ in total number of bonds
Writing topology from bond orders to xtbtopo.mol

molecular dipole:
                 x           y           z       tot (Debye)
 q only:       -0.799       1.404      -0.012
   full:       -0.896       1.814      -0.013       5.142
molecular quadrupole (traceless):
                xx          xy          yy          xz          yz          zz
 q only:        8.805      -6.620      -4.058       0.049      -0.009      -4.748
  q+dip:       10.104      -8.074      -3.074       0.059      -0.040      -7.031
   full:        8.972      -7.968      -4.291       0.049      -0.007      -4.681


           -------------------------------------------------
          | TOTAL ENERGY              -35.318702401300 Eh   |
          | GRADIENT NORM               0.037972059827 Eh/α |
          | HOMO-LUMO GAP               4.088430497225 eV   |
           -------------------------------------------------

------------------------------------------------------------------------
 * finished run on 2025/04/06 at 07:06:59.374     
------------------------------------------------------------------------
 total:
 * wall-time:     0 d,  0 h,  0 min,  0.055 sec
 *  cpu-time:     0 d,  0 h,  0 min,  0.025 sec
 * ratio c/w:     0.457 speedup
 SCF:
 * wall-time:     0 d,  0 h,  0 min,  0.030 sec
 *  cpu-time:     0 d,  0 h,  0 min,  0.017 sec
 * ratio c/w:     0.577 speedup

