 Entering Gaussian System
 *********************************************
 Gaussian 98:
 frequency output generated by the xtb code
 *********************************************
                         Standard orientation:
 --------------------------------------------------------------------
  Center     Atomic     Atomic              Coordinates (Angstroms)
  Number     Number      Type              X           Y           Z
 --------------------------------------------------------------------
    1          6             0       -2.581190   -0.670953   -0.280585
    2          6             0       -1.187134   -0.288325    0.233644
    3          1             0       -1.202306   -0.238970    1.334094
    4          6             0       -0.713548    1.067135   -0.318694
    5          1             0       -0.709284    1.019645   -1.416368
    6          6             0        0.725945    1.350583    0.145559
    7          1             0        0.720978    1.511584    1.234145
    8          6             0        1.646581    0.168768   -0.159413
    9          1             0        1.799646    0.116384   -1.246396
   10          6             0        1.008833   -1.153034    0.306409
   11          1             0        0.984299   -1.148256    1.417017
   12          8             0       -0.301879   -1.315997   -0.181039
   13          8             0        1.792026   -2.179695   -0.179397
   14          8             0        2.861342    0.373491    0.511407
   15          8             0        1.238307    2.480467   -0.511654
   16          8             0       -1.495835    2.141427    0.143410
   17          8             0       -3.053673   -1.859794    0.294620
   18          1             0       -2.540075   -0.757886   -1.373595
   19          1             0       -3.298009    0.099590    0.005208
   20          1             0        1.393230   -3.039257    0.026628
   21          1             0        3.482465   -0.325204    0.256167
   22          1             0        0.677775    3.240241   -0.291109
   23          1             0       -2.319812    2.203484   -0.358110
   24          1             0       -2.435962   -2.572723    0.079376
 --------------------------------------------------------------------
     1 basis functions        1 primitive gaussians
     1 alpha electrons        1 beta electrons
 
 Harmonic frequencies (cm**-1), IR intensities (km*mol⁻¹),
 Raman scattering activities (A**4/amu), Raman depolarization ratios,
 reduced masses (AMU), force constants (mDyne/A) and normal coordinates:
                      1                      2                      3
                        a                      a                      a 
 Frequencies --    50.2953                75.5963                85.2905
 Red. masses --    13.9162                13.1400                12.4448
 Frc consts  --     0.0000                 0.0000                 0.0000
 IR Inten    --     6.5704                 5.5370                 2.0944
 Raman Activ --     0.0000                 0.0000                 0.0000
 Depolar     --     0.0000                 0.0000                 0.0000
 Atom AN      X      Y      Z        X      Y      Z        X      Y      Z
   1   6     0.02   0.02  -0.14    -0.05   0.08   0.20    -0.08   0.10   0.27
   2   6    -0.04   0.02   0.05     0.01   0.05   0.07    -0.02   0.10   0.13
   3   1    -0.05  -0.00   0.01     0.04   0.00   0.02     0.02   0.05   0.04
   4   6    -0.04   0.05   0.13    -0.03   0.06   0.05     0.03   0.01  -0.05
   5   1    -0.05   0.05   0.04    -0.05   0.02   0.01     0.05  -0.06  -0.01
   6   6     0.03   0.01  -0.05     0.02   0.06  -0.12    -0.01  -0.01   0.08
   7   1     0.05   0.02  -0.02     0.03   0.09  -0.05    -0.02  -0.04   0.03
   8   6    -0.04  -0.03  -0.11     0.02  -0.01   0.10    -0.06  -0.02  -0.03
   9   1    -0.07  -0.04  -0.04     0.08  -0.00   0.04    -0.05  -0.00  -0.01
  10   6    -0.03   0.06   0.14    -0.05  -0.02  -0.04    -0.06   0.00   0.04
  11   1    -0.02   0.08   0.04    -0.02  -0.04  -0.01     0.01   0.01   0.01
  12   8    -0.02   0.01   0.15    -0.06   0.08  -0.09    -0.12   0.03   0.16
  13   8    -0.03  -0.04   0.42    -0.09   0.00  -0.15    -0.15  -0.03  -0.02
  14   8     0.10   0.01  -0.41    -0.15  -0.01   0.45     0.04  -0.09  -0.21
  15   8    -0.03  -0.03  -0.18     0.05  -0.15  -0.50     0.05   0.08   0.30
  16   8     0.06   0.02   0.42     0.05   0.07   0.19    -0.01   0.13  -0.42
  17   8     0.04  -0.12  -0.44     0.26  -0.23  -0.16     0.35  -0.30  -0.20
  18   1     0.04   0.06  -0.04    -0.08   0.14   0.05    -0.10   0.17   0.06
  19   1    -0.02  -0.02  -0.03    -0.03  -0.03   0.18    -0.04  -0.04   0.23
  20   1    -0.00   0.00   0.17    -0.02  -0.00  -0.05    -0.01  -0.01   0.05
  21   1    -0.01  -0.03  -0.09    -0.01   0.02   0.13    -0.01  -0.03  -0.07
  22   1     0.02   0.00  -0.02     0.05  -0.00  -0.14    -0.02   0.00   0.06
  23   1    -0.02   0.01   0.16    -0.02   0.01   0.09     0.03   0.02  -0.16
  24   1     0.04  -0.00  -0.11     0.09  -0.00  -0.14     0.15   0.00  -0.15
                      4                      5                      6
                        a                      a                      a 
 Frequencies --   139.8705               162.5840               219.5572
 Red. masses --    13.8496                10.3060                11.0440
 Frc consts  --     0.0000                 0.0000                 0.0000
 IR Inten    --     3.9588                 5.5404               111.0975
 Raman Activ --     0.0000                 0.0000                 0.0000
 Depolar     --     0.0000                 0.0000                 0.0000
 Atom AN      X      Y      Z        X      Y      Z        X      Y      Z
   1   6    -0.07  -0.07   0.04    -0.09   0.27   0.32    -0.06  -0.06   0.04
   2   6     0.00   0.02  -0.27     0.12  -0.15   0.05    -0.05  -0.04   0.05
   3   1     0.05  -0.03  -0.07     0.11  -0.08   0.02    -0.00  -0.03   0.02
   4   6    -0.03   0.11  -0.11     0.03  -0.12   0.04     0.04  -0.10   0.01
   5   1    -0.02   0.08  -0.03     0.02  -0.05   0.01    -0.00  -0.06   0.00
   6   6    -0.01  -0.00  -0.04     0.02  -0.01   0.01     0.03  -0.07  -0.04
   7   1    -0.02  -0.03  -0.01     0.02   0.00   0.00     0.02  -0.04  -0.01
   8   6    -0.03  -0.02  -0.06     0.05   0.02  -0.02     0.13   0.02  -0.07
   9   1     0.00  -0.00  -0.02     0.02   0.01  -0.01     0.07   0.01  -0.01
  10   6    -0.14   0.03  -0.09     0.05  -0.00  -0.05     0.02   0.05  -0.07
  11   1    -0.15   0.06  -0.03    -0.04   0.02  -0.02    -0.01   0.04  -0.02
  12   8    -0.00   0.12  -0.56     0.12  -0.07  -0.26     0.02   0.05  -0.08
  13   8    -0.01  -0.07   0.41     0.25   0.03   0.21    -0.02  -0.03   0.06
  14   8    -0.05  -0.11  -0.02     0.05   0.03  -0.02     0.08  -0.10   0.10
  15   8     0.10   0.06   0.15    -0.11   0.02  -0.05    -0.44   0.19   0.06
  16   8    -0.00   0.04   0.12    -0.14  -0.23  -0.04     0.50   0.24  -0.13
  17   8     0.28  -0.10   0.31    -0.32   0.15  -0.16    -0.13  -0.07  -0.02
  18   1    -0.10  -0.04   0.01    -0.14   0.23   0.08    -0.01  -0.00   0.01
  19   1    -0.02  -0.04   0.05     0.06   0.10   0.27    -0.02  -0.02   0.01
  20   1    -0.01  -0.01   0.13     0.07   0.00   0.05    -0.02   0.00   0.04
  21   1    -0.05  -0.08   0.05     0.00  -0.01   0.02     0.00  -0.06   0.07
  22   1     0.05   0.02   0.07    -0.02   0.00   0.01    -0.36  -0.09  -0.15
  23   1    -0.01   0.03   0.05     0.06   0.03  -0.16    -0.09  -0.16   0.29
  24   1     0.06  -0.01   0.02    -0.18   0.00  -0.22    -0.06  -0.03  -0.04
                      7                      8                      9
                        a                      a                      a 
 Frequencies --   232.8033               260.6592               273.0013
 Red. masses --    11.8132                 6.2417                 7.8358
 Frc consts  --     0.0000                 0.0000                 0.0000
 IR Inten    --    11.7207               126.9087               140.4515
 Raman Activ --     0.0000                 0.0000                 0.0000
 Depolar     --     0.0000                 0.0000                 0.0000
 Atom AN      X      Y      Z        X      Y      Z        X      Y      Z
   1   6     0.04   0.00  -0.07    -0.08   0.05   0.04    -0.06  -0.10   0.05
   2   6    -0.00   0.01   0.02    -0.02   0.00  -0.04    -0.04  -0.04   0.03
   3   1    -0.02  -0.00   0.01     0.00   0.03  -0.01     0.01  -0.05   0.01
   4   6     0.04   0.02   0.08    -0.04   0.01  -0.11    -0.02   0.03   0.09
   5   1     0.04  -0.00   0.02    -0.03   0.01  -0.03     0.03  -0.01   0.02
   6   6     0.05   0.16   0.08    -0.06  -0.04  -0.06    -0.02   0.07   0.17
   7   1     0.03   0.08   0.02    -0.05  -0.03  -0.01    -0.02   0.07   0.04
   8   6    -0.08   0.06   0.06    -0.12  -0.03  -0.04    -0.08   0.03   0.19
   9   1    -0.04   0.03   0.01    -0.03  -0.01  -0.01    -0.09   0.01   0.04
  10   6    -0.09   0.08   0.01    -0.01  -0.05  -0.02    -0.05   0.02   0.10
  11   1    -0.02   0.01   0.00     0.01  -0.01  -0.01    -0.06  -0.05   0.03
  12   8    -0.07  -0.05   0.05    -0.10  -0.13   0.07     0.05   0.10  -0.15
  13   8     0.20   0.35  -0.04     0.24   0.21  -0.13     0.13   0.18   0.07
  14   8     0.08  -0.63  -0.02    -0.20   0.03   0.02     0.11   0.03  -0.19
  15   8    -0.12   0.13  -0.15     0.27  -0.11   0.11     0.30  -0.21  -0.03
  16   8    -0.14  -0.07  -0.02     0.11   0.06  -0.03    -0.03   0.13  -0.19
  17   8     0.08   0.04   0.02    -0.08   0.02  -0.01    -0.16  -0.12   0.01
  18   1     0.04  -0.03  -0.02    -0.05   0.04   0.01    -0.02  -0.02   0.01
  19   1    -0.00   0.00  -0.06    -0.02   0.01   0.05    -0.02  -0.04   0.02
  20   1     0.16   0.05   0.03     0.46  -0.01   0.47    -0.19   0.04  -0.43
  21   1    -0.17  -0.38   0.12     0.01   0.09  -0.08    -0.04  -0.06  -0.02
  22   1    -0.05   0.02  -0.07     0.08  -0.01  -0.02     0.08  -0.01  -0.14
  23   1     0.01  -0.01  -0.07    -0.18  -0.22   0.30    -0.22  -0.29   0.26
  24   1     0.07   0.03   0.08     0.00   0.02   0.01    -0.12  -0.07  -0.09
                     10                     11                     12
                        a                      a                      a 
 Frequencies --   280.1833               296.3854               319.2312
 Red. masses --     8.5850                 7.5426                10.5270
 Frc consts  --     0.0000                 0.0000                 0.0000
 IR Inten    --    46.9695                19.8519                21.3117
 Raman Activ --     0.0000                 0.0000                 0.0000
 Depolar     --     0.0000                 0.0000                 0.0000
 Atom AN      X      Y      Z        X      Y      Z        X      Y      Z
   1   6     0.12   0.23   0.00     0.11   0.08  -0.07     0.05   0.20  -0.04
   2   6     0.15   0.04  -0.06     0.04   0.01   0.05     0.04   0.01  -0.07
   3   1     0.05   0.06  -0.02     0.01  -0.06   0.02     0.01  -0.00  -0.02
   4   6     0.05  -0.02  -0.14     0.03   0.02   0.21    -0.03   0.01  -0.02
   5   1    -0.00   0.02  -0.04     0.07  -0.02   0.06    -0.01   0.02  -0.01
   6   6    -0.00   0.06  -0.11    -0.00   0.04   0.25    -0.15  -0.14   0.08
   7   1    -0.02  -0.01  -0.03     0.03   0.07   0.06    -0.06  -0.03   0.02
   8   6    -0.01  -0.01  -0.08     0.00  -0.01   0.19    -0.22  -0.13   0.11
   9   1     0.02  -0.01  -0.02    -0.05   0.03   0.05    -0.10  -0.07   0.02
  10   6     0.01  -0.03  -0.01    -0.02  -0.08   0.02    -0.04  -0.21   0.10
  11   1     0.03   0.02   0.00    -0.05  -0.06   0.00    -0.04  -0.11   0.03
  12   8     0.00  -0.14   0.13     0.03   0.15  -0.25    -0.03  -0.15  -0.04
  13   8    -0.11  -0.18   0.06    -0.15  -0.15  -0.05     0.33   0.07   0.04
  14   8    -0.09  -0.02   0.03     0.14  -0.08  -0.01    -0.20   0.16  -0.14
  15   8    -0.01   0.20   0.09    -0.14  -0.12  -0.10    -0.19  -0.21   0.03
  16   8    -0.21  -0.32   0.02    -0.22  -0.00  -0.12     0.19   0.15   0.06
  17   8     0.23   0.25  -0.02     0.15   0.14   0.01     0.25   0.20  -0.01
  18   1     0.00   0.09  -0.00     0.07  -0.01  -0.02    -0.02   0.07  -0.02
  19   1     0.04   0.06   0.04     0.01   0.02  -0.06     0.03   0.06   0.02
  20   1    -0.18  -0.01  -0.16     0.12  -0.04   0.27     0.02  -0.02  -0.26
  21   1    -0.04  -0.05   0.09     0.18   0.25  -0.39    -0.07  -0.01   0.05
  22   1    -0.10   0.00  -0.06    -0.18  -0.07  -0.24    -0.19  -0.11  -0.17
  23   1    -0.27  -0.40   0.31    -0.07  -0.13  -0.01     0.10   0.18  -0.06
  24   1     0.09   0.08   0.02     0.08   0.05   0.07     0.18   0.11   0.12
                     13                     14                     15
                        a                      a                      a 
 Frequencies --   340.4624               360.9235               377.3472
 Red. masses --     6.0763                 6.3649                 5.3559
 Frc consts  --     0.0000                 0.0000                 0.0000
 IR Inten    --   258.1196               235.2131                35.3065
 Raman Activ --     0.0000                 0.0000                 0.0000
 Depolar     --     0.0000                 0.0000                 0.0000
 Atom AN      X      Y      Z        X      Y      Z        X      Y      Z
   1   6     0.13  -0.02  -0.00     0.15   0.03   0.05    -0.11   0.01   0.10
   2   6     0.05   0.02   0.15     0.06  -0.04   0.23    -0.07  -0.03   0.09
   3   1     0.02  -0.04   0.04     0.05  -0.07   0.07     0.01  -0.01   0.03
   4   6    -0.06   0.04   0.15    -0.04  -0.02   0.18     0.01  -0.06   0.03
   5   1    -0.01  -0.03   0.04    -0.00  -0.06   0.05    -0.02  -0.04   0.01
   6   6    -0.03  -0.04   0.07    -0.02  -0.00   0.03     0.07  -0.03  -0.05
   7   1     0.02  -0.01   0.02     0.06  -0.02   0.01     0.02  -0.03  -0.01
   8   6     0.00  -0.03  -0.02    -0.07  -0.01  -0.12     0.11   0.05  -0.12
   9   1    -0.00  -0.00  -0.01    -0.01   0.03  -0.03     0.06   0.03  -0.03
  10   6     0.08  -0.06  -0.05     0.00  -0.05  -0.13    -0.01   0.12  -0.12
  11   1     0.01  -0.03  -0.02    -0.01   0.02  -0.04    -0.01   0.08  -0.03
  12   8     0.08   0.16  -0.10     0.00   0.00  -0.12    -0.05   0.05  -0.07
  13   8    -0.11  -0.21  -0.12     0.13  -0.09   0.12    -0.01   0.07   0.07
  14   8     0.01   0.27  -0.15    -0.18  -0.06   0.04     0.03   0.05   0.04
  15   8     0.03  -0.13   0.03    -0.19  -0.01  -0.12     0.25  -0.02   0.11
  16   8    -0.15   0.11  -0.08     0.04   0.20  -0.20    -0.05  -0.12   0.04
  17   8     0.00   0.04  -0.02    -0.02   0.04  -0.12    -0.22  -0.12  -0.19
  18   1     0.10  -0.02   0.00     0.13  -0.00   0.01    -0.01   0.02   0.02
  19   1     0.02   0.00  -0.06     0.02   0.01  -0.05    -0.04  -0.01   0.03
  20   1     0.12  -0.05   0.26    -0.03  -0.02  -0.06    -0.05   0.03  -0.04
  21   1    -0.24  -0.37   0.56    -0.00   0.05  -0.05     0.02   0.01   0.04
  22   1    -0.05  -0.04  -0.09     0.36   0.14   0.50    -0.16  -0.08  -0.28
  23   1    -0.05  -0.04  -0.01    -0.09  -0.12   0.09     0.04   0.02  -0.06
  24   1    -0.03  -0.01  -0.01     0.18   0.08   0.28     0.39   0.16   0.60
                     16                     17                     18
                        a                      a                      a 
 Frequencies --   380.3703               402.9889               436.7906
 Red. masses --    10.2911                12.4714                11.7133
 Frc consts  --     0.0000                 0.0000                 0.0000
 IR Inten    --   206.4969                 1.5707                58.9995
 Raman Activ --     0.0000                 0.0000                 0.0000
 Depolar     --     0.0000                 0.0000                 0.0000
 Atom AN      X      Y      Z        X      Y      Z        X      Y      Z
   1   6    -0.25   0.12  -0.06     0.09  -0.04  -0.04     0.01  -0.10   0.12
   2   6    -0.15  -0.02  -0.20     0.06  -0.17   0.08     0.15  -0.03  -0.15
   3   1    -0.07   0.00  -0.05     0.01  -0.11   0.03     0.09   0.03  -0.04
   4   6     0.11  -0.15  -0.07     0.28  -0.16   0.20     0.04   0.16  -0.13
   5   1     0.08  -0.01  -0.02     0.13  -0.09   0.06     0.01   0.09  -0.04
   6   6     0.04  -0.07   0.12     0.16   0.20   0.14     0.00   0.29  -0.00
   7   1    -0.02   0.02   0.03     0.09   0.09   0.03    -0.05   0.14  -0.01
   8   6     0.13   0.02   0.23    -0.18   0.10  -0.03    -0.14  -0.01   0.28
   9   1    -0.00  -0.02   0.06    -0.07   0.04  -0.01    -0.09  -0.05   0.07
  10   6    -0.06   0.04   0.14    -0.24   0.05  -0.08     0.02  -0.26   0.17
  11   1    -0.05  -0.04   0.04    -0.09   0.03  -0.02    -0.01  -0.16   0.05
  12   8    -0.06   0.02  -0.04    -0.19  -0.27  -0.10     0.09  -0.17  -0.04
  13   8    -0.17   0.15  -0.12    -0.21   0.10   0.02    -0.02  -0.28  -0.09
  14   8     0.34   0.21  -0.09    -0.28   0.22  -0.07     0.05   0.02  -0.09
  15   8    -0.21  -0.12  -0.11     0.15   0.16  -0.06     0.01   0.40  -0.08
  16   8     0.16  -0.24  -0.01     0.29  -0.19  -0.04     0.04   0.13   0.04
  17   8     0.07   0.04   0.02     0.07   0.00   0.04    -0.25  -0.16  -0.08
  18   1    -0.16   0.06  -0.02     0.06  -0.04  -0.01    -0.05   0.00   0.03
  19   1    -0.06   0.01   0.07     0.02  -0.00  -0.05     0.03  -0.02   0.09
  20   1     0.06   0.02   0.07    -0.03   0.02   0.05     0.05  -0.08   0.05
  21   1    -0.00  -0.09   0.14    -0.05   0.05   0.04    -0.04  -0.05  -0.01
  22   1     0.19   0.05   0.29    -0.00   0.03  -0.09     0.00   0.09  -0.00
  23   1    -0.01  -0.12   0.07     0.11  -0.02  -0.08     0.00   0.06   0.03
  24   1     0.17   0.10   0.15    -0.06  -0.04  -0.08     0.07   0.00   0.22
                     19                     20                     21
                        a                      a                      a 
 Frequencies --   479.8099               521.9653               577.6767
 Red. masses --    11.6744                10.4140                11.5426
 Frc consts  --     0.0000                 0.0000                 0.0000
 IR Inten    --    10.3327                52.9633                20.4967
 Raman Activ --     0.0000                 0.0000                 0.0000
 Depolar     --     0.0000                 0.0000                 0.0000
 Atom AN      X      Y      Z        X      Y      Z        X      Y      Z
   1   6    -0.34   0.04  -0.16     0.03   0.01   0.02     0.02   0.08  -0.07
   2   6    -0.21  -0.00  -0.15     0.12  -0.12  -0.22    -0.08  -0.29   0.16
   3   1    -0.15  -0.04  -0.04     0.03  -0.00  -0.06    -0.03  -0.17   0.05
   4   6     0.08   0.13   0.25    -0.04   0.00  -0.08    -0.34  -0.17   0.03
   5   1     0.10   0.07   0.07     0.04   0.05  -0.03    -0.23  -0.13   0.01
   6   6     0.16   0.09   0.18    -0.23   0.08   0.27    -0.20   0.08  -0.20
   7   1     0.15   0.03   0.05    -0.12   0.06   0.07    -0.16   0.05  -0.06
   8   6     0.11   0.04  -0.12    -0.11   0.31  -0.03     0.10   0.14   0.14
   9   1     0.06   0.10  -0.03    -0.06   0.26  -0.02     0.06   0.05   0.04
  10   6     0.11  -0.10  -0.23     0.20   0.25  -0.15    -0.06  -0.00  -0.07
  11   1     0.07   0.02  -0.06     0.12   0.15  -0.03    -0.05  -0.01  -0.02
  12   8    -0.15  -0.24   0.15     0.26  -0.16   0.13    -0.11  -0.32  -0.07
  13   8     0.29  -0.27   0.08    -0.18  -0.11   0.01    -0.04  -0.02   0.01
  14   8     0.05   0.09   0.04    -0.10  -0.13   0.01     0.36   0.02   0.03
  15   8     0.02   0.07  -0.08    -0.04  -0.31  -0.02     0.17   0.12   0.05
  16   8    -0.17   0.18  -0.05     0.13   0.07   0.01     0.00   0.19  -0.02
  17   8     0.06  -0.02   0.10    -0.02   0.02  -0.01     0.17   0.15   0.01
  18   1    -0.19   0.01  -0.05    -0.11   0.05  -0.00     0.03   0.02  -0.02
  19   1    -0.10  -0.01   0.02     0.07   0.02   0.11     0.02   0.04  -0.03
  20   1     0.00  -0.05  -0.04    -0.15   0.05   0.12    -0.02   0.00   0.02
  21   1     0.03   0.02   0.07    -0.09  -0.07  -0.06     0.03  -0.04  -0.02
  22   1    -0.01   0.01  -0.05     0.08   0.01  -0.07     0.06   0.06  -0.04
  23   1    -0.04  -0.06  -0.03     0.01   0.06   0.04    -0.02   0.13   0.04
  24   1     0.02   0.03  -0.05     0.03   0.02   0.07     0.03   0.05  -0.05
                     22                     23                     24
                        a                      a                      a 
 Frequencies --   602.8919               610.3349               884.3159
 Red. masses --    11.4335                12.5070                 6.8927
 Frc consts  --     0.0000                 0.0000                 0.0000
 IR Inten    --    25.2427                20.3655                36.4525
 Raman Activ --     0.0000                 0.0000                 0.0000
 Depolar     --     0.0000                 0.0000                 0.0000
 Atom AN      X      Y      Z        X      Y      Z        X      Y      Z
   1   6    -0.06   0.01  -0.09    -0.26   0.08  -0.15     0.37  -0.21  -0.14
   2   6     0.05  -0.28  -0.17    -0.22  -0.06   0.13    -0.01  -0.07  -0.15
   3   1    -0.04  -0.18  -0.04    -0.16  -0.09   0.04    -0.22  -0.03  -0.03
   4   6    -0.04   0.04   0.25    -0.06  -0.23   0.07    -0.08  -0.08   0.10
   5   1    -0.02   0.02   0.07    -0.05  -0.16   0.02    -0.02  -0.05   0.03
   6   6     0.15  -0.10  -0.13    -0.08   0.12  -0.08    -0.03  -0.00   0.00
   7   1     0.16  -0.08  -0.02    -0.05   0.06  -0.03     0.00   0.01  -0.00
   8   6     0.02  -0.18  -0.13    -0.16   0.04   0.03     0.00  -0.02  -0.00
   9   1     0.01  -0.20  -0.03    -0.09  -0.01   0.00     0.02   0.02   0.00
  10   6     0.04   0.09   0.32     0.23  -0.03   0.13    -0.15  -0.05  -0.11
  11   1     0.02   0.03   0.09     0.10  -0.05   0.03    -0.03  -0.02  -0.03
  12   8     0.35  -0.15  -0.02     0.27   0.39  -0.02    -0.20   0.30   0.16
  13   8    -0.25   0.24  -0.09     0.11  -0.20  -0.05     0.06  -0.04   0.03
  14   8    -0.15  -0.04   0.01    -0.23  -0.11  -0.04     0.04   0.01   0.00
  15   8     0.03   0.07   0.02     0.14   0.19  -0.01     0.03   0.05  -0.01
  16   8    -0.16   0.26  -0.06     0.19  -0.21  -0.02     0.04  -0.03  -0.03
  17   8     0.03   0.04   0.03     0.10   0.06   0.05     0.01   0.09  -0.01
  18   1    -0.17   0.06  -0.03    -0.10   0.02  -0.04    -0.30   0.19  -0.07
  19   1     0.07   0.03   0.12    -0.08   0.01  -0.02     0.30  -0.02   0.41
  20   1    -0.03   0.05   0.01    -0.00  -0.03   0.01     0.07  -0.05  -0.04
  21   1     0.02   0.03   0.03    -0.08  -0.03  -0.06     0.01   0.01   0.01
  22   1    -0.05  -0.03   0.04     0.04   0.06  -0.03     0.01   0.02  -0.02
  23   1    -0.04  -0.02  -0.02     0.05   0.01  -0.01     0.00   0.00   0.00
  24   1     0.04   0.03   0.05     0.06   0.06  -0.04    -0.13  -0.15   0.19
                     25                     26                     27
                        a                      a                      a 
 Frequencies --   979.1323               996.4386              1027.3964
 Red. masses --     8.5298                 9.6880                 9.2694
 Frc consts  --     0.0000                 0.0000                 0.0000
 IR Inten    --    65.3275                71.0442                27.2680
 Raman Activ --     0.0000                 0.0000                 0.0000
 Depolar     --     0.0000                 0.0000                 0.0000
 Atom AN      X      Y      Z        X      Y      Z        X      Y      Z
   1   6     0.06  -0.00   0.13    -0.02   0.06  -0.07    -0.12   0.08  -0.15
   2   6    -0.11  -0.07  -0.08     0.15   0.09  -0.04     0.22   0.08   0.06
   3   1     0.03   0.05  -0.02     0.01  -0.04  -0.01     0.05  -0.01   0.02
   4   6    -0.26  -0.10  -0.14     0.18   0.11   0.24     0.04   0.11   0.14
   5   1     0.06   0.00  -0.04     0.02   0.01   0.06     0.01  -0.00   0.04
   6   6    -0.05   0.18   0.43    -0.30   0.11  -0.25    -0.36   0.07   0.04
   7   1     0.06   0.03   0.11    -0.08  -0.07  -0.04    -0.18   0.05   0.00
   8   6     0.20  -0.10  -0.40     0.03   0.31  -0.32    -0.07  -0.44   0.00
   9   1     0.02  -0.01  -0.11     0.09   0.05  -0.06    -0.00  -0.16   0.01
  10   6    -0.03  -0.14   0.23    -0.08  -0.17   0.32    -0.09   0.00  -0.33
  11   1    -0.00   0.03   0.06    -0.02  -0.02   0.08    -0.01   0.05  -0.07
  12   8    -0.01   0.04  -0.03    -0.06  -0.00  -0.05     0.18   0.02   0.12
  13   8    -0.05   0.04  -0.00    -0.04  -0.06  -0.01    -0.04   0.13   0.06
  14   8    -0.01  -0.05   0.02     0.13   0.00   0.11     0.12  -0.03  -0.01
  15   8    -0.01   0.07  -0.05    -0.08  -0.16   0.12    -0.03   0.09   0.01
  16   8     0.05  -0.07  -0.04     0.08  -0.03   0.00     0.09  -0.06  -0.01
  17   8     0.02   0.04  -0.03    -0.05  -0.09   0.04    -0.05  -0.10   0.06
  18   1     0.09  -0.03   0.04    -0.04  -0.01  -0.01    -0.08  -0.00  -0.04
  19   1     0.02   0.03  -0.05    -0.02  -0.01  -0.00    -0.03   0.01  -0.01
  20   1     0.16  -0.10  -0.12     0.20  -0.14  -0.14    -0.06   0.06   0.05
  21   1     0.18   0.09   0.17    -0.08  -0.06  -0.08     0.24   0.11   0.19
  22   1     0.14   0.17  -0.18     0.11   0.10  -0.11     0.14   0.17  -0.16
  23   1    -0.07   0.20   0.14     0.09  -0.20  -0.14     0.06  -0.10  -0.07
  24   1     0.03   0.04  -0.04    -0.01  -0.02   0.01     0.02   0.01  -0.01
                     28                     29                     30
                        a                      a                      a 
 Frequencies --  1037.2330              1051.9915              1059.9348
 Red. masses --    10.0658                 8.7823                11.6129
 Frc consts  --     0.0000                 0.0000                 0.0000
 IR Inten    --    48.2810                39.9793               386.8324
 Raman Activ --     0.0000                 0.0000                 0.0000
 Depolar     --     0.0000                 0.0000                 0.0000
 Atom AN      X      Y      Z        X      Y      Z        X      Y      Z
   1   6     0.19   0.01   0.22     0.06   0.22   0.13     0.07   0.25  -0.15
   2   6    -0.18   0.13  -0.29     0.14  -0.06  -0.37     0.17  -0.28   0.05
   3   1    -0.04   0.04  -0.07     0.05   0.04  -0.09    -0.06  -0.10   0.02
   4   6    -0.12   0.01   0.28    -0.23  -0.13   0.24     0.24  -0.09  -0.17
   5   1     0.04   0.05   0.06    -0.03   0.01   0.06     0.01  -0.02  -0.04
   6   6    -0.19  -0.05  -0.06     0.01  -0.17  -0.03    -0.00   0.03   0.03
   7   1     0.05  -0.02  -0.01     0.14  -0.02  -0.01    -0.20   0.05  -0.00
   8   6    -0.06  -0.09   0.02    -0.09   0.04   0.08     0.19  -0.03   0.04
   9   1    -0.02  -0.18   0.01     0.02   0.09   0.02    -0.01   0.01  -0.00
  10   6     0.42   0.14   0.13    -0.19  -0.03  -0.14     0.29  -0.02   0.09
  11   1     0.08  -0.01   0.02    -0.02   0.01  -0.03     0.02  -0.02   0.01
  12   8    -0.32  -0.10  -0.14     0.05   0.19   0.21    -0.39   0.18  -0.02
  13   8     0.08   0.01  -0.06    -0.00  -0.03   0.03     0.00   0.05   0.01
  14   8     0.03  -0.02   0.02     0.05   0.05   0.03    -0.16  -0.06  -0.09
  15   8     0.03   0.08  -0.00     0.09   0.11  -0.06    -0.03  -0.01   0.00
  16   8     0.12  -0.10  -0.06     0.05  -0.05  -0.08    -0.13   0.18   0.09
  17   8     0.01   0.03  -0.06    -0.11  -0.21   0.06    -0.11  -0.28   0.14
  18   1     0.12  -0.04   0.06     0.07  -0.20   0.06    -0.04  -0.05  -0.02
  19   1    -0.00  -0.01  -0.03     0.12   0.23  -0.19     0.16   0.19  -0.05
  20   1    -0.27   0.17   0.15     0.11  -0.08  -0.07    -0.07   0.05   0.03
  21   1     0.02   0.00   0.02    -0.09  -0.05  -0.09     0.05   0.04   0.06
  22   1     0.06   0.08  -0.07    -0.06  -0.06   0.06     0.02   0.02  -0.02
  23   1     0.06  -0.10  -0.07    -0.01   0.03   0.02    -0.02  -0.02  -0.00
  24   1    -0.04  -0.04   0.02     0.18   0.19  -0.19     0.11   0.09  -0.10
                     31                     32                     33
                        a                      a                      a 
 Frequencies --  1075.1643              1084.0947              1087.8172
 Red. masses --    10.3274                 9.1245                11.2380
 Frc consts  --     0.0000                 0.0000                 0.0000
 IR Inten    --   447.9869                77.9210                36.7272
 Raman Activ --     0.0000                 0.0000                 0.0000
 Depolar     --     0.0000                 0.0000                 0.0000
 Atom AN      X      Y      Z        X      Y      Z        X      Y      Z
   1   6     0.11   0.27  -0.22     0.19   0.05   0.21     0.17   0.25  -0.14
   2   6     0.07   0.14   0.09    -0.43  -0.26   0.03    -0.19   0.03   0.20
   3   1    -0.06  -0.04   0.02    -0.27  -0.14   0.01    -0.18  -0.08   0.05
   4   6    -0.21   0.12  -0.02     0.20   0.21  -0.15    -0.05   0.30  -0.10
   5   1    -0.09  -0.11  -0.00     0.14   0.17  -0.04     0.08   0.09  -0.03
   6   6     0.21   0.34  -0.06    -0.05   0.09  -0.08    -0.13  -0.37   0.15
   7   1     0.22  -0.02   0.01    -0.05  -0.03  -0.01     0.02  -0.08   0.03
   8   6    -0.17   0.02  -0.06    -0.04  -0.04   0.01    -0.13  -0.00  -0.08
   9   1    -0.02  -0.22   0.00     0.02  -0.17   0.01    -0.03   0.22  -0.02
  10   6    -0.05   0.13   0.05    -0.28   0.22  -0.03     0.14  -0.18   0.01
  11   1    -0.00  -0.04   0.01    -0.02   0.03  -0.01     0.04   0.03   0.01
  12   8    -0.01  -0.09  -0.06     0.18   0.02   0.04     0.08  -0.12  -0.10
  13   8     0.11  -0.09  -0.07     0.14  -0.17  -0.08    -0.13   0.13   0.07
  14   8     0.11   0.02   0.07     0.05   0.00   0.01     0.10   0.04   0.08
  15   8    -0.11  -0.24   0.14    -0.07  -0.07   0.06     0.13   0.23  -0.18
  16   8     0.06  -0.19  -0.11    -0.00   0.02   0.05     0.07  -0.14  -0.04
  17   8    -0.10  -0.27   0.15    -0.01  -0.01  -0.01    -0.06  -0.21   0.12
  18   1    -0.07   0.06  -0.05     0.11  -0.07   0.06     0.01   0.11  -0.03
  19   1     0.06   0.06   0.02     0.14   0.13  -0.05     0.04   0.03   0.05
  20   1    -0.12   0.07   0.09     0.02  -0.03   0.00     0.04  -0.02  -0.04
  21   1     0.02   0.00   0.01     0.03   0.01   0.01    -0.07  -0.05  -0.06
  22   1    -0.02  -0.05   0.02     0.06   0.06  -0.07    -0.08  -0.06   0.06
  23   1    -0.08   0.23   0.16     0.04  -0.12  -0.07     0.00  -0.00   0.01
  24   1    -0.00  -0.04   0.02     0.09   0.10  -0.09    -0.04  -0.08   0.05
                     34                     35                     36
                        a                      a                      a 
 Frequencies --  1097.5138              1126.7507              1130.6705
 Red. masses --    11.1880                11.4247                 6.7851
 Frc consts  --     0.0000                 0.0000                 0.0000
 IR Inten    --    67.2166                93.6529                39.5972
 Raman Activ --     0.0000                 0.0000                 0.0000
 Depolar     --     0.0000                 0.0000                 0.0000
 Atom AN      X      Y      Z        X      Y      Z        X      Y      Z
   1   6    -0.21  -0.26   0.02    -0.05  -0.13   0.04    -0.09   0.04  -0.15
   2   6     0.19  -0.37   0.12     0.04  -0.08   0.05     0.15  -0.11   0.11
   3   1     0.12  -0.07   0.04    -0.02  -0.15   0.02     0.18   0.04   0.03
   4   6    -0.00   0.22  -0.11    -0.25   0.51   0.09    -0.07   0.05  -0.03
   5   1     0.12   0.14  -0.03    -0.18   0.13   0.02     0.20   0.10  -0.01
   6   6    -0.03   0.02  -0.00     0.08   0.09  -0.04    -0.18  -0.25   0.11
   7   1     0.18  -0.08   0.01    -0.05   0.09  -0.01     0.17  -0.22   0.05
   8   6    -0.39  -0.03  -0.16     0.37   0.03   0.18     0.26   0.11   0.12
   9   1    -0.07  -0.06  -0.02     0.09   0.07   0.03     0.18  -0.25   0.06
  10   6     0.15  -0.06   0.00     0.07  -0.06  -0.04    -0.17   0.23   0.05
  11   1     0.05   0.00  -0.00    -0.04  -0.04  -0.01    -0.07  -0.07   0.01
  12   8    -0.23   0.21   0.05    -0.06  -0.01   0.04    -0.06   0.03   0.04
  13   8     0.01   0.03   0.02    -0.07   0.06   0.05     0.14  -0.15  -0.09
  14   8     0.27   0.06   0.18    -0.26  -0.07  -0.18    -0.14   0.03  -0.06
  15   8     0.00  -0.02  -0.01    -0.04  -0.09   0.04     0.01   0.15  -0.06
  16   8     0.05  -0.08  -0.04     0.20  -0.29  -0.15     0.01  -0.04  -0.03
  17   8     0.06   0.19  -0.07     0.01   0.08  -0.03     0.01  -0.03   0.04
  18   1    -0.05  -0.06  -0.00    -0.05  -0.06   0.01     0.01   0.10  -0.04
  19   1     0.05   0.03  -0.01     0.05   0.03   0.00    -0.06  -0.05   0.02
  20   1    -0.06   0.04   0.03     0.05  -0.03  -0.03    -0.07   0.04   0.06
  21   1    -0.04  -0.04  -0.04     0.02   0.03   0.02    -0.22  -0.10  -0.19
  22   1    -0.04  -0.05   0.04    -0.04  -0.05   0.05     0.15   0.19  -0.19
  23   1    -0.01   0.05   0.04     0.05  -0.06  -0.04    -0.04   0.10   0.07
  24   1     0.09   0.13  -0.09     0.07   0.10  -0.07    -0.04  -0.06   0.05
                     37                     38                     39
                        a                      a                      a 
 Frequencies --  1146.3285              1166.3309              1187.0188
 Red. masses --     7.3248                 6.2242                 4.1554
 Frc consts  --     0.0000                 0.0000                 0.0000
 IR Inten    --    89.3827                71.1569                41.9225
 Raman Activ --     0.0000                 0.0000                 0.0000
 Depolar     --     0.0000                 0.0000                 0.0000
 Atom AN      X      Y      Z        X      Y      Z        X      Y      Z
   1   6    -0.05   0.10  -0.06     0.01   0.27   0.04    -0.01  -0.11   0.06
   2   6     0.13  -0.11  -0.05    -0.08  -0.31  -0.16     0.06   0.15   0.00
   3   1     0.17  -0.09  -0.00     0.11  -0.10  -0.03    -0.12  -0.13   0.01
   4   6    -0.08   0.09   0.04    -0.01  -0.01   0.01     0.20   0.07   0.13
   5   1    -0.13   0.07   0.01     0.16   0.16  -0.01     0.35  -0.19   0.04
   6   6    -0.01  -0.13   0.09     0.01   0.19  -0.14    -0.23  -0.02  -0.12
   7   1    -0.17   0.13  -0.01     0.08   0.10  -0.04    -0.09   0.14  -0.05
   8   6    -0.04  -0.01  -0.06    -0.02  -0.09   0.10     0.04  -0.12   0.08
   9   1    -0.20   0.10  -0.05     0.10  -0.03   0.04     0.11  -0.02   0.03
  10   6    -0.20   0.35   0.25     0.14  -0.10  -0.17     0.07   0.15   0.05
  11   1     0.03   0.22   0.05     0.06   0.06  -0.03     0.03   0.29   0.01
  12   8    -0.13   0.05   0.00    -0.03   0.16   0.12    -0.06  -0.07  -0.06
  13   8     0.19  -0.26  -0.16    -0.12   0.08   0.10    -0.03  -0.07  -0.02
  14   8     0.04  -0.06   0.00    -0.02   0.01  -0.03    -0.02  -0.01  -0.04
  15   8     0.11   0.07  -0.10    -0.04  -0.10   0.09     0.05   0.01  -0.01
  16   8     0.05  -0.03  -0.02     0.01  -0.01  -0.02    -0.08  -0.09  -0.08
  17   8     0.03  -0.03   0.01     0.08  -0.05   0.01    -0.01   0.05  -0.04
  18   1     0.07   0.07  -0.02     0.28   0.18   0.01    -0.08  -0.07   0.02
  19   1    -0.13  -0.09  -0.01    -0.27  -0.17  -0.05     0.03   0.01  -0.01
  20   1     0.05  -0.06  -0.03     0.16  -0.10  -0.11     0.17  -0.13  -0.13
  21   1     0.22   0.11   0.20    -0.05  -0.02  -0.05    -0.01  -0.01  -0.02
  22   1    -0.16  -0.18   0.18    -0.01  -0.02   0.01    -0.09  -0.11   0.12
  23   1     0.05  -0.11  -0.08    -0.01   0.06   0.03    -0.18   0.42   0.29
  24   1    -0.09  -0.11   0.09    -0.22  -0.28   0.21     0.04   0.05  -0.04
                     40                     41                     42
                        a                      a                      a 
 Frequencies --  1200.6556              1204.1201              1234.7817
 Red. masses --     4.3618                 4.0778                 3.8986
 Frc consts  --     0.0000                 0.0000                 0.0000
 IR Inten    --    94.8125                28.4253               109.9962
 Raman Activ --     0.0000                 0.0000                 0.0000
 Depolar     --     0.0000                 0.0000                 0.0000
 Atom AN      X      Y      Z        X      Y      Z        X      Y      Z
   1   6     0.02  -0.01  -0.00    -0.02   0.08   0.20    -0.01  -0.01  -0.00
   2   6     0.04   0.07   0.00     0.15   0.03  -0.19    -0.00  -0.01   0.01
   3   1    -0.02  -0.07   0.00    -0.21  -0.49  -0.03     0.00   0.00   0.00
   4   6    -0.04   0.02  -0.11     0.16   0.15  -0.04     0.05   0.03   0.00
   5   1    -0.33  -0.11  -0.02    -0.23  -0.28   0.00     0.00   0.01  -0.00
   6   6     0.19   0.01   0.15     0.09  -0.10   0.10     0.09  -0.14  -0.25
   7   1    -0.02  -0.10   0.06    -0.18  -0.20   0.05     0.31  -0.24  -0.03
   8   6    -0.12  -0.24   0.10    -0.01   0.03  -0.08    -0.13   0.04   0.26
   9   1     0.06  -0.12   0.04    -0.02   0.04  -0.02    -0.14   0.46   0.03
  10   6     0.17   0.20  -0.02    -0.11  -0.08  -0.01     0.02   0.05   0.06
  11   1     0.07   0.42  -0.01     0.02  -0.17   0.00     0.04   0.10   0.02
  12   8    -0.10  -0.05  -0.07    -0.01   0.09   0.12    -0.03  -0.00  -0.03
  13   8    -0.08  -0.07   0.00     0.06   0.03  -0.01    -0.00  -0.04  -0.01
  14   8     0.03   0.10   0.07     0.03   0.03   0.04    -0.03  -0.10  -0.11
  15   8    -0.08   0.03   0.01    -0.03   0.04  -0.05    -0.13  -0.00   0.11
  16   8     0.02   0.03   0.04    -0.04  -0.04  -0.03    -0.02  -0.02  -0.03
  17   8    -0.01   0.00  -0.01     0.05   0.04  -0.09     0.00   0.00   0.00
  18   1    -0.05  -0.05   0.00     0.01  -0.13   0.06     0.00   0.01  -0.00
  19   1     0.01   0.00   0.00    -0.20  -0.11  -0.10     0.01   0.00   0.00
  20   1     0.27  -0.20  -0.20    -0.15   0.11   0.11     0.05  -0.04  -0.04
  21   1    -0.23  -0.11  -0.20    -0.05  -0.03  -0.04     0.28   0.13   0.24
  22   1     0.13   0.16  -0.15     0.07   0.08  -0.08     0.22   0.27  -0.26
  23   1     0.07  -0.16  -0.11    -0.06   0.16   0.10    -0.04   0.10   0.07
  24   1     0.01   0.01  -0.02    -0.10  -0.12   0.09    -0.00   0.00  -0.00
                     43                     44                     45
                        a                      a                      a 
 Frequencies --  1244.0484              1264.4472              1276.1993
 Red. masses --     4.6654                 4.1719                 3.1783
 Frc consts  --     0.0000                 0.0000                 0.0000
 IR Inten    --    90.6799                31.6423                24.8030
 Raman Activ --     0.0000                 0.0000                 0.0000
 Depolar     --     0.0000                 0.0000                 0.0000
 Atom AN      X      Y      Z        X      Y      Z        X      Y      Z
   1   6     0.01   0.02   0.03     0.02   0.08   0.07     0.02  -0.11  -0.11
   2   6     0.05   0.03   0.00     0.15   0.02   0.02    -0.27   0.15  -0.11
   3   1    -0.11  -0.03   0.00    -0.20  -0.11   0.01     0.54  -0.39  -0.01
   4   6     0.01   0.00  -0.04    -0.14  -0.01  -0.24     0.02   0.07  -0.07
   5   1    -0.01  -0.05  -0.01     0.12  -0.26  -0.05     0.07  -0.33  -0.01
   6   6    -0.08  -0.06   0.04    -0.25   0.12   0.07    -0.04   0.02   0.02
   7   1     0.09  -0.21   0.04     0.46   0.02   0.02     0.04  -0.08   0.02
   8   6     0.00   0.36   0.07    -0.02  -0.01   0.07    -0.03   0.06   0.03
   9   1    -0.36  -0.45  -0.02     0.35   0.08   0.07     0.09  -0.05   0.03
  10   6     0.20   0.14  -0.20    -0.03  -0.01   0.05    -0.03  -0.02  -0.03
  11   1    -0.12  -0.22  -0.05    -0.00   0.06   0.01     0.30  -0.08   0.01
  12   8    -0.01  -0.04   0.03    -0.01   0.00  -0.01    -0.02   0.01   0.06
  13   8    -0.16  -0.02   0.12     0.02  -0.01  -0.03    -0.03   0.02   0.05
  14   8    -0.01  -0.10  -0.00    -0.03  -0.05  -0.11    -0.01  -0.03  -0.04
  15   8     0.06   0.03  -0.07     0.07  -0.01  -0.02     0.02   0.00  -0.02
  16   8    -0.01   0.02   0.02     0.03   0.10   0.16    -0.01   0.03   0.08
  17   8     0.00   0.01  -0.02     0.02   0.02  -0.06    -0.05  -0.03   0.08
  18   1    -0.04  -0.06   0.01    -0.15  -0.19   0.03     0.15   0.20  -0.04
  19   1    -0.04  -0.03  -0.02    -0.10  -0.05  -0.05     0.16   0.07   0.09
  20   1     0.27  -0.19  -0.17    -0.03   0.02   0.02     0.03  -0.02  -0.01
  21   1     0.19   0.09   0.17     0.09   0.05   0.07     0.06   0.03   0.05
  22   1    -0.05  -0.05   0.05    -0.10  -0.12   0.12    -0.03  -0.03   0.03
  23   1     0.01  -0.02  -0.01     0.11  -0.26  -0.17     0.03  -0.08  -0.04
  24   1    -0.02  -0.02   0.01    -0.05  -0.06   0.04     0.08   0.10  -0.08
                     46                     47                     48
                        a                      a                      a 
 Frequencies --  1298.1649              1302.6627              1308.0800
 Red. masses --     2.9377                 3.0435                 3.5418
 Frc consts  --     0.0000                 0.0000                 0.0000
 IR Inten    --    37.5612                66.9735                 7.3231
 Raman Activ --     0.0000                 0.0000                 0.0000
 Depolar     --     0.0000                 0.0000                 0.0000
 Atom AN      X      Y      Z        X      Y      Z        X      Y      Z
   1   6    -0.11   0.13   0.06     0.05  -0.02  -0.02    -0.11  -0.02   0.00
   2   6    -0.14  -0.01   0.08    -0.00   0.03  -0.05    -0.14  -0.17  -0.09
   3   1     0.28   0.03   0.02     0.02  -0.16  -0.01     0.10   0.31  -0.03
   4   6     0.01   0.07  -0.01    -0.06   0.08  -0.10     0.19   0.20   0.06
   5   1     0.03  -0.07   0.00     0.13  -0.24  -0.02    -0.22  -0.36   0.03
   6   6    -0.01  -0.07  -0.03    -0.03  -0.11  -0.07    -0.11   0.09   0.05
   7   1     0.05   0.17  -0.04     0.23   0.41  -0.09     0.01  -0.21   0.05
   8   6     0.09  -0.02  -0.02     0.19  -0.10  -0.07    -0.05  -0.04  -0.01
   9   1    -0.19  -0.01  -0.04    -0.46   0.07  -0.10     0.16   0.06   0.02
  10   6    -0.02  -0.00  -0.01     0.06  -0.01  -0.02     0.13  -0.00   0.02
  11   1     0.11  -0.03   0.00    -0.40   0.05  -0.01    -0.54   0.06  -0.01
  12   8     0.00  -0.01  -0.01     0.02   0.01   0.10     0.05   0.02   0.07
  13   8    -0.01   0.01   0.02     0.03  -0.01  -0.05     0.02  -0.03  -0.07
  14   8     0.00   0.02   0.05     0.02   0.06   0.12    -0.00  -0.02  -0.03
  15   8    -0.03  -0.01   0.05    -0.06  -0.02   0.12     0.03   0.00  -0.06
  16   8    -0.00  -0.01   0.01    -0.00   0.03   0.07    -0.01  -0.03  -0.01
  17   8     0.19  -0.03  -0.17    -0.06   0.01   0.05     0.06  -0.02   0.00
  18   1    -0.30  -0.38   0.04     0.06   0.09  -0.01     0.18   0.11  -0.01
  19   1     0.26   0.36  -0.14    -0.08  -0.11   0.04     0.14   0.15  -0.01
  20   1     0.01  -0.00   0.00    -0.04   0.03   0.02    -0.02   0.01   0.01
  21   1    -0.05  -0.03  -0.04    -0.14  -0.07  -0.11     0.03   0.01   0.02
  22   1     0.03   0.04  -0.03     0.07   0.08  -0.07    -0.06  -0.07   0.07
  23   1    -0.01  -0.00   0.01     0.03  -0.08  -0.05    -0.02   0.04   0.04
  24   1    -0.24  -0.33   0.23     0.07   0.10  -0.07    -0.06  -0.08   0.06
                     49                     50                     51
                        a                      a                      a 
 Frequencies --  1325.1275              1332.8988              1337.4904
 Red. masses --     4.0025                 3.8833                 3.7961
 Frc consts  --     0.0000                 0.0000                 0.0000
 IR Inten    --     1.9762                21.7815                30.6159
 Raman Activ --     0.0000                 0.0000                 0.0000
 Depolar     --     0.0000                 0.0000                 0.0000
 Atom AN      X      Y      Z        X      Y      Z        X      Y      Z
   1   6     0.07   0.01  -0.00    -0.15  -0.09   0.01     0.33   0.12  -0.04
   2   6    -0.04  -0.18  -0.04     0.02   0.24   0.02    -0.24  -0.02   0.05
   3   1    -0.04   0.29  -0.03    -0.04  -0.38   0.02     0.38  -0.10   0.02
   4   6     0.29   0.12   0.02     0.21  -0.23  -0.05     0.13  -0.07   0.02
   5   1    -0.43  -0.13   0.01    -0.36   0.45  -0.03    -0.13   0.19   0.00
   6   6    -0.24  -0.06   0.05    -0.22   0.01   0.06    -0.05   0.05   0.01
   7   1     0.31   0.25  -0.03     0.29   0.12  -0.01     0.01  -0.05   0.01
   8   6     0.10  -0.07  -0.02     0.02   0.01  -0.00    -0.06  -0.04  -0.02
   9   1    -0.05  -0.00  -0.02     0.05  -0.02   0.01     0.12   0.06   0.01
  10   6    -0.10   0.11  -0.01     0.04  -0.03   0.01     0.10   0.04   0.01
  11   1     0.42  -0.22   0.00    -0.18   0.07   0.00    -0.29  -0.05  -0.00
  12   8    -0.03   0.00  -0.08     0.01  -0.01   0.05     0.02   0.02   0.08
  13   8    -0.02   0.01   0.07     0.01  -0.00  -0.03     0.00  -0.02  -0.02
  14   8     0.00   0.02   0.02    -0.00  -0.01  -0.01     0.00  -0.01  -0.01
  15   8     0.00  -0.00   0.04     0.03   0.00   0.01     0.02   0.00  -0.02
  16   8    -0.02  -0.03  -0.05    -0.02  -0.01  -0.08    -0.02  -0.02  -0.05
  17   8    -0.04   0.01   0.03     0.03  -0.02  -0.00    -0.07   0.04  -0.01
  18   1     0.01   0.05  -0.01     0.16   0.10   0.00    -0.42  -0.29   0.00
  19   1    -0.11  -0.12   0.02     0.19   0.19   0.00    -0.24  -0.28   0.02
  20   1     0.05  -0.03  -0.02    -0.02   0.01   0.01     0.01  -0.01  -0.01
  21   1    -0.05  -0.03  -0.03     0.01   0.00   0.00     0.01   0.01   0.01
  22   1    -0.00  -0.01   0.02    -0.03  -0.04   0.04    -0.02  -0.02   0.02
  23   1    -0.04   0.10   0.06    -0.03   0.08   0.04    -0.03   0.08   0.04
  24   1     0.05   0.07  -0.06    -0.04  -0.06   0.05     0.07   0.11  -0.09
                     52                     53                     54
                        a                      a                      a 
 Frequencies --  1346.8086              1356.9803              1439.8693
 Red. masses --     5.2386                 5.3698                 1.7782
 Frc consts  --     0.0000                 0.0000                 0.0000
 IR Inten    --    20.5188                 5.8622                 1.9687
 Raman Activ --     0.0000                 0.0000                 0.0000
 Depolar     --     0.0000                 0.0000                 0.0000
 Atom AN      X      Y      Z        X      Y      Z        X      Y      Z
   1   6     0.07   0.03   0.00     0.01  -0.00  -0.00     0.14  -0.15   0.16
   2   6    -0.06  -0.07  -0.01    -0.00   0.02   0.01     0.00  -0.01   0.01
   3   1     0.04   0.08  -0.01     0.00  -0.01   0.00     0.01  -0.01   0.00
   4   6     0.07   0.04   0.01     0.01  -0.07   0.01    -0.00   0.00  -0.00
   5   1    -0.10  -0.03   0.01     0.04   0.06  -0.00    -0.00   0.00  -0.00
   6   6    -0.04  -0.05   0.01    -0.20   0.38  -0.05    -0.00   0.00   0.00
   7   1     0.06  -0.03   0.01     0.07  -0.52   0.09     0.00  -0.00   0.00
   8   6     0.08   0.29   0.10     0.30  -0.27   0.06    -0.00  -0.00   0.00
   9   1    -0.14  -0.30   0.02    -0.42   0.20  -0.07     0.00   0.00   0.00
  10   6    -0.11  -0.46  -0.03    -0.07   0.00  -0.00     0.00   0.00  -0.00
  11   1     0.11   0.64   0.01     0.12   0.05   0.00    -0.01  -0.00   0.00
  12   8     0.03   0.07  -0.00    -0.01  -0.01  -0.02    -0.00   0.00   0.00
  13   8     0.06   0.05  -0.07     0.02   0.02  -0.00    -0.00  -0.00  -0.00
  14   8    -0.02  -0.04  -0.02    -0.01   0.06   0.07    -0.00  -0.00  -0.00
  15   8     0.01  -0.00  -0.01     0.07  -0.02  -0.09     0.00  -0.00  -0.00
  16   8    -0.01  -0.01  -0.02     0.01   0.01   0.01     0.00   0.00   0.00
  17   8    -0.02   0.01   0.00    -0.01   0.00   0.00     0.00  -0.04   0.03
  18   1    -0.06  -0.03   0.00    -0.01  -0.01   0.00    -0.40   0.56  -0.06
  19   1    -0.07  -0.07  -0.00    -0.00  -0.01   0.00    -0.09   0.14  -0.65
  20   1    -0.16   0.12   0.09    -0.02   0.02   0.01     0.00  -0.00  -0.00
  21   1     0.06   0.03   0.06    -0.14  -0.07  -0.11     0.00   0.00   0.00
  22   1    -0.00  -0.01   0.01    -0.12  -0.14   0.12    -0.00  -0.00   0.00
  23   1    -0.01   0.03   0.02     0.01  -0.01  -0.01     0.01  -0.02  -0.02
  24   1     0.02   0.03  -0.02     0.01   0.01  -0.01    -0.00  -0.02   0.01
                     55                     56                     57
                        a                      a                      a 
 Frequencies --  2751.4215              2858.4512              2874.8987
 Red. masses --     1.6557                 1.7047                 1.6869
 Frc consts  --     0.0000                 0.0000                 0.0000
 IR Inten    --   151.8317                43.6159                44.0863
 Raman Activ --     0.0000                 0.0000                 0.0000
 Depolar     --     0.0000                 0.0000                 0.0000
 Atom AN      X      Y      Z        X      Y      Z        X      Y      Z
   1   6     0.00  -0.00  -0.00     0.00  -0.01  -0.02     0.00  -0.00  -0.00
   2   6    -0.00   0.00  -0.00     0.01   0.00   0.25     0.00  -0.00   0.01
   3   1     0.01  -0.00   0.00     0.01  -0.04  -0.95     0.00  -0.00  -0.05
   4   6     0.00  -0.00  -0.00    -0.00  -0.00  -0.01     0.00   0.00  -0.04
   5   1    -0.00   0.00   0.00    -0.00   0.00   0.08     0.00   0.01   0.17
   6   6    -0.00  -0.00  -0.00    -0.00  -0.00  -0.02     0.00   0.05   0.24
   7   1     0.00   0.00   0.02    -0.00   0.01   0.07     0.00  -0.15  -0.92
   8   6     0.00  -0.00   0.01     0.00  -0.00  -0.00     0.01   0.00  -0.03
   9   1    -0.00  -0.00   0.03     0.00   0.00   0.00    -0.03   0.01   0.17
  10   6    -0.01  -0.01   0.24     0.00   0.00  -0.00     0.00  -0.00   0.00
  11   1     0.02   0.00  -0.97    -0.01   0.00   0.00    -0.00   0.00  -0.01
  12   8     0.02   0.00   0.02    -0.01   0.01   0.01    -0.00   0.00   0.00
  13   8    -0.01   0.01   0.01    -0.00  -0.00  -0.00    -0.00  -0.00   0.00
  14   8    -0.00   0.00  -0.00    -0.00  -0.00  -0.00    -0.00  -0.00  -0.00
  15   8    -0.00   0.00  -0.00     0.00   0.00  -0.00    -0.00  -0.01   0.01
  16   8    -0.00  -0.00  -0.00     0.00  -0.00  -0.00     0.00  -0.00  -0.00
  17   8    -0.00   0.00  -0.00     0.00   0.00  -0.00     0.00   0.00  -0.00
  18   1    -0.00   0.00   0.00    -0.00   0.01   0.11    -0.00   0.00   0.01
  19   1    -0.00   0.00  -0.00    -0.01   0.01  -0.00    -0.00   0.00   0.00
  20   1     0.00   0.00  -0.01     0.00   0.00  -0.00     0.00   0.00  -0.00
  21   1    -0.00  -0.00   0.00    -0.00   0.00   0.00    -0.00   0.00   0.00
  22   1     0.00   0.00   0.00     0.00  -0.00   0.00    -0.00  -0.00  -0.00
  23   1     0.00   0.00   0.00    -0.00  -0.00   0.00     0.00  -0.00   0.00
  24   1    -0.00  -0.00   0.00     0.00   0.00   0.00    -0.00   0.00   0.00
                     58                     59                     60
                        a                      a                      a 
 Frequencies --  2893.6326              2897.8129              2901.7047
 Red. masses --     1.7335                 1.7532                 1.7408
 Frc consts  --     0.0000                 0.0000                 0.0000
 IR Inten    --     1.3795                94.6661               217.2088
 Raman Activ --     0.0000                 0.0000                 0.0000
 Depolar     --     0.0000                 0.0000                 0.0000
 Atom AN      X      Y      Z        X      Y      Z        X      Y      Z
   1   6     0.00  -0.00  -0.04    -0.01   0.02   0.11     0.01  -0.03  -0.22
   2   6     0.00  -0.00   0.02     0.00   0.00  -0.01    -0.00  -0.00  -0.05
   3   1    -0.00  -0.00  -0.04     0.00   0.00   0.02    -0.00   0.01   0.13
   4   6     0.00   0.00   0.18    -0.00  -0.00  -0.14    -0.00  -0.00  -0.10
   5   1    -0.00  -0.03  -0.69     0.00   0.02   0.54     0.00   0.01   0.37
   6   6     0.00  -0.00   0.00    -0.00  -0.01  -0.06    -0.00  -0.01  -0.03
   7   1     0.00  -0.00  -0.00    -0.00   0.03   0.21     0.00   0.02   0.10
   8   6     0.03  -0.01  -0.17     0.03  -0.01  -0.17     0.01  -0.00  -0.05
   9   1    -0.10   0.03   0.65    -0.10   0.03   0.64    -0.03   0.01   0.20
  10   6     0.00  -0.00  -0.01     0.00   0.00  -0.01     0.00   0.00  -0.00
  11   1    -0.00   0.00   0.01    -0.00   0.00   0.02     0.00  -0.00   0.01
  12   8     0.00   0.00   0.00    -0.00  -0.00   0.00     0.00  -0.00  -0.00
  13   8    -0.00  -0.00   0.00    -0.00  -0.00   0.00    -0.00  -0.00   0.00
  14   8    -0.01  -0.00  -0.01    -0.01  -0.00  -0.01    -0.00  -0.00  -0.00
  15   8    -0.00   0.00   0.00     0.00   0.00  -0.00     0.00   0.00  -0.00
  16   8    -0.01   0.01   0.01     0.00  -0.00  -0.00     0.00  -0.00  -0.00
  17   8     0.00   0.00  -0.00    -0.00  -0.00   0.00     0.00   0.01  -0.01
  18   1    -0.01   0.01   0.14     0.02  -0.04  -0.41    -0.03   0.08   0.85
  19   1    -0.00  -0.00  -0.00     0.01  -0.00   0.01    -0.01   0.01  -0.03
  20   1     0.00   0.00  -0.00     0.00   0.00  -0.00     0.00   0.00  -0.00
  21   1    -0.00  -0.00   0.00    -0.00  -0.00   0.00     0.00  -0.00   0.00
  22   1     0.00  -0.00  -0.00     0.00  -0.00  -0.00     0.00  -0.00  -0.00
  23   1     0.00   0.00  -0.00    -0.01  -0.00   0.00    -0.00  -0.00  -0.00
  24   1     0.00   0.00   0.00    -0.00  -0.00  -0.00     0.00   0.00   0.00
                     61                     62                     63
                        a                      a                      a 
 Frequencies --  2997.6636              3452.6080              3458.1025
 Red. masses --     1.7223                 1.8717                 1.8741
 Frc consts  --     0.0000                 0.0000                 0.0000
 IR Inten    --    26.0205               128.8913               113.5043
 Raman Activ --     0.0000                 0.0000                 0.0000
 Depolar     --     0.0000                 0.0000                 0.0000
 Atom AN      X      Y      Z        X      Y      Z        X      Y      Z
   1   6     0.17  -0.18  -0.07    -0.00   0.00   0.00     0.00   0.00   0.00
   2   6     0.01  -0.00  -0.00    -0.00  -0.00  -0.00    -0.00   0.00  -0.00
   3   1    -0.00   0.00   0.01     0.00   0.00   0.00     0.00  -0.00   0.00
   4   6     0.00  -0.00   0.00    -0.00  -0.00   0.00    -0.00  -0.00   0.00
   5   1     0.00  -0.00  -0.00     0.00  -0.00  -0.00    -0.00   0.00   0.00
   6   6     0.00  -0.00  -0.00    -0.00   0.00  -0.00    -0.00   0.01  -0.00
   7   1    -0.00  -0.00   0.00     0.00  -0.00   0.00     0.00  -0.00   0.00
   8   6     0.00   0.00  -0.00     0.00  -0.00   0.00    -0.00   0.00   0.00
   9   1    -0.00  -0.00   0.00     0.00   0.00  -0.00     0.00  -0.00  -0.00
  10   6    -0.00  -0.00  -0.00     0.00  -0.01  -0.00    -0.00   0.00  -0.00
  11   1     0.00  -0.00   0.00    -0.00   0.00   0.00     0.00   0.00  -0.00
  12   8    -0.00   0.00   0.00     0.00   0.00   0.00     0.00  -0.00  -0.00
  13   8     0.00   0.00   0.00    -0.10  -0.21   0.05     0.01   0.01  -0.00
  14   8    -0.00   0.00   0.00     0.01  -0.01  -0.00     0.00  -0.00  -0.00
  15   8    -0.00   0.00   0.00    -0.01   0.01   0.00    -0.14   0.19   0.06
  16   8    -0.00  -0.00  -0.00    -0.00   0.00  -0.00    -0.01   0.00  -0.00
  17   8    -0.00  -0.01   0.00    -0.01   0.01   0.00    -0.00   0.00   0.00
  18   1     0.02  -0.02  -0.03     0.00  -0.00   0.00     0.00   0.00  -0.00
  19   1    -0.63   0.68   0.26     0.00  -0.00  -0.00     0.00  -0.00  -0.00
  20   1    -0.00  -0.00  -0.00     0.39   0.86  -0.20    -0.02  -0.04   0.01
  21   1     0.00  -0.00  -0.00    -0.03   0.04   0.02    -0.01   0.02   0.01
  22   1     0.00  -0.00  -0.00     0.03  -0.04  -0.01     0.55  -0.77  -0.22
  23   1     0.00   0.00   0.00     0.00  -0.00   0.00     0.03  -0.00   0.01
  24   1     0.01  -0.01  -0.00     0.02  -0.02  -0.01     0.00  -0.00  -0.00
                     64                     65                     66
                        a                      a                      a 
 Frequencies --  3466.2148              3494.7342              3497.7409
 Red. masses --     1.8757                 1.8723                 1.8799
 Frc consts  --     0.0000                 0.0000                 0.0000
 IR Inten    --   111.5642               102.0754                89.8773
 Raman Activ --     0.0000                 0.0000                 0.0000
 Depolar     --     0.0000                 0.0000                 0.0000
 Atom AN      X      Y      Z        X      Y      Z        X      Y      Z
   1   6    -0.00   0.00  -0.00    -0.00   0.01  -0.00    -0.00   0.00   0.00
   2   6    -0.00   0.00   0.00    -0.00  -0.00   0.00     0.00  -0.00   0.00
   3   1    -0.00  -0.00  -0.00    -0.00   0.00   0.00     0.00   0.00  -0.00
   4   6    -0.00   0.00  -0.00    -0.00   0.00  -0.00     0.00  -0.00   0.00
   5   1    -0.00  -0.00  -0.00     0.00   0.00   0.00    -0.00  -0.00  -0.00
   6   6    -0.00   0.00   0.00     0.00  -0.00  -0.00     0.00   0.00   0.00
   7   1     0.00  -0.00  -0.01     0.00   0.00   0.00    -0.00  -0.00  -0.01
   8   6    -0.00   0.00  -0.00    -0.00   0.00  -0.00     0.00   0.00  -0.00
   9   1     0.00  -0.00  -0.00    -0.00  -0.00   0.00     0.00  -0.00  -0.00
  10   6    -0.00  -0.00   0.00    -0.00   0.00  -0.00     0.00  -0.00   0.00
  11   1    -0.00   0.00  -0.00    -0.00  -0.00   0.00    -0.00  -0.00  -0.00
  12   8     0.00   0.00   0.00     0.00   0.00   0.00    -0.00   0.00  -0.00
  13   8    -0.01  -0.01   0.00     0.00   0.01  -0.00    -0.00   0.00  -0.00
  14   8    -0.15   0.17   0.06     0.00  -0.00  -0.00     0.00  -0.00  -0.00
  15   8    -0.00   0.00   0.00     0.00  -0.00  -0.00    -0.00   0.01   0.00
  16   8     0.00  -0.00   0.00    -0.02   0.00  -0.01     0.20  -0.01   0.13
  17   8    -0.00   0.00   0.00    -0.15   0.17   0.05    -0.02   0.02   0.01
  18   1    -0.00  -0.00  -0.00     0.00  -0.00   0.00    -0.00   0.00  -0.00
  19   1     0.00  -0.00  -0.00     0.01  -0.01  -0.00    -0.00  -0.00  -0.00
  20   1     0.02   0.05  -0.01    -0.01  -0.03   0.01    -0.00  -0.00   0.00
  21   1     0.63  -0.69  -0.25    -0.00   0.00   0.00    -0.00   0.00   0.00
  22   1     0.01  -0.02  -0.01    -0.01   0.01   0.00     0.02  -0.02  -0.01
  23   1    -0.00   0.00  -0.00     0.09  -0.01   0.05    -0.82   0.06  -0.50
  24   1     0.01  -0.01  -0.00     0.61  -0.72  -0.21     0.07  -0.08  -0.02
