15
 energy: -196.459991297291 gnorm: 0.001965410518 xtb: 6.7.1 (edcfbbe)
C           -2.19774783776898        0.31377327856124        0.30694252581212
C           -1.00451989936169        0.16001292721753       -0.64510809491638
C            0.00380414915724       -0.81081804792552       -0.11025861640253
C            1.27127457685930       -0.56616153501443        0.24201977310692
C            2.00711952449180        0.73310123363225        0.16621597647438
H           -2.68409488422399       -0.65139927637821        0.48435018253339
H           -2.94508275834053        0.99715048639896       -0.10858339778927
H           -1.87367212476408        0.70959266539964        1.27503135133729
H           -1.37446161827761       -0.20619869173057       -1.61242491542772
H           -0.55220591389162        1.13863672559316       -0.83048538546612
H           -0.36637177393319       -1.82887465736317        0.02049179810306
H            1.85357801047411       -1.40270269085270        0.62916396111039
H            2.88454308987234        0.64047879832015       -0.48825927604306
H            2.39123235731825        1.01622428841577        1.15544639049482
H            1.39007763938991        1.55472227831814       -0.20703577819559
15
 energy: -196.459997303762 gnorm: 0.000577953339 xtb: 6.7.1 (edcfbbe)
C           -2.19818571110339        0.31456464058267        0.30653308718507
C           -1.00414867832350        0.16021873189745       -0.64395305275527
C            0.00454692449863       -0.81117942462142       -0.11094565761144
C            1.27275600833907       -0.56763325616788        0.23925736322852
C            2.00726544578589        0.73300673319095        0.16600603646037
H           -2.68274882284402       -0.65136790725923        0.48550545520136
H           -2.94693320816270        0.99579342327933       -0.11040234582899
H           -1.87508067725612        0.71268870030851        1.27404463114284
H           -1.37329151076311       -0.20666795347691       -1.61134435066025
H           -0.55161953608526        1.13859884129117       -0.82997737485949
H           -0.36785969314955       -1.82807068706837        0.02297551833350
H            1.85474692088811       -1.40382789298983        0.62762639069635
H            2.88347933082353        0.64371306565766       -0.48773755060598
H            2.39045446276192        1.01394399218244        1.15439656794912
H            1.39009130467817        1.55375683156903       -0.20447786251875
15
 energy: -196.459998906024 gnorm: 0.000471918925 xtb: 6.7.1 (edcfbbe)
C           -2.19822912166625        0.31471119985083        0.30634066647717
C           -1.00388659948000        0.16061682892327       -0.64353403118994
C            0.00406890980407       -0.81073225366913       -0.10888799244395
C            1.27278344591641       -0.56787178348655        0.23986002524605
C            2.00737833888056        0.73286345164259        0.16587126999799
H           -2.68162383209165       -0.65153066244531        0.48701109521682
H           -2.94766211761295        0.99397179927329       -0.11254015369486
H           -1.87654419646043        0.71536712186559        1.27331885276088
H           -1.37208740514789       -0.20664486800379       -1.61121639873157
H           -0.55112011861246        1.13889185165758       -0.82957704418388
H           -0.36836436054554       -1.82790225989192        0.02304466188560
H            1.85581999942849       -1.40476598067503        0.62509911019954
H            2.88290082991399        0.64479111677429       -0.48884891281572
H            2.39102147270434        1.01229806216075        1.15442154774995
H            1.38901735116233        1.55347425351395       -0.20285552685973
15
 energy: -196.459998906024 gnorm: 0.000471918925 xtb: 6.7.1 (edcfbbe)
C           -2.19822912166625        0.31471119985083        0.30634066647717
C           -1.00388659948000        0.16061682892327       -0.64353403118994
C            0.00406890980407       -0.81073225366913       -0.10888799244395
C            1.27278344591641       -0.56787178348655        0.23986002524605
C            2.00737833888056        0.73286345164259        0.16587126999799
H           -2.68162383209165       -0.65153066244531        0.48701109521682
H           -2.94766211761295        0.99397179927329       -0.11254015369486
H           -1.87654419646043        0.71536712186559        1.27331885276088
H           -1.37208740514789       -0.20664486800379       -1.61121639873157
H           -0.55112011861246        1.13889185165758       -0.82957704418388
H           -0.36836436054554       -1.82790225989192        0.02304466188560
H            1.85581999942849       -1.40476598067503        0.62509911019954
H            2.88290082991399        0.64479111677429       -0.48884891281572
H            2.39102147270434        1.01229806216075        1.15442154774995
H            1.38901735116233        1.55347425351395       -0.20285552685973
