27
 energy: -465.800504346524 gnorm: 0.036534474312 xtb: 6.7.1 (edcfbbe)
C            3.30194816136318       -0.31821568524101        0.89394396739613
C            1.93893350415919       -0.17503434257756        0.31348521413891
C            1.42780699023270        1.01977195415189       -0.02355880301044
C            0.09217036744084        1.21339529393769       -0.54709998114243
O           -0.35878156055899        2.34079583683727       -0.74875067263179
C           -0.76438262603872       -0.00968840830429       -0.81923249716302
H           -1.22596739944326        0.17087237317572       -1.79860143929701
C            0.06514652432887       -1.29194516417249       -0.91898233360723
C            1.15065374800989       -1.43016799853375        0.14507863506429
C           -1.94755227326301       -0.00904541540401        0.18280131498100
C           -3.04395898314886       -0.98064234723455       -0.24877947901024
C           -1.53712950508114       -0.28831503622776        1.62669967932083
H            3.94259377174707       -0.85062297567693        0.19217904038516
H            3.25876345294404       -0.90835654650252        1.80723801630084
H            3.74617958366003        0.64899883338759        1.10939996829160
H            1.99967956018611        1.92768409585421        0.11593806285138
H           -0.59531110416380       -2.15794210615624       -0.88855534759374
H            0.55320201984514       -1.28708489877034       -1.89691199814057
H            0.71717873621780       -1.68574237624700        1.11397065189363
H            1.82035680310665       -2.24833202139629       -0.12681933155620
H           -2.35807460814492        1.00824822594678        0.13939305436177
H           -3.36465026609097       -0.77548114674364       -1.26719743816153
H           -3.90388083342991       -0.87764546738891        0.40842558378098
H           -2.69790623159551       -2.00946402699045       -0.19336589248569
H           -2.36386530704749       -0.04651476272061        2.29142437611539
H           -0.68358812870292        0.32203881114270        1.91284631464763
H           -1.29620443407438       -1.33851825699313        1.76428058688180
27
 energy: -465.801713591961 gnorm: 0.011796164952 xtb: 6.7.1 (edcfbbe)
C            3.30558996670846       -0.31437233756696        0.89800696065288
C            1.94460372887814       -0.17368575672647        0.31045353627701
C            1.43728050190066        1.02962903115528       -0.03101850279711
C            0.10087273429464        1.21215102704438       -0.56271410290219
O           -0.35185295940613        2.34905428282680       -0.75911491126167
C           -0.77049500909906       -0.00445618702784       -0.82294697043832
H           -1.22966803192277        0.17851881152166       -1.80330271360184
C            0.05536977508788       -1.29310215459281       -0.92223829753535
C            1.15060091414829       -1.42732828650470        0.13571330464974
C           -1.95284081199004       -0.01022417103753        0.18493227563248
C           -3.04910614839669       -0.98069950009908       -0.25224977085352
C           -1.54067945114189       -0.28345658091760        1.63276490783292
H            3.94842758210102       -0.85963164062299        0.19833548642734
H            3.26074028564406       -0.91218586209099        1.81383614268629
H            3.75985988297804        0.65331037443686        1.11648859086693
H            2.01337315533269        1.93841632033093        0.12387301158008
H           -0.60171099180429       -2.16632295182780       -0.89422546377298
H            0.54493303257378       -1.29680620653259       -1.90220784661515
H            0.73135523207578       -1.69012965226506        1.11386739478845
H            1.82786927768066       -2.24648533487366       -0.12754054366747
H           -2.37027964516228        1.00401849556892        0.14014877268488
H           -3.37484776969615       -0.77829459196031       -1.27632963892996
H           -3.91573005757164       -0.88533012783432        0.40767086371887
H           -2.70428698078381       -2.01690963130030       -0.19854402365397
H           -2.37167204510383       -0.05047723450915        2.30402418758780
H           -0.68409264370510        0.32518984609578        1.93637227508740
H           -1.29025326145516       -1.33734320143550        1.77519552225691
27
 energy: -465.801863684494 gnorm: 0.003829385096 xtb: 6.7.1 (edcfbbe)
C            3.30573518175830       -0.31361823268645        0.90176920701511
C            1.94860259413725       -0.17216344280163        0.30578726753236
C            1.44347161122001        1.03503330861529       -0.04011078541412
C            0.10101545261438        1.21190316028691       -0.55729904844375
O           -0.34660418149475        2.35252579981319       -0.77032317729740
C           -0.77255411274217       -0.00188371216340       -0.82142131537602
H           -1.23012661654856        0.18429171285377       -1.80212009094096
C            0.05324129673139       -1.29264942697912       -0.92378643109965
C            1.15428869183394       -1.42604903573407        0.12865161835758
C           -1.95715350696908       -0.00704092696581        0.18702373974082
C           -3.05006280570996       -0.98101778054027       -0.25215960014914
C           -1.54708466830106       -0.28206024293341        1.63590116744174
H            3.95185080600044       -0.86713925032060        0.20727359265415
H            3.25880675367031       -0.91353440666731        1.81938330137613
H            3.76554768928013        0.65301249395747        1.12128826376171
H            2.02512938826582        1.94210280798013        0.11392608738999
H           -0.60272263639559       -2.16842139489219       -0.89351314116043
H            0.53792748155304       -1.30130002288565       -1.90760060476911
H            0.74698521476301       -1.69460026110229        1.11304646430842
H            1.83448761005006       -2.24476452543339       -0.13519723013212
H           -2.37916002745994        1.00543246716319        0.14201269795288
H           -3.37765421714032       -0.77845599445313       -1.27809627681069
H           -3.92110301046226       -0.89135930124589        0.40696058712889
H           -2.70766573803196       -2.02109800305456       -0.20184024907913
H           -2.38186166247359       -0.05718322106821        2.30894406446235
H           -0.69289273379043        0.32932640465068        1.94935993256792
H           -1.28708318810022       -1.33624193896119        1.78139151533898
27
 energy: -465.801902393751 gnorm: 0.002083893278 xtb: 6.7.1 (edcfbbe)
C            3.30508178323443       -0.31387104633411        0.90272567695162
C            1.94922111012014       -0.17139460615703        0.30496963289057
C            1.44446056439321        1.03623999434418       -0.04170005667812
C            0.10526201235729        1.21187468383347       -0.56544216080186
O           -0.34525904838908        2.35275806826434       -0.77328975450769
C           -0.77184119615875       -0.00098635938364       -0.81983239806990
H           -1.23098175172666        0.18549114500280       -1.79960137160983
C            0.05276014086964       -1.29257925366518       -0.92283785747796
C            1.15649827655188       -1.42572013502806        0.12601076996280
C           -1.95742018982803       -0.00702984217990        0.18839370541676
C           -3.05004125886379       -0.98099441212668       -0.25161879510196
C           -1.54914214665250       -0.28184858400070        1.63731431086835
H            3.95281100397938       -0.87004354333079        0.21176030388990
H            3.25547789715711       -0.91245295520291        1.82108907930572
H            3.76609192136402        0.65183368546898        1.12232676687993
H            2.02661144938509        1.94234479096675        0.11394130822359
H           -0.60382973217044       -2.16769197477269       -0.88934657442343
H            0.53301224518545       -1.30244762168223       -1.90889760194895
H            0.75372516115734       -1.69830970932883        1.11138792226979
H            1.83755310445598       -2.24246451339123       -0.14232289783006
H           -2.38006904261462        1.00518705296674        0.14301104575163
H           -3.37763736655438       -0.77757899116431       -1.27730589087528
H           -3.92174161976169       -0.89287580679785        0.40674797225936
H           -2.70791413902239       -2.02113475064665       -0.20280326814089
H           -2.38634849300471       -0.06148653205498        2.30888327094312
H           -0.69851483822246        0.33315050369845        1.95318627800726
H           -1.28446513902235       -1.33492199647899        1.78250296963710
27
 energy: -465.801921389398 gnorm: 0.001212433791 xtb: 6.7.1 (edcfbbe)
C            3.30417023523871       -0.31379782577199        0.90389167567674
C            1.94976320974166       -0.17130048186347        0.30357722282332
C            1.44492917530460        1.03583393633330       -0.04359645053125
C            0.10590110711105        1.21171668222420       -0.56602084038459
O           -0.34449331555248        2.35216636052863       -0.77566024164466
C           -0.77149159414066       -0.00093557698448       -0.81843809785867
H           -1.23137782049156        0.18563864148137       -1.79777880703399
C            0.05186757431807       -1.29310724684415       -0.92159059949270
C            1.15832685371387       -1.42585661371669        0.12365665553328
C           -1.95712320569647       -0.00718013535868        0.18988265922512
C           -3.04956890772696       -0.98039164015624       -0.25201307391185
C           -1.54975670717902       -0.28165877224672        1.63858754242640
H            3.95308273918879       -0.87190090109786        0.21625605026436
H            3.25109401020945       -0.91004860039211        1.82319262831276
H            3.76553300073634        0.65140113277890        1.12302450140452
H            2.02759440467681        1.94128668022197        0.11118071339967
H           -0.60546419780399       -2.16721773108844       -0.88494903934971
H            0.52867376752701       -1.30376692893864       -1.90909668847584
H            0.75889200883554       -1.70208940160320        1.10905426971682
H            1.84016550718047       -2.24016542006016       -0.14964518745523
H           -2.37927955312267        1.00521427032752        0.14420045041173
H           -3.37693758662594       -0.77594938381622       -1.27720808109065
H           -3.92091842106694       -0.89278289766366        0.40619679285172
H           -2.70695226489311       -2.01992295337658       -0.20400184448502
H           -2.38940723669777       -0.06632494204463        2.30828330039762
H           -0.70326790001422        0.33753797247020        1.95608166529757
H           -1.28059410385907       -1.33335079969502        1.78218528169037
27
 energy: -465.801942130706 gnorm: 0.001420739461 xtb: 6.7.1 (edcfbbe)
C            3.30117456993051       -0.31314951109725        0.90873034845212
C            1.95100041308900       -0.17127536038245        0.29963031328760
C            1.44639732908533        1.03497022204092       -0.04942007482127
C            0.10708215058225        1.21122580914375       -0.56819871860168
O           -0.34242008955459        2.35090096710307       -0.78242819151825
C           -0.77138001618749       -0.00082208794688       -0.81610838917294
H           -1.23333673723109        0.18514518431404       -1.79451371408775
C            0.04898292652074       -1.29481743795067       -0.91967078664649
C            1.16363798777506       -1.42716888379592        0.11581750983969
C           -1.95683018728854       -0.00477567987838        0.19288820344800
C           -3.04864567990412       -0.97753952660676       -0.25147631856803
C           -1.55054344599812       -0.28143358665816        1.64054308227679
H            3.95359187691751       -0.87888739821066        0.23157041720837
H            3.23737206891824       -0.90147840074567        1.83218126305552
H            3.76378730755641        0.65163139265236        1.12496840159311
H            2.03000415401182        1.93930847617698        0.10527293222832
H           -0.61027476244393       -2.16656986370058       -0.87253614035758
H            0.51624960137056       -1.31097128806492       -1.91134161643296
H            0.77528945240216       -1.71528454695899        1.10195413270250
H            1.84891510657448       -2.23403765961546       -0.17122662381620
H           -2.37805228846253        1.00809277600840        0.14761984887774
H           -3.37540301021791       -0.76982427687333       -1.27565014088996
H           -3.91952803754523       -0.89218675972129        0.40665421078570
H           -2.70504125228165       -2.01627290914304       -0.20667409718014
H           -2.39700784338984       -0.08389223499027        2.30692356243663
H           -0.71681123695137        0.35111754699680        1.96417346841716
H           -1.26484941998422       -1.32895709376948        1.77956865319257
27
 energy: -465.801948954770 gnorm: 0.000625594816 xtb: 6.7.1 (edcfbbe)
C            3.30061153261367       -0.31266478553107        0.91022619913359
C            1.95055472563999       -0.17151261091793        0.30009911008663
C            1.44610904109006        1.03484854261186       -0.04881188908456
C            0.10664391346075        1.21091652669162       -0.56890032068075
O           -0.34260085981926        2.35100668323165       -0.78239212359615
C           -0.77188658334860       -0.00103584791082       -0.81762961619405
H           -1.23359399708555        0.18434967042840       -1.79627378975215
C            0.04827833081851       -1.29533769534102       -0.92037192265359
C            1.16358584608129       -1.42774068413181        0.11525527791623
C           -1.95644420879888       -0.00467276981293        0.19204732696034
C           -3.04977998787282       -0.97641297236904       -0.25100617037798
C           -1.54817666504978       -0.28155887941981        1.63942449999514
H            3.95308741270840       -0.88014194572014        0.23445634649793
H            3.23635125327395       -0.89880532971398        1.83516615590525
H            3.76320533589424        0.65291033261842        1.12446122694489
H            2.02875299049506        1.94007800715205        0.10717869032544
H           -0.61110225023016       -2.16710766635491       -0.87251408182010
H            0.51525654648932       -1.31297898966823       -1.91212254074345
H            0.77601070448548       -1.71727997560223        1.10116386485780
H            1.84915882700716       -2.23400812884257       -0.17235917763048
H           -2.37698560567589        1.00851668156503        0.14774841534378
H           -3.37721078073695       -0.76865016109799       -1.27529011304439
H           -3.92028660103684       -0.89062506109962        0.40808585922055
H           -2.70667840752731       -2.01568117506305       -0.20642936379898
H           -2.39440892725128       -0.08724578678890        2.30714234886471
H           -0.71565317973278        0.35241899843004        1.96374188700519
H           -1.25943746968700       -1.32853714164640        1.77715365416177
27
 energy: -465.801953069197 gnorm: 0.000812004186 xtb: 6.7.1 (edcfbbe)
C            3.29818591118769       -0.31130219827141        0.91506670568514
C            1.94932083240847       -0.17206026584289        0.30056697264875
C            1.44470518738702        1.03416234575387       -0.04798985827203
C            0.10581604941223        1.21020192351692       -0.57179113316516
O           -0.34307248050165        2.35050120933919       -0.78380455569156
C           -0.77276801641343       -0.00196100468719       -0.82057074727200
H           -1.23463545751305        0.18218341874830       -1.79938253427152
C            0.04681072765513       -1.29698377634259       -0.92201925636968
C            1.16458954324058       -1.42941283215839        0.11217098677408
C           -1.95537402053646       -0.00351402903106        0.19087482715317
C           -3.05185998510633       -0.97312599347525       -0.24915984568540
C           -1.54230589755478       -0.28262429981190        1.63670442417752
H            3.95161466488518       -0.88481314941864        0.24518322912523
H            3.23103780535136       -0.88979962832123        1.84486610703504
H            3.76105975960335        0.65582613199129        1.12309144116586
H            2.02473747308906        1.94089740962111        0.11100296634670
H           -0.61343098588869       -2.16818279017462       -0.87070555171934
H            0.51180849485577       -1.31821319868779       -1.91458740317433
H            0.77969581610710       -1.72391640669931        1.09757420510550
H            1.85162489129071       -2.23307517234152       -0.17934098658502
H           -2.37405790253222        1.01055083006349        0.14900234505782
H           -3.38129283087450       -0.76465154544015       -1.27293393566027
H           -3.92068088864260       -0.88525051545785        0.41224271158855
H           -2.71115942821427       -2.01360049848520       -0.20551572492635
H           -2.38861623323770       -0.09807663640358        2.30710125273692
H           -0.71420364805890        0.35694815241533        1.96164510887011
H           -1.24418848198373       -1.32765970020899        1.76995275492317
27
 energy: -465.801953069197 gnorm: 0.000812004186 xtb: 6.7.1 (edcfbbe)
C            3.29818591118769       -0.31130219827141        0.91506670568514
C            1.94932083240847       -0.17206026584289        0.30056697264875
C            1.44470518738702        1.03416234575387       -0.04798985827203
C            0.10581604941223        1.21020192351692       -0.57179113316516
O           -0.34307248050165        2.35050120933919       -0.78380455569156
C           -0.77276801641343       -0.00196100468719       -0.82057074727200
H           -1.23463545751305        0.18218341874830       -1.79938253427152
C            0.04681072765513       -1.29698377634259       -0.92201925636968
C            1.16458954324058       -1.42941283215839        0.11217098677408
C           -1.95537402053646       -0.00351402903106        0.19087482715317
C           -3.05185998510633       -0.97312599347525       -0.24915984568540
C           -1.54230589755478       -0.28262429981190        1.63670442417752
H            3.95161466488518       -0.88481314941864        0.24518322912523
H            3.23103780535136       -0.88979962832123        1.84486610703504
H            3.76105975960335        0.65582613199129        1.12309144116586
H            2.02473747308906        1.94089740962111        0.11100296634670
H           -0.61343098588869       -2.16818279017462       -0.87070555171934
H            0.51180849485577       -1.31821319868779       -1.91458740317433
H            0.77969581610710       -1.72391640669931        1.09757420510550
H            1.85162489129071       -2.23307517234152       -0.17934098658502
H           -2.37405790253222        1.01055083006349        0.14900234505782
H           -3.38129283087450       -0.76465154544015       -1.27293393566027
H           -3.92068088864260       -0.88525051545785        0.41224271158855
H           -2.71115942821427       -2.01360049848520       -0.20551572492635
H           -2.38861623323770       -0.09807663640358        2.30710125273692
H           -0.71420364805890        0.35694815241533        1.96164510887011
H           -1.24418848198373       -1.32765970020899        1.76995275492317
