23
 energy: -388.414183610762 gnorm: 0.033790454724 xtb: 6.7.1 (edcfbbe)
C           -2.32987513433243       -1.04915443096491        0.53521009403717
C           -1.47245238275248       -0.00858366920380       -0.12968904505747
O           -1.69543200605129        0.36307957196089       -1.26566178076085
C           -0.35636332885791        0.57648361695546        0.71579022631719
C            0.53932187083899        1.51958500397337       -0.09378441894156
C            1.40369725242202        0.75004559163237       -1.09009437538305
C            2.23807563519175       -0.31169976483812       -0.38069708346870
C            1.33047260678957       -1.26550892806078        0.38953558987261
C            0.49875500492101       -0.49228847061815        1.40880005012428
H           -3.27003567464904       -1.14230626960619       -0.00228221400101
H           -1.81585962450466       -2.00738948928953        0.49218721891810
H           -2.51130235171282       -0.80074631555483        1.57586862339831
H           -0.87104315508598        1.16140462891465        1.48913130765987
H           -0.08489705443762        2.23537390289055       -0.63254116208030
H            1.18217879892385        2.07341796881879        0.59306591596280
H            0.75648686883522        0.27437647712158       -1.83013608991098
H            2.05595804081105        1.44725214704132       -1.61960442181769
H            2.83006938615408       -0.86592859528372       -1.11139099139249
H            2.92815484119754        0.17275560327655        0.31392361123911
H            0.67073919829722       -1.77772501198776       -0.31525753523970
H            1.93034626735539       -2.02062091229539        0.90083474439918
H           -0.12611579395589       -1.17384622082016        1.98413708067922
H            1.17297240111978        0.01053793940467        2.10498569433277
23
 energy: -388.415400129009 gnorm: 0.009601318984 xtb: 6.7.1 (edcfbbe)
C           -2.34014467256407       -1.05500731939961        0.54004326124541
C           -1.48851470715240       -0.00268143339116       -0.11483646656391
O           -1.72312840824172        0.36743585704341       -1.25817640918349
C           -0.35490145710992        0.58688953229176        0.70825469321673
C            0.53941738799660        1.52836927361435       -0.10645700589116
C            1.42066554964734        0.76051384599386       -1.09573275560054
C            2.24385385888327       -0.31657083361463       -0.38953380230656
C            1.33669398739386       -1.26751576850748        0.39221136830162
C            0.48909675071036       -0.49603090148735        1.40462249886046
H           -3.28505022935348       -1.15485129152859        0.00382704729839
H           -1.81303316379688       -2.01373921111925        0.49704541542410
H           -2.51623993971576       -0.81783074186683        1.59063166714869
H           -0.87546729328053        1.16212029401176        1.48914024069094
H           -0.07836713519008        2.26127659418201       -0.63414053846647
H            1.17949438720802        2.07829153385836        0.59211164956220
H            0.78355785854129        0.28195718573216       -1.84714966489798
H            2.07610876397494        1.45910039005818       -1.62595041278181
H            2.84495983424294       -0.87250219833313       -1.11672282287155
H            2.93889514253909        0.16484819358836        0.30989649482150
H            0.67746214831813       -1.79148988527364       -0.31238473859690
H            1.93054474383622       -2.02917760028589        0.90778114857532
H           -0.13955192404321       -1.17447391215959        1.98730013117743
H            1.15750049459215        0.00958259900541        2.11055090318558
23
 energy: -388.415567060648 gnorm: 0.002604568202 xtb: 6.7.1 (edcfbbe)
C           -2.34609322206274       -1.05630459448341        0.54438714273023
C           -1.49541047027852       -0.00576402661311       -0.11322414112731
O           -1.74743963505826        0.37375537086982       -1.25424414040966
C           -0.35813080406335        0.58861634937602        0.70134593743454
C            0.53922479002340        1.52786208513620       -0.11172516688432
C            1.42787358059705        0.76276818168890       -1.09914012934707
C            2.24859693445336       -0.31590980517242       -0.38904003234674
C            1.33843935150035       -1.26747350943268        0.39097904006682
C            0.48823978386355       -0.49408504197479        1.40106168081995
H           -3.29521692805401       -1.15618592073462        0.01376189975350
H           -1.81587356517155       -2.01610759545365        0.49820859326282
H           -2.51531370795674       -0.83043783480171        1.60155601195615
H           -0.87819649429056        1.16116688280050        1.48669080019703
H           -0.07126502544406        2.27014570182917       -0.63668763843610
H            1.17682824079364        2.07630595162173        0.59362430476418
H            0.79982983641901        0.28700499859181       -1.86291572371529
H            2.08862561955792        1.46363881918785       -1.62266098553203
H            2.85150487113696       -0.87306689309087       -1.11573940321473
H            2.94888752131903        0.16157509447357        0.31170004614325
H            0.68093845170998       -1.80011513996634       -0.31286108936658
H            1.93167732542807       -2.02944450771068        0.90955052424229
H           -0.14486599865947       -1.17123740810774        1.98257644247639
H            1.15099158407143        0.01180715898776        2.11512898693060
23
 energy: -388.415594118342 gnorm: 0.001810197892 xtb: 6.7.1 (edcfbbe)
C           -2.34681876808062       -1.05683310064759        0.54598040767673
C           -1.50231235336538       -0.00146352674634       -0.11078660508368
O           -1.75790901223014        0.37908386133501       -1.25081528815399
C           -0.35961963435629        0.58781694789940        0.69828221483405
C            0.53826838010754        1.52623472247524       -0.11427697249612
C            1.43038374787543        0.76272858892515       -1.09966241205414
C            2.24998767293569       -0.31645397681834       -0.38877513015275
C            1.33934506419654       -1.26708183434803        0.39163426758525
C            0.48722544827392       -0.49429333999270        1.39999114746952
H           -3.29717891435771       -1.15802148738663        0.01855680538728
H           -1.81464475409464       -2.01566866051573        0.49707480961362
H           -2.51363188638241       -0.83643435870853        1.60473065969312
H           -0.87707584512059        1.16264169378574        1.48373710196805
H           -0.06875499210295        2.27075204274360       -0.64005913120083
H            1.17525426722692        2.07368810249168        0.59270118065192
H            0.80715750952518        0.28903642907893       -1.86899609706791
H            2.09351371016337        1.46573239230429       -1.61764179002623
H            2.85244290061428       -0.87405218433926       -1.11561547936117
H            2.95135376756148        0.16032107553272        0.31139931377547
H            0.68323326479315       -1.80180828858725       -0.31202254425620
H            1.93342833106192       -2.02756732518460        0.91157604522817
H           -0.14764692200420       -1.17144245610905        1.97939092965840
H            1.14785116559362        0.01159882564857        2.11592978428737
23
 energy: -388.415607993989 gnorm: 0.001269830946 xtb: 6.7.1 (edcfbbe)
C           -2.34697655521795       -1.05714252984138        0.54826775930303
C           -1.50618596484346       -0.00056163006118       -0.10935526127132
O           -1.77153789045002        0.38849839725724       -1.24389725196934
C           -0.36126984513241        0.58646875647430        0.69461694895777
C            0.53672696169326        1.52410008509004       -0.11771452061147
C            1.43378055571155        0.76291791582365       -1.09976639177864
C            2.25111008920317       -0.31735332926971       -0.38828745369927
C            1.34081181195822       -1.26671910507834        0.39317420894070
C            0.48489806343653       -0.49532838842287        1.39825178543608
H           -3.30055386734513       -1.15693034122275        0.02752915004687
H           -1.81520737793680       -2.01531573194509        0.49239642862111
H           -2.50722934528120       -0.84305551866827        1.60874830729262
H           -0.87579756676936        1.16471372584504        1.47938266137753
H           -0.06748294582540        2.26847765270484       -0.64614083364832
H            1.17225077508083        2.07133343955092        0.59026103284271
H            0.81725876050045        0.29202583009055       -1.87593056032714
H            2.09988947491364        1.46907540402607       -1.60942441537923
H            2.85207193273534       -0.87613882693863       -1.11516424803711
H            2.95311128395786        0.15937572201650        0.31033956130964
H            0.68732877762810       -1.80348301396379       -0.31037590757141
H            1.93638277672284       -2.02410113185986        0.91562017712716
H           -0.15135581719552       -1.17372647428609        1.97381005840681
H            1.14182816970405        0.01138313666804        2.11599236042999
23
 energy: -388.415611438283 gnorm: 0.000575771267 xtb: 6.7.1 (edcfbbe)
C           -2.34595525526670       -1.05769768744514        0.54730953002049
C           -1.50599448612160        0.00069504254499       -0.10940589329240
O           -1.77079452077977        0.39051278011871       -1.24350361065397
C           -0.36083321498414        0.58664515520887        0.69561822823166
C            0.53738670806195        1.52393241730621       -0.11738108455933
C            1.43335053466733        0.76235101759051       -1.10001088087802
C            2.25074252292608       -0.31727766298550       -0.38785762482988
C            1.34024512522812       -1.26676916036484        0.39323566182557
C            0.48513804176303       -0.49478267705196        1.39880340257488
H           -3.30019274102362       -1.15648674537287        0.02714231833556
H           -1.81426032728304       -2.01568162497517        0.48911169974852
H           -2.50491332804256       -0.84317387093082        1.60781932721094
H           -0.87565215676998        1.16488239916929        1.48024056491634
H           -0.06938237006704        2.26599376207924       -0.64602512836245
H            1.17227486471116        2.07278198080711        0.58968301815418
H            0.81557299276125        0.29131583225203       -1.87468616797692
H            2.09910798212922        1.46780750348930       -1.61061481747218
H            2.85129373933675       -0.87675602625979       -1.11443402109893
H            2.95264706009485        0.15982872319125        0.31060153464525
H            0.68675723093992       -1.80354338783277       -0.31021165441495
H            1.93556299938725       -2.02403106403103        0.91598987954723
H           -0.15063330743076       -1.17360422795213        1.97441763232653
H            1.14238420276017        0.01157133003273        2.11649146444923
23
 energy: -388.415611438283 gnorm: 0.000575771267 xtb: 6.7.1 (edcfbbe)
C           -2.34595525526670       -1.05769768744514        0.54730953002049
C           -1.50599448612160        0.00069504254499       -0.10940589329240
O           -1.77079452077977        0.39051278011871       -1.24350361065397
C           -0.36083321498414        0.58664515520887        0.69561822823166
C            0.53738670806195        1.52393241730621       -0.11738108455933
C            1.43335053466733        0.76235101759051       -1.10001088087802
C            2.25074252292608       -0.31727766298550       -0.38785762482988
C            1.34024512522812       -1.26676916036484        0.39323566182557
C            0.48513804176303       -0.49478267705196        1.39880340257488
H           -3.30019274102362       -1.15648674537287        0.02714231833556
H           -1.81426032728304       -2.01568162497517        0.48911169974852
H           -2.50491332804256       -0.84317387093082        1.60781932721094
H           -0.87565215676998        1.16488239916929        1.48024056491634
H           -0.06938237006704        2.26599376207924       -0.64602512836245
H            1.17227486471116        2.07278198080711        0.58968301815418
H            0.81557299276125        0.29131583225203       -1.87468616797692
H            2.09910798212922        1.46780750348930       -1.61061481747218
H            2.85129373933675       -0.87675602625979       -1.11443402109893
H            2.95264706009485        0.15982872319125        0.31060153464525
H            0.68675723093992       -1.80354338783277       -0.31021165441495
H            1.93556299938725       -2.02403106403103        0.91598987954723
H           -0.15063330743076       -1.17360422795213        1.97441763232653
H            1.14238420276017        0.01157133003273        2.11649146444923
