
                                 *****************
                                 * O   R   C   A *
                                 *****************

                                            #,                                       
                                            ###                                      
                                            ####                                     
                                            #####                                    
                                            ######                                   
                                           ########,                                 
                                     ,,################,,,,,                         
                               ,,#################################,,                 
                          ,,##########################################,,             
                       ,#########################################, ''#####,          
                    ,#############################################,,   '####,        
                  ,##################################################,,,,####,       
                ,###########''''           ''''###############################       
              ,#####''   ,,,,##########,,,,          '''####'''          '####       
            ,##' ,,,,###########################,,,                        '##       
           ' ,,###''''                  '''############,,,                           
         ,,##''                                '''############,,,,        ,,,,,,###''
      ,#''                                            '''#######################'''  
     '                                                          ''''####''''         
             ,#######,   #######,   ,#######,      ##                                
            ,#'     '#,  ##    ##  ,#'     '#,    #''#        ,####,   ,####,        
            ##       ##  ##   ,#'  ##            #'  '#       #'       #'  '#        
            ##       ##  #######   ##           ,######,      #####,   #    #        
            '#,     ,#'  ##    ##  '#,     ,#' ,#      #,     #,   #   #,  ,#        
             '#######'   ##     ##  '#######'  #'      '#     '####' # '####'        



                #########################################################
                #                        -***-                          #
                #          Department of theory and spectroscopy        #
                #                                                       #
                #                      Frank Neese                      #
                #                                                       #
                #     Directorship, Architecture, Infrastructure        #
                #                    SHARK, DRIVERS                     #
                #        Core code/Algorithms in most modules           #
                #                                                       #
                #        Max Planck Institute fuer Kohlenforschung      #
                #                Kaiser Wilhelm Platz 1                 #
                #                 D-45470 Muelheim/Ruhr                 #
                #                      Germany                          #
                #                                                       #
                #                  All rights reserved                  #
                #                        -***-                          #
                #########################################################


                         Program Version 6.0.0  -   RELEASE  -


 With contributions from (in alphabetic order):
   Daniel Aravena         : Magnetic Suceptibility
   Michael Atanasov       : Ab Initio Ligand Field Theory (pilot matlab implementation)
   Alexander A. Auer      : GIAO ZORA, VPT2 properties, NMR spectrum
   Ute Becker             : All parallelization in ORCA, NUMFREQ, NUMCALC
   Giovanni Bistoni       : ED, misc. LED, open-shell LED, HFLD
   Martin Brehm           : Molecular dynamics
   Dmytro Bykov           : pre 5.0 version of the SCF Hessian
   Marcos Casanova-Páez   : Triplet and SCS-CIS(D). UHF-(DLPNO)-IP/EA/STEOM-CCSD. UHF-CVS-IP/STEOM-CCSD
   Vijay G. Chilkuri      : MRCI spin determinant printing, contributions to CSF-ICE
   Pauline Colinet        : FMM embedding
   Dipayan Datta          : RHF DLPNO-CCSD density
   Achintya Kumar Dutta   : EOM-CC, STEOM-CC
   Nicolas Foglia         : Exact transition moments, OPA infrastructure, MCD improvements
   Dmitry Ganyushin       : Spin-Orbit,Spin-Spin,Magnetic field MRCI
   Miquel Garcia          : C-PCM and meta-GGA Hessian, CCSD/C-PCM, Gaussian charge scheme
   Tiago L. C. Gouveia    : GS-ROHF, GS-ROCIS
   Yang Guo               : DLPNO-NEVPT2, F12-NEVPT2, CIM, IAO-localization
   Andreas Hansen         : Spin unrestricted coupled pair/coupled cluster methods
   Ingolf Harden          : AUTO-CI MPn and infrastructure 
   Benjamin Helmich-Paris : MC-RPA, TRAH-(SCF,CASSCF), AVAS, COSX integrals, SCF dyn. polar.
   Lee Huntington         : MR-EOM, pCC
   Robert Izsak           : Overlap fitted RIJCOSX, COSX-SCS-MP3, EOM
   Riya Kayal             : Wick's Theorem for AUTO-CI, AUTO-CI UHF-CCSDT
   Emily Kempfer          : AUTO-CI, RHF CISDT and CCSDT
   Christian Kollmar      : KDIIS, OOCD, Brueckner-CCSD(T), CCSD density, CASPT2, CASPT2-K, improved NEVPT2
   Axel Koslowski         : Symmetry handling
   Simone Kossmann        : Meta GGA functionals, TD-DFT gradient, OOMP2, (MP2 Hessian; deprecated post 5.0)
   Lucas Lang             : DCDCAS
   Marvin Lechner         : AUTO-CI (C++ implementation), FIC-MRCC
   Spencer Leger          : CASSCF response
   Dagmar Lenk            : GEPOL surface, SMD, ORCA-2-JSON
   Dimitrios Liakos       : Extrapolation schemes; Compound Job, initial MDCI parallelization
   Dimitrios Manganas     : Further ROCIS development; embedding schemes. LFT, Crystal Embedding
   Dimitrios Pantazis     : SARC Basis sets
   Anastasios Papadopoulos: AUTO-CI, single reference methods and gradients
   Taras Petrenko         : pre 6.0 DFT Hessian and TD-DFT gradient, (ASA, deprecated), ECA, 1-Electron XAS/XES, NRVS
   Peter Pinski           : DLPNO-MP2, DLPNO-MP2 Gradient
   Christoph Reimann      : Effective Core Potentials
   Marius Retegan         : Local ZFS, SOC
   Christoph Riplinger    : Optimizer, TS searches, QM/MM, DLPNO-CCSD(T), (RO)-DLPNO pert. Triples
   Michael Roemelt        : Original ROCIS implementation
   Masaaki Saitow         : Open-shell DLPNO-CCSD energy and density
   Barbara Sandhoefer     : DKH picture change effects
   Kantharuban Sivalingam : CASSCF convergence/infrastructure, NEVPT2 and variants, FIC-MRCI
   Bernardo de Souza      : ESD, SOC TD-DFT
   Georgi Stoychev        : AutoAux, RI-MP2 NMR, DLPNO-MP2 response, X2C
   Van Anh Tran           : RI-MP2 g-tensors
   Willem Van den Heuvel  : Paramagnetic NMR
   Zikuan Wang            : NOTCH, Electric field optimization 
   Frank Wennmohs         : Technical directorship and infrastructure
   Hang Xu                : AUTO-CI-Response properties 


 We gratefully acknowledge several colleagues who have allowed us to
 interface, adapt or use parts of their codes:
   Stefan Grimme, W. Hujo, H. Kruse, P. Pracht,  : VdW corrections, initial TS optimization,
                  C. Bannwarth, S. Ehlert,         DFT functionals, gCP, sTDA/sTD-DF
                  L. Wittmann, M. Mueller
   Ed Valeev, F. Pavosevic, A. Kumar             : LibInt (2-el integral package), F12 methods
   Garnet Chan, S. Sharma, J. Yang, R. Olivares  : DMRG
   Ulf Ekstrom                                   : XCFun DFT Library
   Mihaly Kallay                                 : mrcc  (arbitrary order and MRCC methods)
   Frank Weinhold                                : gennbo (NPA and NBO analysis)
   Simon Mueller                                 : openCOSMO-RS
   Christopher J. Cramer and Donald G. Truhlar   : smd solvation model
   Lars Goerigk                                  : TD-DFT with DH, B97 family of functionals
   V. Asgeirsson, H. Jonsson                     : NEB implementation
   FAccTs GmbH                                   : IRC, NEB, NEB-TS, DLPNO-Multilevel, CI-OPT
                                                   MM, QMMM, 2- and 3-layer-ONIOM, Crystal-QMMM,
                                                   LR-CPCM, SF, NACMEs, symmetry and pop. for TD-DFT,
                                                   nearIR, NL-DFT gradient (VV10), updates on ESD,
                                                   ML-optimized integration grids, MBIS, APM,
                                                   GOAT, DOCKER, SOLVATOR, interface openCOSMO-RS
   S Lehtola, MJT Oliveira, MAL Marques          : LibXC Library
   Liviu Ungur et al                             : ANISO software


 Your calculation uses the libint2 library for the computation of 2-el integrals
 For citations please refer to: http://libint.valeyev.net

 Your ORCA version has been built with support for libXC version: 6.2.2
 For citations please refer to: https://libxc.gitlab.io

 This ORCA versions uses:
   CBLAS   interface :  Fast vector & matrix operations
   LAPACKE interface :  Fast linear algebra routines
   SCALAPACK package :  Parallel linear algebra routines
   Shared memory     :  Shared parallel matrices
   BLAS/LAPACK       :  OpenBLAS 0.3.27  USE64BITINT DYNAMIC_ARCH NO_AFFINITY SkylakeX SINGLE_THREADED
        Core in use  :  SkylakeX
   Copyright (c) 2011-2014, The OpenBLAS Project


Your calculation utilizes the geometrical counterpoise correction gCP
Please cite in your paper:
H.Kruse, S. Grimme J.Chem.Phys., 136, (2012), 154101 
   

Your calculation utilizes the atom-pairwise dispersion correction
based on EEQ partial charges (D4)


================================================================================

cite the ECPs for I  [Def2-ECP] as follows:
Ce-Yb(ecp-28): M. Dolg, H. Stoll, H.Preuss, J. Chem. Phys., 1989, 90, 1730-1734.
Y-Cd(ecp-28), Hf-Hg(ecp-46): D. Andrae,U. Haeussermann, M. Dolg, H. Stoll, H. Preuss, Theor. Chim. Acta, 1990, 77, 123-141.
In-Sb(ecp-28), Tl-Bi(ecp-46): B. Metz, H. Stoll, M. Dolg, J. Chem. Phys., 2000, 113, 2563-2569.
Te-Xe(ecp-28), Po-Rn(ecp-46): K. A. Peterson, D. Figgen, E. Goll, H. Stoll, M. Dolg, J. Chem. Phys., 2003, 119, 11113-11123.
Rb(ecp-28), Cs(ecp-46): T. Leininger, A. Nicklass, W. Kuechle, H. Stoll, M. Dolg, A. Bergner, Chem. Phys. Lett., 1996, 255, 274-280.
Sr(ecp-28), Ba(ecp-46): M. Kaupp, P. V. Schleyer, H. Stoll and H. Preuss, J. Chem. Phys., 1991, 94, 1360-1366.
La(ecp-46): M. Dolg, H. Stoll, A. Savin, H. Preuss, Theor. Chim. Acta, 1989, 75, 173-194.
Lu(ecp-28): X. Cao, M. Dolg, J. Chem. Phys., 2001, 115, 7348-7355.

ECP parameters for I  [Def2-ECP] have been obtained from:
TURBOMOLE (7.0.2)

----- Orbital basis set information -----
Your calculation utilizes the basis: def2-SV(P)
   F. Weigend and R. Ahlrichs, Phys. Chem. Chem. Phys. 7, 3297 (2005).

----- AuxJ basis set information -----
Your calculation utilizes the auxiliary basis: def2/J
   F. Weigend, Phys. Chem. Chem. Phys. 8, 1057 (2006).

================================================================================
                                        WARNINGS
                       Please study these warnings very carefully!
================================================================================


================================================================================
                                       INPUT FILE
================================================================================
NAME = sp.inp
|  1> ! pbe def2-sv(p) def2/J RI DEFGRID1 loosescf d4 GCP(DFT/SV(P)) printgap
|  2> %output
|  3>     printlevel normal
|  4> end
|  5> * xyz 0 1
|  6> C -3.6538245697 -0.0267928525 2.08731e-05
|  7> C -2.22318779 0.5038157132 -2.52567e-05
|  8> C -1.2448347701 -0.652217554 -1.50669e-05
|  9> I 0.8238371442 0.0225612704 8.715e-07
| 10> H -4.3562309941 0.8016366136 -1.75104e-05
| 11> H -3.8369235856 -0.6351030015 -0.8825154494
| 12> H -3.836754018 -0.6348583859 0.8827375242
| 13> H -2.0626468423 1.1263818842 0.8825318099
| 14> H -2.0627929608 1.1261263424 -0.8827663224
| 15> H -1.3525214387 -1.2686744891 -0.8886467769
| 16> H -1.3523585216 -1.2684390447 0.8887987702
| 17> *
| 18> 
| 19>                          ****END OF INPUT****
================================================================================

                       ****************************
                       * Single Point Calculation *
                       ****************************

---------------------------------
CARTESIAN COORDINATES (ANGSTROEM)
---------------------------------
  C     -3.653825   -0.026793    0.000021
  C     -2.223188    0.503816   -0.000025
  C     -1.244835   -0.652218   -0.000015
  I      0.823837    0.022561    0.000001
  H     -4.356231    0.801637   -0.000018
  H     -3.836924   -0.635103   -0.882515
  H     -3.836754   -0.634858    0.882738
  H     -2.062647    1.126382    0.882532
  H     -2.062793    1.126126   -0.882766
  H     -1.352521   -1.268674   -0.888647
  H     -1.352359   -1.268439    0.888799

----------------------------
CARTESIAN COORDINATES (A.U.)
----------------------------
  NO LB      ZA    FRAG     MASS         X           Y           Z
   0 C     6.0000    0    12.011   -6.904728   -0.050631    0.000039
   1 C     6.0000    0    12.011   -4.201216    0.952074   -0.000048
   2 C     6.0000    0    12.011   -2.352397   -1.232513   -0.000028
   3 I    25.0000*   0   126.900    1.556827    0.042635    0.000002
   4 H     1.0000    0     1.008   -8.232084    1.514874   -0.000033
   5 H     1.0000    0     1.008   -7.250735   -1.200171   -1.667713
   6 H     1.0000    0     1.008   -7.250414   -1.199708    1.668132
   7 H     1.0000    0     1.008   -3.897838    2.128553    1.667743
   8 H     1.0000    0     1.008   -3.898114    2.128070   -1.668187
   9 H     1.0000    0     1.008   -2.555895   -2.397447   -1.679299
  10 H     1.0000    0     1.008   -2.555587   -2.397002    1.679586
* core charge reduced due to ECP

--------------------------------
INTERNAL COORDINATES (ANGSTROEM)
--------------------------------
 C      0   0   0     0.000000000000     0.00000000     0.00000000
 C      1   0   0     1.525865999212     0.00000000     0.00000000
 C      2   1   0     1.514459489892   109.89199491     0.00000000
 I      3   2   1     2.175943462300   112.17552108   180.00227763
 H      1   2   3     1.086126220480   109.94454748   180.00174584
 H      1   2   3     1.087399120623   110.63311166   299.85926599
 H      1   2   3     1.087380136886   110.62275272    60.15138500
 H      2   1   3     1.091910714742   109.63924635   239.11639313
 H      2   1   3     1.091892306742   109.62998085   120.87202680
 H      3   2   1     1.086867925483   111.65019989    61.60428461
 H      3   2   1     1.086867204288   111.64666921   298.38111848

---------------------------
INTERNAL COORDINATES (A.U.)
---------------------------
 C      0   0   0     0.000000000000     0.00000000     0.00000000
 C      1   0   0     2.883468855574     0.00000000     0.00000000
 C      2   1   0     2.861913676814   109.89199491     0.00000000
 I      3   2   1     4.111937226643   112.17552108   180.00227763
 H      1   2   3     2.052481103578   109.94454748   180.00174584
 H      1   2   3     2.054886536244   110.63311166   299.85926599
 H      1   2   3     2.054850662180   110.62275272    60.15138500
 H      2   1   3     2.063412213556   109.63924635   239.11639313
 H      2   1   3     2.063377427478   109.62998085   120.87202680
 H      3   2   1     2.053882722907   111.65019989    61.60428461
 H      3   2   1     2.053881360046   111.64666921   298.38111848

---------------------
BASIS SET INFORMATION
---------------------
There are 3 groups of distinct atoms

 Group   1 Type C   : 7s4p1d contracted to 3s2p1d pattern {511/31/1}
 Group   2 Type I   : 10s7p6d contracted to 4s4p2d pattern {6211/4111/51}
 Group   3 Type H   : 4s contracted to 2s pattern {31}

Atom   0C    basis set group =>   1
Atom   1C    basis set group =>   1
Atom   2C    basis set group =>   1
Atom   3I    basis set group =>   2
Atom   4H    basis set group =>   3
Atom   5H    basis set group =>   3
Atom   6H    basis set group =>   3
Atom   7H    basis set group =>   3
Atom   8H    basis set group =>   3
Atom   9H    basis set group =>   3
Atom  10H    basis set group =>   3
---------------------------------
AUXILIARY/J BASIS SET INFORMATION
---------------------------------
There are 3 groups of distinct atoms

 Group   1 Type C   : 12s5p4d2f1g contracted to 6s4p3d1f1g pattern {711111/2111/211/2/1}
 Group   2 Type I   : 11s5p5d3f1g contracted to 8s4p3d2f1g pattern {41111111/2111/311/21/1}
 Group   3 Type H   : 5s2p1d contracted to 3s1p1d pattern {311/2/1}

Atom   0C    basis set group =>   1
Atom   1C    basis set group =>   1
Atom   2C    basis set group =>   1
Atom   3I    basis set group =>   2
Atom   4H    basis set group =>   3
Atom   5H    basis set group =>   3
Atom   6H    basis set group =>   3
Atom   7H    basis set group =>   3
Atom   8H    basis set group =>   3
Atom   9H    basis set group =>   3
Atom  10H    basis set group =>   3
-------------------------
ECP PARAMETER INFORMATION
-------------------------

 Group 1, Type I  ECP Def2-ECP (replacing 28 core electrons, lmax=3)

Atom   3I    ECP group =>   1

------------------------------------------------------------------------------
                             ORCA STARTUP CALCULATIONS
                           -- RI-GTO INTEGRALS CHOSEN --
------------------------------------------------------------------------------
------------------------------------------------------------------------------
                   ___                                                        
                  /   \      - P O W E R E D   B Y -                         
                 /     \                                                     
                 |  |  |   _    _      __       _____    __    __             
                 |  |  |  | |  | |    /  \     |  _  \  |  |  /  |          
                  \  \/   | |  | |   /    \    | | | |  |  | /  /          
                 / \  \   | |__| |  /  /\  \   | |_| |  |  |/  /          
                |  |  |   |  __  | /  /__\  \  |    /   |      \           
                |  |  |   | |  | | |   __   |  |    \   |  |\   \          
                \     /   | |  | | |  |  |  |  | |\  \  |  | \   \       
                 \___/    |_|  |_| |__|  |__|  |_| \__\ |__|  \__/        
                                                                              
                      - O R C A' S   B I G   F R I E N D -                    
                                      &                                       
                       - I N T E G R A L  F E E D E R -                       
                                                                              
 v1 FN, 2020, v2 2021, v3 2022-2024                                           
------------------------------------------------------------------------------


----------------------
SHARK INTEGRAL PACKAGE
----------------------

Number of atoms                             ...     11
Number of basis functions                   ...     82
Number of shells                            ...     42
Maximum angular momentum                    ...      2
Integral batch strategy                     ... SHARK/LIBINT Hybrid
RI-J (if used) integral strategy            ... SPLIT-RIJ (Revised 2003 algorithm where possible)
Printlevel                                  ...      1
Contraction scheme used                     ... SEGMENTED contraction
Prescreening option                         ... SCHWARTZ
   Thresh                                   ... 1.000e-09
   Tcut                                     ... 1.000e-10
   Tpresel                                  ... 1.000e-10 
Coulomb Range Separation                    ... NOT USED
Exchange Range Separation                   ... NOT USED
Multipole approximations                    ... NOT USED
Finite Nucleus Model                        ... NOT USED
CABS basis                                  ... NOT available
Auxiliary Coulomb fitting basis             ... AVAILABLE
   # of basis functions in Aux-J            ...    282
   # of shells in Aux-J                     ...     98
   Maximum angular momentum in Aux-J        ...      4
Auxiliary J/K fitting basis                 ... NOT available
Auxiliary Correlation fitting basis         ... NOT available
Auxiliary 'external' fitting basis          ... NOT available

Checking pre-screening integrals            ... done (  0.0 sec) Dimension = 42
Check shell pair data                       ... done (  0.0 sec)
Shell pair information
Shell pair cut-off parameter TPreSel        ...   1.0e-10
Total number of shell pairs                 ...       903
Shell pairs after pre-screening             ...       873
Total number of primitive shell pairs       ...      3920
Primitive shell pairs kept                  ...      2864
          la=0 lb=0:    366 shell pairs
          la=1 lb=0:    259 shell pairs
          la=1 lb=1:     54 shell pairs
          la=2 lb=0:    131 shell pairs
          la=2 lb=1:     49 shell pairs
          la=2 lb=2:     14 shell pairs

Calculating one electron integrals          ... done (  0.0 sec)
Calculating ECP integrals                   ... done (  0.0 sec)
Calculating RI/J V-Matrix + Cholesky decomp.... done (  0.0 sec)
Calculating Nuclear repulsion               ... done (  0.0 sec) ENN=    182.511821374140 Eh

Diagonalization of the overlap matrix:
Smallest eigenvalue                        ... 2.703e-03
Time for diagonalization                   ...    0.001 sec
Threshold for overlap eigenvalues          ... 1.000e-07
Number of eigenvalues below threshold      ... 0
Time for construction of square roots      ...    0.013 sec
Total time needed                          ...    0.023 sec

-------------------
DFT GRID GENERATION
-------------------

General Integration Accuracy     IntAcc      ... 4.159
Radial Grid Type                 RadialGrid  ... OptM3 with GC (2021)
Angular Grid (max. ang.)         AngularGrid ... 3 (Lebedev-194)
Angular grid pruning method      GridPruning ... 4 (adaptive)
Weight generation scheme         WeightScheme... mBecke (2022)
Basis function cutoff            BFCut       ... 1.0000e-10
Integration weight cutoff        WCut        ... 1.0000e-14
Partially contracted basis set               ... off
Rotationally invariant grid construction     ... off
Angular grids for H and He will be reduced by one unit

Total number of grid points                  ...    25900
Total number of batches                      ...      411
Average number of points per batch           ...       63
Average number of grid points per atom       ...     2355
Initializing property integral containers    ... done (  0.0 sec)

SHARK setup successfully completed in   0.5 seconds

Maximum memory used throughout the entire STARTUP-calculation: 14.6 MB
-------------------------------------------------------------------------------
                                 ORCA GUESS
                   Start orbitals & Density for SCF / CASSCF
-------------------------------------------------------------------------------

------------
SCF SETTINGS
------------
Hamiltonian:
 Density Functional     Method          .... DFT(GTOs)
 Exchange Functional    Exchange        .... PBE
   PBE kappa parameter   XKappa         ....  0.804000
   PBE mue parameter    XMuePBE         ....  0.219520
 Correlation Functional Correlation     .... PBE
   PBE beta parameter  CBetaPBE         ....  0.066725
 LDA part of GGA corr.  LDAOpt          .... PW91-LDA
 Gradients option       PostSCFGGA      .... off
   NL short-range parameter             ....  6.400000
 RI-approximation to the Coulomb term is turned on
   Number of AuxJ basis functions       .... 282


General Settings:
 Integral files         IntName         .... sp
 Hartree-Fock type      HFTyp           .... RHF
 Total Charge           Charge          ....    0
 Multiplicity           Mult            ....    1
 Number of Electrons    NEL             ....   50
 Basis Dimension        Dim             ....   82
 Nuclear Repulsion      ENuc            ....    182.5118213741 Eh

Convergence Acceleration:
 AO-DIIS                CNVDIIS         .... on
   Start iteration      DIISMaxIt       ....    12
   Startup error        DIISStart       ....  0.200000
   # of expansion vecs  DIISMaxEq       ....     5
   Bias factor          DIISBfac        ....   1.050
   Max. coefficient     DIISMaxC        ....  10.000
 MO-DIIS                CNVKDIIS        .... off
 Trust-Rad. Augm. Hess. CNVTRAH         .... auto
   Auto Start mean grad. ratio tolernc. ....  1.125000
   Auto Start start iteration           ....    50
   Auto Start num. interpolation iter.  ....    10
   Max. Number of Micro iterations      ....    24
   Max. Number of Macro iterations      .... Maxiter - #DIIS iter
   Number of Davidson start vectors     ....     2
   Converg. threshold    (grad. norm)   ....   1.000e-04
   Grad. Scal. Fac. for Micro threshold ....   0.100
   Minimum threshold for Micro iter.    ....   1.000e-02
   NR start threshold (gradient norm)   ....   1.000e-04
   Initial trust radius                 ....   0.400
   Minimum AH scaling param. (alpha)    ....   1.000
   Maximum AH scaling param. (alpha)    .... 1000.000
   Quad. conv. algorithm                .... NR
   White noise on init. David. guess    .... on
   Maximum white noise                  ....   0.010
   Pseudo random numbers                .... off
   Inactive MOs                         .... canonical
   Orbital update algorithm             .... Taylor
   Preconditioner                       .... Diag
   Full preconditioner red. dimension   ....   250
 SOSCF                  CNVSOSCF        .... on
   Start iteration      SOSCFMaxIt      ....   150
   Startup grad/error   SOSCFStart      ....  0.003300
   Hessian update       SOSCFHessUp     .... L-BFGS
 Level Shifting         CNVShift        .... on
   Level shift para.    LevelShift      ....    0.2500
   Turn off err/grad.   ShiftErr        ....    0.0010
 Zerner damping         CNVZerner       .... off
 Static damping         CNVDamp         .... on
   Fraction old density DampFac         ....    0.7000
   Max. Damping (<1)    DampMax         ....    0.9800
   Min. Damping (>=0)   DampMin         ....    0.0000
   Turn off err/grad.   DampErr         ....    0.1000

SCF Procedure:
 Maximum # iterations   MaxIter         ....   125
 SCF integral mode      SCFMode         .... Direct
   Integral package                     .... SHARK and LIBINT hybrid scheme
 Reset frequency        DirectResetFreq ....    20
 Integral Threshold     Thresh          ....  1.000e-09 Eh
 Primitive CutOff       TCut            ....  1.000e-10 Eh

Convergence Tolerance:
 Convergence Check Mode ConvCheckMode   .... Total+1el-Energy
 Convergence forced     ConvForced      .... 0
 Energy Change          TolE            ....  1.000e-05 Eh
 1-El. energy change                    ....  1.000e-02 Eh
 Orbital Gradient       TolG            ....  1.000e-04
 Orbital Rotation angle TolX            ....  1.000e-04
 DIIS Error             TolErr          ....  5.000e-04

------------------------------
INITIAL GUESS: MODEL POTENTIAL
------------------------------
Loading Hartree-Fock densities                     ... done
Atomic calculation to generate a density for atom 3 (I  with ECP)
  Multiplicity assumed   :    2
  Atomic configuration   : 1s2 2s2 2p6 3s2 3p6 4s2 3d10 4p6 5s2 4d10 5p5 
  Number of open shells  : 1
  Command: /apps/z_install_tree/linux-rocky8-ivybridge/gcc-12.2.0/orca-6.0.0-srtngmq3qlimg2qxbl6avaaiffipurdx/bin/orca sp_atom53.inp "" > sp_atom53.out
Returned from the atomic calculation with res=0
Calculating cut-offs                               ... done
Initializing the effective Hamiltonian             ... done
Setting up the integral package (SHARK)            ... done
Starting the Coulomb interaction                   ... done (   0.1 sec)
Making the grid                                    ... done (   0.1 sec)
Mapping shells                                     ... done
Starting the XC term evaluation                    ... done (   0.1 sec)
  promolecular density results
     # of electrons  =     77.992378588
     EX              =   -190.530436399
     EC              =     -3.664796122
     EX+EC           =   -194.195232521
Transforming the Hamiltonian                       ... done (   0.0 sec)
Diagonalizing the Hamiltonian                      ... done (   0.0 sec)
Back transforming the eigenvectors                 ... done (   0.0 sec)
Now organizing SCF variables                       ... done
                      ------------------
                      INITIAL GUESS DONE (   6.4 sec)
                      ------------------
             **** ENERGY FILE WAS UPDATED (sp.en.tmp) ****
Finished Guess after   6.5 sec
Maximum memory used throughout the entire GUESS-calculation: 12.8 MB

-------------------------------------------------------------------------------------------
                                      ORCA LEAN-SCF
                              memory conserving SCF solver
-------------------------------------------------------------------------------------------

----------------------------------------D-I-I-S--------------------------------------------
Iteration    Energy (Eh)           Delta-E    RMSDP     MaxDP     DIISErr   Damp  Time(sec)
-------------------------------------------------------------------------------------------
               ***  Starting incremental Fock matrix formation  ***
    1    -415.8068051478509233     0.00e+00  5.08e-03  8.32e-02  3.89e-01  0.700   0.4
    2    -415.8711369868575503    -6.43e-02  3.61e-03  5.36e-02  2.60e-01  0.700   0.4
                               ***Turning on AO-DIIS***
    3    -415.8953680151498702    -2.42e-02  1.29e-03  2.71e-02  1.72e-01  0.700   0.4
    4    -415.9105245621976792    -1.52e-02  5.87e-04  7.99e-03  1.17e-01  0.700   0.4
    5    -415.9207396254620335    -1.02e-02  3.62e-04  4.20e-03  8.17e-02  0.700   0.4
    6    -415.9279332114142562    -7.19e-03  8.88e-04  9.62e-03  5.76e-02  0.000   0.4
                              *** Initializing SOSCF ***
---------------------------------------S-O-S-C-F--------------------------------------
Iteration    Energy (Eh)           Delta-E    RMSDP     MaxDP     MaxGrad    Time(sec)
--------------------------------------------------------------------------------------
    7    -415.9447319694611451    -1.68e-02  1.99e-04  5.22e-03  1.73e-03     0.4
               *** Restarting incremental Fock matrix formation ***
    8    -415.9447416472024770    -9.68e-06  1.20e-04  2.62e-03  4.23e-04     0.4
    9    -415.9447375187506850     4.13e-06  7.65e-05  1.31e-03  5.60e-04     0.4
                 **** Energy Check signals convergence ****

               *****************************************************
               *                     SUCCESS                       *
               *           SCF CONVERGED AFTER   9 CYCLES          *
               *****************************************************

             **** ENERGY FILE WAS UPDATED (sp.en.tmp) ****

----------------
TOTAL SCF ENERGY
----------------

Total Energy       :       -415.94473751875069 Eh          -11318.43173 eV

Components:
Nuclear Repulsion  :        182.51182137414000 Eh            4966.39915 eV
Electronic Energy  :       -598.45655889289083 Eh          -16284.83087 eV
One Electron Energy:      -1038.75529681632202 Eh          -28265.96864 eV
Two Electron Energy:        440.29873792343125 Eh           11981.13777 eV

Virial components:
Potential Energy   :       -646.54970549647851 Eh          -17593.51192 eV
Kinetic Energy     :        230.60496797772788 Eh            6275.08020 eV
Virial Ratio       :          2.80371108726037

DFT components:
N(Alpha)           :       25.000162674004 electrons
N(Beta)            :       25.000162674004 electrons
N(Total)           :       50.000325348008 electrons
E(X)               :      -38.963612950481 Eh       
E(C)               :       -1.950889205166 Eh       
E(XC)              :      -40.914502155647 Eh       

---------------
SCF CONVERGENCE
---------------

  Last Energy change         ...   -4.1285e-06  Tolerance :   1.0000e-05
  Last MAX-Density change    ...    1.3081e-03  Tolerance :   1.0000e-03
  Last RMS-Density change    ...    7.6474e-05  Tolerance :   1.0000e-04
  Last DIIS Error            ...    1.7304e-03  Tolerance :   5.0000e-04
  Last Orbital Gradient      ...    5.6025e-04  Tolerance :   1.0000e-04
  Last Orbital Rotation      ...    5.9608e-04  Tolerance :   1.0000e-04


----------------
ORBITAL ENERGIES
----------------

  NO   OCC          E(Eh)            E(eV) 
   0   2.0000      -9.935716      -270.3646 
   1   2.0000      -9.900829      -269.4152 
   2   2.0000      -9.886374      -269.0219 
   3   2.0000      -6.593207      -179.4103 
   4   2.0000      -4.664984      -126.9407 
   5   2.0000      -4.648267      -126.4858 
   6   2.0000      -4.647984      -126.4781 
   7   2.0000      -1.801100       -49.0104 
   8   2.0000      -1.796707       -48.8909 
   9   2.0000      -1.796472       -48.8845 
  10   2.0000      -1.783000       -48.5179 
  11   2.0000      -1.782984       -48.5175 
  12   2.0000      -0.731403       -19.9025 
  13   2.0000      -0.653160       -17.7734 
  14   2.0000      -0.584642       -15.9089 
  15   2.0000      -0.533603       -14.5201 
  16   2.0000      -0.437214       -11.8972 
  17   2.0000      -0.394711       -10.7406 
  18   2.0000      -0.367952       -10.0125 
  19   2.0000      -0.365411        -9.9433 
  20   2.0000      -0.320072        -8.7096 
  21   2.0000      -0.306983        -8.3534 
  22   2.0000      -0.294063        -8.0019 
  23   2.0000      -0.217534        -5.9194 
  24   2.0000      -0.217077        -5.9070 
  25   0.0000      -0.056256        -1.5308 
  26   0.0000       0.037658         1.0247 
  27   0.0000       0.070442         1.9168 
  28   0.0000       0.072647         1.9768 
  29   0.0000       0.088220         2.4006 
  30   0.0000       0.119139         3.2419 
  31   0.0000       0.121228         3.2988 
  32   0.0000       0.130324         3.5463 
  33   0.0000       0.160635         4.3711 
  34   0.0000       0.186044         5.0625 
  35   0.0000       0.267114         7.2685 
*Only the first 10 virtual orbitals were printed.

                    ********************************
                    * MULLIKEN POPULATION ANALYSIS *
                    ********************************

-----------------------
MULLIKEN ATOMIC CHARGES
-----------------------
   0 C :   -0.285571
   1 C :   -0.159235
   2 C :   -0.363958
   3 I :   -0.041943
   4 H :    0.116274
   5 H :    0.105742
   6 H :    0.105730
   7 H :    0.109216
   8 H :    0.109203
   9 H :    0.152271
  10 H :    0.152272
Sum of atomic charges:   -0.0000000

--------------------------------
MULLIKEN REDUCED ORBITAL CHARGES
--------------------------------
  0 C s       :     3.102206  s :     3.102206
      pz      :     1.070449  p :     3.154066
      px      :     1.020515
      py      :     1.063102
      dz2     :     0.005231  d :     0.029300
      dxz     :     0.003565
      dyz     :     0.008434
      dx2y2   :     0.003866
      dxy     :     0.008204

  1 C s       :     3.060734  s :     3.060734
      pz      :     1.066756  p :     3.061156
      px      :     0.969190
      py      :     1.025210
      dz2     :     0.005636  d :     0.037345
      dxz     :     0.004610
      dyz     :     0.011484
      dx2y2   :     0.007210
      dxy     :     0.008404

  2 C s       :     3.245202  s :     3.245202
      pz      :     1.101121  p :     3.086047
      px      :     0.908617
      py      :     1.076310
      dz2     :     0.004988  d :     0.032709
      dxz     :     0.003019
      dyz     :     0.012108
      dx2y2   :     0.007071
      dxy     :     0.005523

  3 I s       :     3.968141  s :     3.968141
      pz      :     3.984818  p :    11.034586
      px      :     3.168329
      py      :     3.881439
      dz2     :     2.005715  d :    10.039216
      dxz     :     2.007072
      dyz     :     2.001669
      dx2y2   :     2.013421
      dxy     :     2.011338

  4 H s       :     0.883726  s :     0.883726

  5 H s       :     0.894258  s :     0.894258

  6 H s       :     0.894270  s :     0.894270

  7 H s       :     0.890784  s :     0.890784

  8 H s       :     0.890797  s :     0.890797

  9 H s       :     0.847729  s :     0.847729

 10 H s       :     0.847728  s :     0.847728


------------------------
MULLIKEN OVERLAP CHARGES
------------------------
B(  0-C ,  1-C ) :   0.8246 B(  0-C ,  2-C ) :  -0.0966 B(  0-C ,  4-H ) :   0.7341 
B(  0-C ,  5-H ) :   0.7620 B(  0-C ,  6-H ) :   0.7620 B(  1-C ,  2-C ) :   0.7882 
B(  1-C ,  3-I ) :  -0.1503 B(  1-C ,  5-H ) :  -0.0507 B(  1-C ,  6-H ) :  -0.0507 
B(  1-C ,  7-H ) :   0.7320 B(  1-C ,  8-H ) :   0.7319 B(  2-C ,  3-I ) :   0.5468 
B(  2-C ,  7-H ) :  -0.0576 B(  2-C ,  8-H ) :  -0.0576 B(  2-C ,  9-H ) :   0.7244 
B(  2-C , 10-H ) :   0.7244 B(  3-I ,  9-H ) :  -0.0741 B(  3-I , 10-H ) :  -0.0741 
B(  5-H ,  6-H ) :  -0.0532 B(  7-H ,  8-H ) :  -0.0669 B(  9-H , 10-H ) :  -0.0580 



                     *******************************
                     * LOEWDIN POPULATION ANALYSIS *
                     *******************************

----------------------
LOEWDIN ATOMIC CHARGES
----------------------
   0 C :   -0.338504
   1 C :   -0.252659
   2 C :   -0.331057
   3 I :    0.047415
   4 H :    0.126801
   5 H :    0.120215
   6 H :    0.120212
   7 H :    0.123177
   8 H :    0.123175
   9 H :    0.130615
  10 H :    0.130611

-------------------------------
LOEWDIN REDUCED ORBITAL CHARGES
-------------------------------
  0 C s       :     2.946660  s :     2.946660
      pz      :     1.128282  p :     3.321224
      px      :     1.070793
      py      :     1.122150
      dz2     :     0.013734  d :     0.070620
      dxz     :     0.006840
      dyz     :     0.020048
      dx2y2   :     0.010223
      dxy     :     0.019775

  1 C s       :     2.911623  s :     2.911623
      pz      :     1.116538  p :     3.250503
      px      :     1.053962
      py      :     1.080003
      dz2     :     0.014856  d :     0.090533
      dxz     :     0.008618
      dyz     :     0.026564
      dx2y2   :     0.017138
      dxy     :     0.023357

  2 C s       :     3.006125  s :     3.006125
      pz      :     1.148273  p :     3.250344
      px      :     0.988604
      py      :     1.113467
      dz2     :     0.012539  d :     0.074589
      dxz     :     0.005345
      dyz     :     0.026811
      dx2y2   :     0.014720
      dxy     :     0.015174

  3 I s       :     3.864356  s :     3.864356
      pz      :     3.972141  p :    11.040621
      px      :     3.194366
      py      :     3.874115
      dz2     :     2.007522  d :    10.047607
      dxz     :     2.006831
      dyz     :     2.001732
      dx2y2   :     2.017927
      dxy     :     2.013595

  4 H s       :     0.873199  s :     0.873199

  5 H s       :     0.879785  s :     0.879785

  6 H s       :     0.879788  s :     0.879788

  7 H s       :     0.876823  s :     0.876823

  8 H s       :     0.876825  s :     0.876825

  9 H s       :     0.869385  s :     0.869385

 10 H s       :     0.869389  s :     0.869389


---------------------------------
LOEWDIN BOND ORDERS (THRESH 0.050000)
---------------------------------
B(  0-C ,  1-C ) :   1.1176 B(  0-C ,  2-C ) :   0.0616 B(  0-C ,  4-H ) :   0.9346 
B(  0-C ,  5-H ) :   0.9404 B(  0-C ,  6-H ) :   0.9404 B(  1-C ,  2-C ) :   1.1358 
B(  1-C ,  3-I ) :   0.0692 B(  1-C ,  7-H ) :   0.9062 B(  1-C ,  8-H ) :   0.9062 
B(  2-C ,  3-I ) :   1.1184 B(  2-C ,  9-H ) :   0.9263 B(  2-C , 10-H ) :   0.9263 


------------------------------------------
LOEWDIN REDUCED ORBITAL POPULATIONS PER MO
-------------------------------------------
THRESHOLD FOR PRINTING IS 0.1%%
                      0         1         2         3         4         5   
                  -9.93572  -9.90083  -9.88637  -6.59321  -4.66498  -4.64827
                   2.00000   2.00000   2.00000   2.00000   2.00000   2.00000
                  --------  --------  --------  --------  --------  --------
 0 C  s               0.0       0.0      99.7       0.0       0.0       0.0
 1 C  s               0.0      99.6       0.0       0.0       0.0       0.0
 2 C  s              99.7       0.0       0.0       0.0       0.0       0.0
 3 I  s               0.0       0.0       0.0      99.9       0.0       0.0
 3 I  px              0.0       0.0       0.0       0.0      89.9      10.1
 3 I  py              0.0       0.0       0.0       0.0      10.1      89.9

                      6         7         8         9        10        11   
                  -4.64798  -1.80110  -1.79671  -1.79647  -1.78300  -1.78298
                   2.00000   2.00000   2.00000   2.00000   2.00000   2.00000
                  --------  --------  --------  --------  --------  --------
 3 I  pz            100.0       0.0       0.0       0.0       0.0       0.0
 3 I  dz2             0.0      24.5       0.0       0.0       0.0      75.5
 3 I  dxz             0.0       0.0       0.0      89.7      10.3       0.0
 3 I  dyz             0.0       0.0       0.0      10.3      89.7       0.0
 3 I  dx2y2           0.0      48.7      35.6       0.0       0.0      15.7
 3 I  dxy             0.0      26.8      64.4       0.0       0.0       8.8

                     12        13        14        15        16        17   
                  -0.73140  -0.65316  -0.58464  -0.53360  -0.43721  -0.39471
                   2.00000   2.00000   2.00000   2.00000   2.00000   2.00000
                  --------  --------  --------  --------  --------  --------
 0 C  s              12.3      17.3      12.8       4.3       0.0       0.0
 0 C  pz              0.0       0.0       0.0       0.0      12.3       0.0
 0 C  px              3.0       0.0       2.5       3.9       0.0       8.7
 0 C  py              0.1       0.1       0.0       3.3       0.0      23.7
 0 C  dz2             0.0       0.0       0.0       0.1       0.0       0.1
 1 C  s              26.0       2.8       2.5      13.4       0.0       0.2
 1 C  pz              0.0       0.0       0.0       0.0      27.6       0.0
 1 C  px              0.0       8.0       6.1       0.5       0.0       0.4
 1 C  py              2.2       0.2       0.3      10.3       0.0      18.3
 1 C  dz2             0.1       0.0       0.0       0.2       0.0       0.1
 1 C  dx2y2           0.0       0.0       0.1       0.0       0.0       0.0
 1 C  dxy             0.0       0.2       0.2       0.0       0.0       0.0
 2 C  s              22.4      10.0       7.7       8.4       0.0       0.6
 2 C  pz              0.0       0.0       0.0       0.0      27.0       0.0
 2 C  px              0.6       6.5       5.0       0.0       0.0      10.2
 2 C  py              1.6       0.1       0.1      12.5       0.0       5.8
 2 C  dz2             0.0       0.0       0.0       0.2       0.0       0.1
 2 C  dx2y2           0.0       0.0       0.1       0.0       0.0       0.0
 2 C  dxy             0.1       0.1       0.1       0.1       0.0       0.1
 3 I  s               5.3      35.5      42.8       4.3       0.0       1.6
 3 I  pz              0.0       0.0       0.0       0.0       1.0       0.0
 3 I  px              1.4       0.8       1.0       0.6       0.0       3.2
 3 I  py              0.1       0.1       0.1       0.7       0.0       1.2
 3 I  dxz             0.0       0.0       0.0       0.0       0.1       0.0
 3 I  dx2y2           0.1       0.1       0.0       0.0       0.0       0.0
 3 I  dxy             0.1       0.1       0.0       0.1       0.0       0.2
 4 H  s               2.1       4.2       4.9       1.3       0.0      14.6
 5 H  s               2.3       3.8       3.9       3.2       3.0       1.8
 6 H  s               2.3       3.8       3.9       3.2       3.0       1.8
 7 H  s               4.6       0.5       0.6       8.1       6.0       1.9
 8 H  s               4.6       0.5       0.6       8.1       6.0       1.9
 9 H  s               4.3       2.5       2.3       6.5       6.9       1.5
10 H  s               4.3       2.5       2.3       6.5       6.9       1.5

                     18        19        20        21        22        23   
                  -0.36795  -0.36541  -0.32007  -0.30698  -0.29406  -0.21753
                   2.00000   2.00000   2.00000   2.00000   2.00000   2.00000
                  --------  --------  --------  --------  --------  --------
 0 C  s               0.1       0.0       0.1       0.0       0.7       0.0
 0 C  pz              0.0      30.1       0.0      13.9       0.0       0.0
 0 C  px             19.8       0.0       0.5       0.0      14.3       0.7
 0 C  py              5.8       0.0      22.8       0.0       0.2       0.0
 0 C  dz2             0.1       0.0       0.3       0.0       0.0       0.0
 0 C  dxz             0.0       0.0       0.0       0.3       0.0       0.0
 0 C  dyz             0.0       0.3       0.0       0.6       0.0       0.0
 0 C  dx2y2           0.1       0.0       0.1       0.0       0.0       0.0
 0 C  dxy             0.1       0.0       0.5       0.0       0.1       0.0
 1 C  s               0.3       0.0       0.1       0.0       0.0       0.5
 1 C  pz              0.0       2.7       0.0      25.5       0.0       0.0
 1 C  px             25.8       0.0       0.2       0.0      10.1       1.4
 1 C  py              0.2       0.0      20.3       0.0       1.7       0.3
 1 C  dz2             0.0       0.0       0.4       0.0       0.1       0.0
 1 C  dxz             0.0       0.3       0.0       0.1       0.0       0.0
 1 C  dyz             0.0       0.1       0.0       1.2       0.0       0.0
 1 C  dx2y2           0.0       0.0       0.2       0.0       0.5       0.0
 1 C  dxy             0.2       0.0       0.5       0.0       0.1       0.0
 2 C  s               0.5       0.0       1.0       0.0       0.0       0.0
 2 C  pz              0.0      24.6       0.0       4.4       0.0       0.0
 2 C  px              3.0       0.0       4.7       0.0      18.9       0.2
 2 C  py             20.0       0.0      11.3       0.0       3.1       1.0
 2 C  dz2             0.1       0.0       0.1       0.0       0.1       0.0
 2 C  dyz             0.0       0.5       0.0       0.6       0.0       0.0
 2 C  dx2y2           0.0       0.0       0.0       0.0       0.5       0.0
 2 C  dxy             0.0       0.0       0.1       0.0       0.0       0.3
 3 I  s               2.1       0.0       0.1       0.0       1.7       0.0
 3 I  pz              0.0       2.0       0.0       0.4       0.0       0.0
 3 I  px             10.0       0.0       0.2       0.0      32.0      10.6
 3 I  py              0.2       0.0       1.3       0.0       6.4      83.7
 3 I  dxz             0.0       0.2       0.0       0.0       0.0       0.0
 3 I  dx2y2           0.4       0.0       0.0       0.0       0.2       0.0
 3 I  dxy             0.0       0.0       0.1       0.0       0.2       0.0
 4 H  s               0.9       0.0      13.0       0.0       2.5       0.1
 5 H  s               2.8       9.6       4.7       8.5       0.2       0.0
 6 H  s               2.8       9.6       4.7       8.6       0.2       0.0
 7 H  s               0.1       0.9       5.3      14.2       1.3       0.1
 8 H  s               0.2       0.9       5.3      14.2       1.3       0.1
 9 H  s               2.1       9.0       1.2       3.7       1.7       0.3
10 H  s               2.1       9.1       1.2       3.7       1.7       0.3

                     24        25        26        27        28        29   
                  -0.21708  -0.05626   0.03766   0.07044   0.07265   0.08822
                   2.00000   0.00000   0.00000   0.00000   0.00000   0.00000
                  --------  --------  --------  --------  --------  --------
 0 C  s               0.0       1.1      10.0       0.0       6.8      11.2
 0 C  pz              0.0       0.0       0.0       7.6       0.0       0.0
 0 C  px              0.0       0.4       2.9       0.0       1.4       0.6
 0 C  py              0.0       0.2       2.0       0.0       3.6       2.2
 0 C  dz2             0.0       0.0       0.3       0.0       0.1       0.0
 0 C  dxz             0.0       0.0       0.0       0.2       0.0       0.0
 0 C  dyz             0.0       0.0       0.0       0.3       0.0       0.0
 0 C  dxy             0.0       0.2       0.1       0.0       0.1       0.6
 1 C  s               0.0       0.3       6.6       0.0       2.6      11.0
 1 C  pz              0.0       0.0       0.0       7.5       0.0       0.0
 1 C  px              0.0       0.1       0.2       0.0       1.5       0.6
 1 C  py              0.0       0.4       1.4       0.0       1.1       4.8
 1 C  dz2             0.0       0.1       0.2       0.0       0.0       0.0
 1 C  dyz             0.0       0.0       0.0       1.2       0.0       0.0
 1 C  dx2y2           0.0       0.6       0.2       0.0       0.9       0.1
 1 C  dxy             0.0       0.0       0.1       0.0       0.1       0.6
 2 C  s               0.0       8.9       3.4       0.0      11.2       0.6
 2 C  pz              1.4       0.0       0.0      11.4       0.0       0.0
 2 C  px              0.0      27.3       2.2       0.0       0.5       0.4
 2 C  py              0.0       2.8       7.1       0.0       3.3       0.0
 2 C  dz2             0.0       0.1       0.6       0.0       0.1       0.1
 2 C  dxz             0.2       0.0       0.0       0.0       0.0       0.0
 2 C  dyz             0.2       0.0       0.0       0.9       0.0       0.0
 2 C  dx2y2           0.0       0.2       0.0       0.0       0.6       0.0
 2 C  dxy             0.0       0.2       0.0       0.0       0.1       0.0
 3 I  s               0.0       2.7       1.0       0.0       0.9       3.0
 3 I  pz             95.2       0.0       0.0       0.7       0.0       0.0
 3 I  px              0.0      33.7       1.8       0.0       0.3       0.6
 3 I  py              0.0       3.9       0.0       0.0       0.6       0.3
 3 I  dz2             0.0       2.9       0.0       0.0       0.3       0.0
 3 I  dxz             0.0       0.0       0.0       0.2       0.0       0.0
 3 I  dx2y2           0.0       5.5       0.6       0.0       0.2       0.0
 3 I  dxy             0.0       3.4       0.0       0.0       0.4       0.5
 4 H  s               0.0       1.3       4.4       0.0      22.7       1.4
 5 H  s               0.0       0.3      11.2       9.5       0.4      13.2
 6 H  s               0.0       0.3      11.2       9.5       0.4      13.2
 7 H  s               0.1       0.7       6.1      10.8       4.7      17.1
 8 H  s               0.1       0.7       6.1      10.8       4.7      17.2
 9 H  s               1.4       0.9      10.2      14.7      15.3       0.2
10 H  s               1.4       0.9      10.2      14.7      15.4       0.2

                     30        31        32        33        34        35   
                   0.11914   0.12123   0.13032   0.16064   0.18604   0.26711
                   0.00000   0.00000   0.00000   0.00000   0.00000   0.00000
                  --------  --------  --------  --------  --------  --------
 0 C  s               0.0       0.0       0.0       1.7       0.9       0.1
 0 C  pz              0.0       0.0      20.4       0.0       0.0       0.0
 0 C  px              5.2       0.0       0.0      12.8      15.5       2.2
 0 C  py             14.3       0.0       0.0       0.1       6.0       0.5
 0 C  dz2             0.7       0.0       0.0       0.1       1.5       0.2
 0 C  dxz             0.0       1.0       0.0       0.0       0.0       0.0
 0 C  dyz             0.0       0.0       1.4       0.0       0.0       0.0
 0 C  dx2y2           0.0       0.0       0.0       3.5       0.7       0.1
 0 C  dxy             0.6       0.0       0.0       0.4       2.0       0.7
 1 C  s               3.0       0.0       0.0       9.0       0.1       0.6
 1 C  pz              0.0      15.2       3.4       0.0       0.0       0.0
 1 C  px              2.1       0.0       0.0       0.2      30.1       4.3
 1 C  py              0.2       0.0       0.0      23.3       0.2       1.7
 1 C  dz2             0.0       0.0       0.0       4.2       0.2       0.5
 1 C  dxz             0.0       0.6       1.2       0.0       0.0       0.0
 1 C  dyz             0.0       0.1       0.3       0.0       0.0       0.0
 1 C  dx2y2           0.0       0.0       0.0       0.1       1.5       0.0
 1 C  dxy             1.1       0.0       0.0       0.3       4.0       0.3
 2 C  s               3.7       0.0       0.0       3.1       0.4       1.6
 2 C  pz              0.0      10.5       4.1       0.0       0.0       0.0
 2 C  px              1.9       0.0       0.0      10.3       1.3       1.9
 2 C  py              1.2       0.0       0.0       6.5      11.8       0.6
 2 C  dz2             0.1       0.0       0.0       0.5       1.9       0.0
 2 C  dxz             0.0       0.9       0.1       0.0       0.0       0.0
 2 C  dyz             0.0       0.2       1.1       0.0       0.0       0.0
 2 C  dx2y2           0.1       0.0       0.0       0.0       0.8       0.0
 2 C  dxy             0.3       0.0       0.0       5.4       0.6       0.1
 3 I  s               0.4       0.0       0.0       0.5       2.6      66.7
 3 I  pz              0.0       0.2       0.6       0.0       0.0       0.0
 3 I  px              0.1       0.0       0.0       0.1       0.5       4.6
 3 I  py              0.4       0.0       0.0       0.7       0.6       0.0
 3 I  dz2             0.0       0.0       0.0       0.0       1.6       2.5
 3 I  dxz             0.0       4.6       0.0       0.0       0.0       0.0
 3 I  dyz             0.0       0.3       0.1       0.0       0.0       0.0
 3 I  dx2y2           0.1       0.0       0.0       6.1       1.6       2.6
 3 I  dxy             0.2       0.0       0.0       5.2       0.8       5.1
 4 H  s              38.7       0.0       0.0       0.4       1.1       0.7
 5 H  s               5.2       0.3      24.4       0.4       3.2       0.1
 6 H  s               5.2       0.3      24.4       0.4       3.2       0.1
 7 H  s               3.5      19.1       4.2       1.9       0.2       0.8
 8 H  s               3.5      19.0       4.2       1.9       0.2       0.8
 9 H  s               3.8      13.8       5.1       0.4       2.5       0.2
10 H  s               3.8      13.8       5.1       0.4       2.5       0.2

                     36        37        38        39        40        41   
                   0.32117   0.32359   0.34165   0.36655   0.38255   0.38609
                   0.00000   0.00000   0.00000   0.00000   0.00000   0.00000
                  --------  --------  --------  --------  --------  --------
 0 C  s               0.0       0.6       0.1       0.2       0.0       0.4
 0 C  pz              0.4       0.0       0.0       0.0       1.3       0.0
 0 C  px              0.0      10.4       0.9       2.3       0.0       1.2
 0 C  py              0.0       0.5       5.3      11.8       0.0       1.2
 0 C  dz2             0.0       0.0       1.6       2.7       0.0       0.2
 0 C  dxz             0.1       0.0       0.0       0.0       0.5       0.0
 0 C  dyz             0.0       0.0       0.0       0.0       0.8       0.0
 0 C  dx2y2           0.0       0.8       1.1       0.3       0.0       0.0
 0 C  dxy             0.0       0.8       0.5       0.2       0.0       0.1
 1 C  s               0.0       0.5       0.3       0.4       0.0       0.2
 1 C  pz              0.7       0.0       0.0       0.0       4.4       0.0
 1 C  px              0.0       6.0       7.6       6.2       0.0       0.4
 1 C  py              0.0       0.6       3.5      11.4       0.0       1.7
 1 C  dz2             0.0       0.0       1.0       2.4       0.0       0.0
 1 C  dxz             0.0       0.0       0.0       0.0       0.1       0.0
 1 C  dyz             0.7       0.0       0.0       0.0       3.1       0.0
 1 C  dx2y2           0.0       1.0       0.0       0.0       0.0       0.1
 1 C  dxy             0.0       0.5       2.3       0.0       0.0       0.5
 2 C  s               0.0       1.4       4.9       0.5       0.0       0.3
 2 C  pz             16.0       0.0       0.0       0.0       0.7       0.0
 2 C  px              0.0       0.9       4.1       2.7       0.0       1.0
 2 C  py              0.0       6.1       5.4      10.5       0.0       2.8
 2 C  dz2             0.0       1.5       0.1       0.9       0.0       0.4
 2 C  dxz             1.0       0.0       0.0       0.0       0.2       0.0
 2 C  dyz             3.7       0.0       0.0       0.0       1.3       0.0
 2 C  dx2y2           0.0       1.5       0.2       0.0       0.0       0.0
 2 C  dxy             0.0       0.0       1.0       0.1       0.0       0.1
 3 I  s               0.0       1.7       0.1       0.2       0.0       0.2
 3 I  pz              0.7       0.0       0.0       0.0      46.7       0.0
 3 I  px              0.0      24.3      18.3      13.0       0.0       6.6
 3 I  py              0.0       6.8       1.7       9.2       0.0      39.6
 3 I  dz2             0.0       0.6       5.1      14.7       0.0      32.9
 3 I  dxz            53.0       0.0       0.0       0.0       0.3       0.0
 3 I  dyz             5.0       0.0       0.0       0.0      22.1       0.0
 3 I  dx2y2           0.0       0.7      20.0       2.6       0.0       1.7
 3 I  dxy             0.0      25.2       5.2       0.0       0.0       6.2
 4 H  s               0.0       2.3       3.3       0.4       0.0       0.5
 5 H  s               0.1       0.0       2.3       1.6       2.0       0.4
 6 H  s               0.1       0.0       2.3       1.6       2.0       0.3
 7 H  s               1.3       0.1       0.8       1.1       5.3       0.1
 8 H  s               1.3       0.1       0.8       1.1       5.3       0.1
 9 H  s               7.9       2.6       0.0       0.9       1.9       0.4
10 H  s               7.9       2.6       0.0       0.9       1.9       0.4

                     42        43        44        45        46        47   
                   0.38636   0.40904   0.41042   0.45993   0.50843   0.52187
                   0.00000   0.00000   0.00000   0.00000   0.00000   0.00000
                  --------  --------  --------  --------  --------  --------
 0 C  s               0.0       0.2       0.0       1.2       8.2       0.0
 0 C  pz             16.9       0.0       9.8       0.0       0.0      17.9
 0 C  px              0.0       1.7       0.0       4.8      26.1       0.0
 0 C  py              0.0      10.0       0.0       1.1      10.3       0.0
 0 C  dz2             0.0       2.0       0.0       0.1       0.7       0.0
 0 C  dxz             0.5       0.0       0.1       0.0       0.0       0.5
 0 C  dyz             5.0       0.0       2.4       0.0       0.0       2.8
 0 C  dxy             0.0       1.5       0.0       1.9       0.1       0.0
 1 C  s               0.0       0.4       0.0       3.7       2.5       0.0
 1 C  pz              2.9       0.0       0.5       0.0       0.0      15.1
 1 C  px              0.0       0.0       0.0       2.1       2.9       0.0
 1 C  py              0.0       1.2       0.0      22.8       1.6       0.0
 1 C  dz2             0.0       0.0       0.0       3.0       0.6       0.0
 1 C  dxz             1.2       0.0       0.3       0.0       0.0       0.5
 1 C  dyz             1.5       0.0       0.6       0.0       0.0       3.9
 1 C  dx2y2           0.0       0.6       0.0       0.4       0.7       0.0
 1 C  dxy             0.0       0.2       0.0       0.0       0.8       0.0
 2 C  s               0.0       1.1       0.0       0.2       0.9       0.0
 2 C  pz              0.3       0.0       1.2       0.0       0.0       3.1
 2 C  px              0.0       7.9       0.0       4.5       2.5       0.0
 2 C  py              0.0       1.3       0.0       6.6       3.0       0.0
 2 C  dz2             0.0       0.7       0.0       1.7       2.0       0.0
 2 C  dxz             0.4       0.0       0.0       0.0       0.0       0.8
 2 C  dyz             0.0       0.0       0.1       0.0       0.0       4.2
 2 C  dx2y2           0.0       0.4       0.0       0.9       0.0       0.0
 2 C  dxy             0.0       0.0       0.0       0.8       0.1       0.0
 3 I  s               0.0       1.4       0.0       2.1       0.5       0.0
 3 I  pz             38.0       0.0       4.1       0.0       0.0       8.6
 3 I  px              0.0       3.8       0.0       5.0       3.5       0.0
 3 I  py              0.0      31.9       0.0       0.2       4.5       0.0
 3 I  dz2             0.0      14.8       0.0       6.9       0.7       0.0
 3 I  dxz             0.2       0.0       6.2       0.0       0.0      21.1
 3 I  dyz             7.3       0.0      62.2       0.0       0.0       0.1
 3 I  dx2y2           0.0       1.6       0.0      18.2       7.0       0.0
 3 I  dxy             0.0       1.2       0.0       0.0       9.1       0.0
 4 H  s               0.0       6.8       0.0       6.1       0.0       0.0
 5 H  s               8.8       1.5       3.7       0.1       2.9       1.5
 6 H  s               8.8       1.5       3.7       0.1       2.9       1.5
 7 H  s               3.9       0.4       1.7       2.6       0.7       2.8
 8 H  s               4.0       0.4       1.7       2.6       0.7       2.8
 9 H  s               0.1       2.8       0.8       0.1       2.1       6.3
10 H  s               0.1       2.8       0.9       0.1       2.1       6.3

                     48        49        50        51        52        53   
                   0.55889   0.61452   0.62610   0.64755   0.65237   0.66381
                   0.00000   0.00000   0.00000   0.00000   0.00000   0.00000
                  --------  --------  --------  --------  --------  --------
 0 C  s               1.0      19.1       6.5       0.0       0.2      13.9
 0 C  pz              0.0       0.0       0.0      16.2       0.0       0.0
 0 C  px              3.9       3.6       1.7       0.0       0.6       4.9
 0 C  py              1.3       0.2       2.2       0.0       9.8       1.9
 0 C  dz2             1.0       0.1       0.0       0.0       0.2       0.9
 0 C  dxz             0.0       0.0       0.0       0.2       0.0       0.0
 0 C  dyz             0.0       0.0       0.0       1.9       0.0       0.0
 0 C  dx2y2           0.2       0.1       0.0       0.0       0.4       0.2
 0 C  dxy             0.1       0.2       0.1       0.0       0.4       0.4
 1 C  s               6.4      11.6       4.2       0.0      16.3       1.5
 1 C  pz              0.0       0.0       0.0       8.3       0.0       0.0
 1 C  px             13.7       0.5       2.1       0.0       2.0      18.4
 1 C  py             11.4       3.9       0.3       0.0      19.6       8.6
 1 C  dz2             0.0       0.6       0.2       0.0       0.4       0.1
 1 C  dyz             0.0       0.0       0.0       1.8       0.0       0.0
 1 C  dx2y2           0.0       0.1       0.1       0.0       0.2       0.1
 2 C  s               2.5      11.6      17.6       0.0       0.1       2.3
 2 C  pz              0.0       0.0       0.0      24.4       0.0       0.0
 2 C  px             14.5       0.3       1.8       0.0       0.1      15.6
 2 C  py              4.3      17.9       8.3       0.0      20.8       1.0
 2 C  dz2             1.0       0.4       0.5       0.0       0.0       1.0
 2 C  dxz             0.0       0.0       0.0       0.1       0.0       0.0
 2 C  dyz             0.0       0.0       0.0       0.1       0.0       0.0
 2 C  dx2y2           0.5       0.3       0.2       0.0       0.5       0.2
 2 C  dxy             1.3       0.0       0.0       0.0       0.1       0.4
 3 I  s               0.5       0.0       1.4       0.0       0.4       1.1
 3 I  px              2.5       0.0       4.9       0.0       1.5       0.4
 3 I  py              0.4       0.0       3.0       0.0       0.3       0.0
 3 I  dz2             0.2       1.2       4.9       0.0       1.0       0.1
 3 I  dxz             0.0       0.0       0.0       2.3       0.0       0.0
 3 I  dx2y2           9.9       0.0       1.8       0.0       0.1       0.1
 3 I  dxy             5.6       0.4      15.0       0.0       0.1       0.4
 4 H  s               0.8       2.5       0.3       0.0       5.9      16.1
 5 H  s               0.2       2.4       3.3       9.3       1.3       2.0
 6 H  s               0.2       2.4       3.3       9.3       1.3       2.0
 7 H  s               1.8       4.0       6.8       7.7       5.9       2.0
 8 H  s               1.8       4.0       6.8       7.7       5.9       2.0
 9 H  s               6.5       6.3       1.4       5.2       2.3       1.2
10 H  s               6.5       6.3       1.4       5.2       2.3       1.2

                     54        55        56        57        58        59   
                   0.66635   0.66689   0.67476   0.67826   0.73632   0.83225
                   0.00000   0.00000   0.00000   0.00000   0.00000   0.00000
                  --------  --------  --------  --------  --------  --------
 0 C  s              16.5       0.0       0.0       0.6       3.9       4.9
 0 C  pz              0.0       1.9      40.6       0.0       0.0       0.0
 0 C  px             22.4       0.0       0.0       0.5       2.0       3.0
 0 C  py              0.7       0.0       0.0      34.5      12.0       0.5
 0 C  dz2             0.2       0.0       0.0       0.8       1.0       0.3
 0 C  dxz             0.0       0.5       0.2       0.0       0.0       0.0
 0 C  dyz             0.0       0.2       0.4       0.0       0.0       0.0
 0 C  dx2y2           0.4       0.0       0.0       0.0       1.2       0.0
 0 C  dxy             0.4       0.0       0.0       0.5       0.5       0.1
 1 C  s               1.6       0.0       0.0       7.0       1.1      16.9
 1 C  pz              0.0      34.9      18.1       0.0       0.0       0.0
 1 C  px              4.3       0.0       0.0       3.9      12.9      10.6
 1 C  py              0.4       0.0       0.0       5.7       7.5       1.2
 1 C  dz2             0.3       0.0       0.0       0.1       0.2       0.4
 1 C  dyz             0.0       0.1       0.8       0.0       0.0       0.0
 1 C  dx2y2           0.0       0.0       0.0       0.1       0.1       0.9
 1 C  dxy             0.1       0.0       0.0       0.0       1.3       0.0
 2 C  s               9.5       0.0       0.0       3.6       6.5       3.2
 2 C  pz              0.0      29.7       2.9       0.0       0.0       0.0
 2 C  px              1.0       0.0       0.0       1.8      25.1       2.0
 2 C  py              7.0       0.0       0.0       2.0       2.2       1.9
 2 C  dz2             0.1       0.0       0.0       0.0       0.0       0.2
 2 C  dxz             0.0       0.2       0.0       0.0       0.0       0.0
 2 C  dyz             0.0       0.7       0.8       0.0       0.0       0.0
 2 C  dx2y2           0.0       0.0       0.0       0.0       0.0       1.0
 2 C  dxy             0.3       0.0       0.0       0.0       1.8       0.6
 3 I  s               0.5       0.0       0.0       1.4       0.8      13.1
 3 I  pz              0.0       0.6       0.0       0.0       0.0       0.0
 3 I  px              0.3       0.0       0.0       2.9       2.8       5.9
 3 I  py              0.5       0.0       0.0       0.0       1.1       0.0
 3 I  dz2             0.1       0.0       0.0       1.4       0.2       6.6
 3 I  dyz             0.0       0.2       0.5       0.0       0.0       0.0
 3 I  dx2y2           0.0       0.0       0.0       2.4       3.2       9.2
 3 I  dxy             1.0       0.0       0.0       1.1      10.1       0.2
 4 H  s              18.8       0.0       0.0       5.6       0.6       0.1
 5 H  s               3.1       1.8       8.2      11.0       0.3       0.7
 6 H  s               3.1       1.8       8.2      11.1       0.3       0.6
 7 H  s               0.6       5.2       6.1       0.8       0.3       5.0
 8 H  s               0.6       5.2       6.1       0.8       0.3       4.8
 9 H  s               3.2       8.5       3.5       0.0       0.5       3.2
10 H  s               3.2       8.4       3.5       0.0       0.5       3.0

                     60        61        62        63        64        65   
                   0.83372   0.97027   1.00469   1.37248   1.39915   1.64336
                   0.00000   0.00000   0.00000   0.00000   0.00000   0.00000
                  --------  --------  --------  --------  --------  --------
 0 C  s               0.0      26.5      11.8       0.3       0.0       1.0
 0 C  pz              4.4       0.0       0.0       0.0       0.5       0.0
 0 C  px              0.0       7.0       0.0       0.1       0.0       1.3
 0 C  py              0.0       4.0       0.8       0.7       0.0       0.6
 0 C  dz2             0.0       0.4       0.1       4.3       0.0       1.3
 0 C  dxz             5.2       0.0       0.0       0.0      23.9       0.0
 0 C  dyz             2.1       0.0       0.0       0.0       0.2       0.0
 0 C  dx2y2           0.0       0.2       0.3      10.9       0.0      32.1
 0 C  dxy             0.0       0.1       0.3       8.2       0.0       3.6
 1 C  s               0.0       0.1      37.9       0.4       0.0       0.0
 1 C  pz             19.4       0.0       0.0       0.0       0.2       0.0
 1 C  px              0.0       0.0       0.6       0.0       0.0       4.3
 1 C  py              0.0       0.0       1.3       0.5       0.0       0.3
 1 C  dz2             0.0       0.0       0.1       6.3       0.0       0.0
 1 C  dxz             4.1       0.0       0.0       0.0      32.5       0.0
 1 C  dyz             2.9       0.0       0.0       0.0       3.5       0.0
 1 C  dx2y2           0.0       0.0       0.7      30.1       0.0       2.3
 1 C  dxy             0.0       0.1       0.0       9.3       0.0       8.6
 2 C  s               0.0      28.3      16.5       0.7       0.0       0.6
 2 C  pz             28.2       0.0       0.0       0.0       2.5       0.0
 2 C  px              0.0       6.6       3.4       0.9       0.0       2.2
 2 C  py              0.0       0.8       1.3       0.3       0.0       0.3
 2 C  dz2             0.0       0.7       0.0       3.1       0.0       3.4
 2 C  dxz             2.8       0.0       0.0       0.0      31.6       0.0
 2 C  dyz             5.2       0.0       0.0       0.0       2.0       0.0
 2 C  dx2y2           0.0       0.0       0.3      18.8       0.0      18.0
 2 C  dxy             0.0       0.6       0.0       2.0       0.0      19.5
 3 I  s               0.0       0.3       1.3       0.5       0.0       0.1
 3 I  pz              0.9       0.0       0.0       0.0       0.2       0.0
 3 I  px              0.0       0.1       1.0       0.3       0.0       0.1
 3 I  py              0.0       0.0       0.2       0.1       0.0       0.0
 3 I  dxz            10.3       0.0       0.0       0.0       1.3       0.0
 3 I  dyz             1.8       0.0       0.0       0.0       0.2       0.0
 3 I  dx2y2           0.0       0.7       1.3       0.1       0.0       0.2
 3 I  dxy             0.0       0.3       0.9       0.8       0.0       0.1
 4 H  s               0.0       2.4       1.8       0.7       0.0       0.1
 5 H  s               1.6       5.4       1.1       0.0       0.2       0.1
 6 H  s               1.7       5.4       1.1       0.0       0.2       0.1
 7 H  s               1.9       0.0       5.8       0.1       0.0       0.0
 8 H  s               2.1       0.0       5.8       0.1       0.0       0.0
 9 H  s               2.6       4.8       2.0       0.0       0.5       0.0
10 H  s               2.8       4.8       2.0       0.0       0.5       0.0

                     66        67        68        69        70        71   
                   1.76090   1.80034   1.81725   1.90441   1.90633   2.02354
                   0.00000   0.00000   0.00000   0.00000   0.00000   0.00000
                  --------  --------  --------  --------  --------  --------
 0 C  s               0.0       0.9       0.1       0.4       0.0       0.0
 0 C  pz              1.3       0.0       0.0       0.0       2.6       0.0
 0 C  px              0.0       0.8       0.1       0.9       0.0       0.8
 0 C  py              0.0       1.3       0.2       0.1       0.0       3.0
 0 C  dz2             0.0      23.0       2.2       2.2       0.0      30.9
 0 C  dxz            35.1       0.0       0.0       0.0      11.1       0.0
 0 C  dyz             2.4       0.0       0.0       0.0      16.9       0.0
 0 C  dx2y2           0.0       0.2       0.1      16.6       0.0       5.9
 0 C  dxy             0.0      18.2       0.6       3.4       0.0      19.7
 1 C  s               0.0       0.3       1.8       1.9       0.0       0.3
 1 C  pz             12.6       0.0       0.0       0.0       0.0       0.0
 1 C  px              0.0       2.2       0.5       0.6       0.0       0.0
 1 C  py              0.0       0.8       3.2       0.4       0.0       0.4
 1 C  dz2             0.0       6.0      32.1       6.8       0.0       0.0
 1 C  dxz             1.1       0.0       0.0       0.0      30.0       0.0
 1 C  dyz             4.7       0.0       0.0       0.0       2.9       0.0
 1 C  dx2y2           0.0       2.0       2.3       6.4       0.0       5.0
 1 C  dxy             0.0      16.8       5.0       0.0       0.0       1.6
 2 C  s               0.0       0.1       1.5       0.1       0.0       0.1
 2 C  pz              1.5       0.0       0.0       0.0       3.4       0.0
 2 C  px              0.0       0.8       0.5       2.0       0.0       0.1
 2 C  py              0.0       0.3       2.9       0.6       0.0       0.3
 2 C  dz2             0.0       0.4      33.6      21.7       0.0       7.0
 2 C  dxz            32.2       0.0       0.0       0.0      21.8       0.0
 2 C  dyz             2.2       0.0       0.0       0.0       4.5       0.0
 2 C  dx2y2           0.0      14.8       3.0       3.6       0.0      11.7
 2 C  dxy             0.0       8.0       4.6      24.2       0.0       1.0
 3 I  s               0.0       0.2       0.0       1.0       0.0       0.1
 3 I  px              0.0       0.3       0.0       1.0       0.0       0.1
 3 I  dz2             0.0       0.1       0.0       0.5       0.0       0.1
 3 I  dx2y2           0.0       0.2       0.1       1.2       0.0       0.1
 3 I  dxy             0.0       0.4       0.0       0.1       0.0       0.2
 4 H  s               0.0       0.1       0.3       0.3       0.0       7.5
 5 H  s               0.1       0.6       0.1       0.2       1.6       1.3
 6 H  s               0.1       0.6       0.1       0.2       1.6       1.3
 7 H  s               3.3       0.2       1.3       0.7       0.0       0.0
 8 H  s               3.3       0.2       1.3       0.7       0.0       0.0
 9 H  s               0.1       0.1       1.3       1.0       1.8       0.6
10 H  s               0.1       0.1       1.3       1.0       1.8       0.6

                     72        73        74        75        76        77   
                   2.04798   2.16938   2.21479   2.26626   2.42833   2.55997
                   0.00000   0.00000   0.00000   0.00000   0.00000   0.00000
                  --------  --------  --------  --------  --------  --------
 0 C  s               0.0       0.0       0.0       0.2       0.4       1.7
 0 C  pz              1.7       0.0       0.1       0.0       0.0       0.0
 0 C  px              0.0       0.0       0.0       0.2       0.9       3.3
 0 C  py              0.0       0.0       0.0       0.4       0.4       0.2
 0 C  dz2             0.0       0.0       0.0      12.8       3.2       4.0
 0 C  dxz             0.9      12.1       7.4       0.0       0.0       0.0
 0 C  dyz            38.4       3.7      20.0       0.0       0.0       0.0
 0 C  dx2y2           0.0       0.0       0.0      11.3       0.9      11.7
 0 C  dxy             0.0       0.0       0.0      13.0      14.0       5.6
 1 C  s               0.0       0.0       0.0       0.6       3.2       0.0
 1 C  pz              0.3       0.7       0.1       0.0       0.0       0.0
 1 C  px              0.0       0.0       0.0       0.3       0.0       5.5
 1 C  py              0.0       0.0       0.0       2.5       1.8       0.3
 1 C  dz2             0.0       0.0       0.0      12.8      20.5       0.1
 1 C  dxz             0.3       9.0      18.7       0.0       0.0       0.0
 1 C  dyz             6.1      58.0       6.4       0.0       0.0       0.0
 1 C  dx2y2           0.0       0.0       0.0      11.6      17.9      12.9
 1 C  dxy             0.0       0.0       0.0       4.0       8.2      32.8
 2 C  s               0.0       0.0       0.0       0.1       0.7       1.4
 2 C  pz              2.0       0.1       0.5       0.0       0.0       0.0
 2 C  px              0.0       0.0       0.0       0.3       0.5       1.7
 2 C  py              0.0       0.0       0.0       0.1       1.8       1.3
 2 C  dz2             0.0       0.0       0.0       5.7       6.7       2.8
 2 C  dxz             3.1       3.8       0.6       0.0       0.0       0.0
 2 C  dyz            31.9       2.1      37.6       0.0       0.0       0.0
 2 C  dx2y2           0.0       0.0       0.0      14.9       6.8       0.0
 2 C  dxy             0.0       0.0       0.0       3.2       9.2      13.7
 3 I  s               0.0       0.0       0.0       0.0       0.0       0.2
 4 H  s               0.0       0.0       0.0       1.8       0.3       0.3
 5 H  s               3.5       0.5       1.7       1.1       0.0       0.1
 6 H  s               3.5       0.5       1.7       1.1       0.0       0.1
 7 H  s               0.6       4.6       0.2       0.2       1.0       0.0
 8 H  s               0.6       4.6       0.2       0.2       1.0       0.0
 9 H  s               3.5       0.1       2.5       0.6       0.1       0.1
10 H  s               3.5       0.1       2.5       0.6       0.1       0.1

                     78        79        80        81   
                  18.44906  18.46294  18.70923  55.70978
                   0.00000   0.00000   0.00000   0.00000
                  --------  --------  --------  --------
 2 C  s               0.0       0.0       0.1       0.0
 3 I  s               0.0       0.0       0.0     100.0
 3 I  pz            100.0       0.0       0.0       0.0
 3 I  px              0.0       2.8      96.9       0.0
 3 I  py              0.0      97.2       2.8       0.0


                      *****************************
                      * MAYER POPULATION ANALYSIS *
                      *****************************

  NA   - Mulliken gross atomic population
  ZA   - Total nuclear charge
  QA   - Mulliken gross atomic charge
  VA   - Mayer's total valence
  BVA  - Mayer's bonded valence
  FA   - Mayer's free valence

  ATOM       NA         ZA         QA         VA         BVA        FA
  0 C      6.2856     6.0000    -0.2856     4.0091     4.0091     0.0000
  1 C      6.1592     6.0000    -0.1592     4.0720     4.0720     0.0000
  2 C      6.3640     6.0000    -0.3640     3.9821     3.9821    -0.0000
  3 I     25.0419    25.0000    -0.0419     1.0715     1.0715     0.0000
  4 H      0.8837     1.0000     0.1163     0.9499     0.9499    -0.0000
  5 H      0.8943     1.0000     0.1057     0.9559     0.9559    -0.0000
  6 H      0.8943     1.0000     0.1057     0.9559     0.9559    -0.0000
  7 H      0.8908     1.0000     0.1092     0.9472     0.9472    -0.0000
  8 H      0.8908     1.0000     0.1092     0.9471     0.9471    -0.0000
  9 H      0.8477     1.0000     0.1523     0.9259     0.9259    -0.0000
 10 H      0.8477     1.0000     0.1523     0.9258     0.9258     0.0000

  Mayer bond orders larger than 0.100000
B(  0-C ,  1-C ) :   1.1309 B(  0-C ,  4-H ) :   0.9491 B(  0-C ,  5-H ) :   0.9556 
B(  0-C ,  6-H ) :   0.9556 B(  1-C ,  2-C ) :   1.0938 B(  1-C ,  7-H ) :   0.9282 
B(  1-C ,  8-H ) :   0.9282 B(  2-C ,  3-I ) :   1.0419 B(  2-C ,  9-H ) :   0.9236 
B(  2-C , 10-H ) :   0.9236 

-------
TIMINGS
-------

Total SCF time: 0 days 0 hours 0 min 3 sec 

Total time                  ....       3.717 sec
Sum of individual times     ....       3.237 sec  ( 87.1%)

SCF preparation             ....       0.142 sec  (  3.8%)
Fock matrix formation       ....       2.539 sec  ( 68.3%)
  Startup                   ....       0.046 sec  (  1.8% of F)
  Split-RI-J                ....       0.595 sec  ( 23.4% of F)
  XC integration            ....       1.420 sec  ( 55.9% of F)
    Basis function eval.    ....       0.428 sec  ( 30.2% of XC)
    Density eval.           ....       0.131 sec  (  9.2% of XC)
    XC-Functional eval.     ....       0.156 sec  ( 11.0% of XC)
    XC-Potential eval.      ....       0.237 sec  ( 16.7% of XC)
Diagonalization             ....       0.000 sec  (  0.0%)
Density matrix formation    ....       0.142 sec  (  3.8%)
Total Energy calculation    ....       0.025 sec  (  0.7%)
Population analysis         ....       0.039 sec  (  1.0%)
Orbital Transformation      ....       0.049 sec  (  1.3%)
Orbital Orthonormalization  ....       0.000 sec  (  0.0%)
DIIS solution               ....       0.231 sec  (  6.2%)
  MO trafo                  ....       0.000 sec  (  0.0 % of DIIS)
  Orb grad                  ....       0.000 sec  (  0.0 % of DIIS)
  Energy W gradient         ....       0.000 sec  (  0.0 % of DIIS)
  DIIS error                ....       0.001 sec  (  0.4 % of DIIS)
  DIIS work                 ....       0.189 sec  ( 81.7 % of DIIS)
  Form Q                    ....       0.000 sec  (  0.0 % of DIIS)
  Form QpQm                 ....       0.000 sec  (  0.0 % of DIIS)
  Exp/Cayley                ....       0.000 sec  (  0.0 % of DIIS)
  Orb update                ....       0.000 sec  (  0.0 % of DIIS)
  Wake-sleep                ....       0.015 sec  (  6.3 % of DIIS)
SOSCF solution              ....       0.069 sec  (  1.9%)
  MO trafo                  ....       0.033 sec  ( 47.9 % of SOSCF)
  Orb grad                  ....       0.001 sec  (  1.8 % of SOSCF)
  Rot update                ....       0.022 sec  ( 32.5 % of SOSCF)
  Step                      ....       0.012 sec  ( 17.7 % of SOSCF)
Finished LeanSCF after   3.8 sec

Maximum memory used throughout the entire LEANSCF-calculation: 8.3 MB


-------------------------------------------------------------------------------
                          DFT DISPERSION CORRECTION                            
                                                                               
                                DFTD4 V3.4.0                                   
-------------------------------------------------------------------------------
The PBE functional is recognized
Active option DFTDOPT                   ...         5   

-------------------------   ----------------
Dispersion correction           -0.007677954
-------------------------   ----------------

 ** NOTE ** -> element i  will be treated as br
NOTIFICATION: Different basis set in ORCA and otool_gcp:
ORCA: 82  gCP: 88 
If you are NOT using ECPs, check your basis set inputs!
------------------   -----------------
gCP correction             0.046186286
------------------   -----------------

-------------------------   --------------------
FINAL SINGLE POINT ENERGY      -415.906229186134
-------------------------   --------------------


------------------------------------------------------------------------------
                              ORCA PROPERTY CALCULATIONS
------------------------------------------------------------------------------

GBWName                                 ... sp.gbw
Number of atoms                         ...     11
Number of basis functions               ...     82
Max core memory                         ...   1024 MB

Electric properties:
Dipole moment                           ... YES
Quadrupole moment                       ...  NO
Static polarizability (Dipole/Dipole)   ...  NO
Static polarizability (Dipole/Quad.)    ...  NO
Static polarizability (Quad./Quad.)     ...  NO
Static polarizability (Velocity)        ...  NO

Atomic electric properties:
Dipole moment                           ...  NO
Quadrupole moment                       ...  NO
Static polarizability                   ...  NO

Choice of electric origin               ... Center of mass
Position of electric origin             ...    -0.000074    -0.000002    -0.000000

General magnetic properties:
Magnetizability                         ...  NO

EPR properties:
g-Tensor (aka g-matrix)                 ...  NO
Zero-Field splitting spin-orbit         ...  NO
Zero-field splitting spin-spin          ...  NO
Hyperfine couplings                     ...  NO (   0 nuclei)
Quadrupole couplings                    ...  NO (   0 nuclei)
Contact density                         ...  NO (   0 nuclei)

NMR properties:
Chemical shifts                         ...  NO (   0 nuclei)
Spin-rotation constants                 ...  NO (   0 nuclei)
Spin-spin couplings                     ...  NO (   0 nuclei,    0 pairs)

Choice of magnetic origin               ... GIAO
Position of magnetic origin             ...     0.000000     0.000000     0.000000

Properties with geometric perturbations:
SCF Hessian                             ...  NO
IR spectrum                             ...  NO
VCD spectrum                            ...  NO
X-ray spectroscopy properties:
SCF XES/XAS/RIXS spectra                ...  NO


-------------
DIPOLE MOMENT
-------------

Method             : SCF
Type of density    : Electron Density
Multiplicity       :   1
Irrep              :   0
Energy             :  -415.9447375187506850 Eh
Relativity type    : 
Basis              : AO
                                X                 Y                 Z
Electronic contribution:     76.688660690       2.212265248      -0.000026242
Nuclear contribution   :    -77.466331380      -2.343279444       0.000051271
                        -----------------------------------------
Total Dipole Moment    :     -0.777670690      -0.131014196       0.000025028
                        -----------------------------------------
Magnitude (a.u.)       :      0.788629458
Magnitude (Debye)      :      2.004536779



--------------------
Rotational spectrum 
--------------------
 
Rotational constants in cm-1:             0.833433             0.043196             0.042037 
Rotational constants in MHz :         24985.697562          1294.971702          1260.226108 

Dipole components along the rotational axes: 
x,y,z [a.u.] :     0.777671    -0.131014     0.000025 
x,y,z [Debye]:     1.976682    -0.333012     0.000064 

 

Dipole moment calculation done in   0.0 sec 

Maximum memory used throughout the entire PROP-calculation: 5.6 MB

--------------------------------
SUGGESTED CITATIONS FOR THIS RUN
--------------------------------

Below you find a list of papers that are relevant to this ORCA run
We neither can nor want to force you to cite these papers, but we appreciate if you do
You receive ORCA, which is the product of decades of hard work by many enthusiastic individuals, for free
The only thing we kindly ask in return is that you cite our papers,
We deeply appreciate it, if you show your appreciation for ORCA by not just citing the generic ORCA reference.

Please note that relegating all ORCA citations to the supporting information does *not* help us.
SI sections are not indexed - citations you put there will not count into any citation statistics
But we need these citations in order to attract the funding resources that allow us to do what we are doing

Therefore, if you are a happy ORCA user, please consider citing a few of the papers listed below in the main body of your paper

In addition to the list printed below, the program has created the file sp.bibtex that contains the list in bibtex format
You can import this file easily into all common literature databanks and citation aid programs


List of essential papers. We consider these as the minimum necessary citations

  1. Neese,F.
     Software update: the ORCA program system, version 5.0
     WIRES Comput. Molec. Sci., 2022 12(1)e1606
     doi.org/10.1002/wcms.1606

List of papers to cite with high priority. The work reported in these papers was absolutely
necessary for this run to complete.
Our perspective: the developers of density functionals and basis sets usually get cited in chemistry papers
Good! But without the algorithms to do something with them, the functionals or basis sets would not do anything.
Hence, in our opinion, the algorithm design and method developments papers are equally worthy of getting cited

  1. Neese,F.
     An improvement of the resolution of the identity approximation for the formation of the Coulomb matrix
     J. Comp. Chem., 2003 24(14)1740-1747
     doi.org/10.1002/jcc.10318
  2. Neese,F.
     The SHARK Integral Generation and Digestion System
     J. Comp. Chem., 2022  1-16
     doi.org/10.1002/jcc.26942
  3. Caldeweyher,E.; Bannwarth,C.; Grimme,S.
     Extension of the D3 dispersion coefficient model
     J. Chem. Phys., 2017 147 034112-XXXX
     doi.org/10.1063/1.4993215
  4. Caldeweyher,E.; Ehlert,S.; Hansen,A.; Neugebauer,H.; Spicher,S.; Bannwarth,C.; Grimme,S.
     A generally applicable atomic-charge dependent London dispersion correction
     J. Chem. Phys., 2019 150 154122-XXXX
     doi.org/10.1063/1.5090222
  5. Caldeweyher,E.; Mewes,J.; Ehlert,S.; Grimme,S.
     Extension and evaluation of the D4 London-dispersion model for periodic systems
     Phys. Chem. Chem. Phys., 2020 22(16)8499-8512
     doi.org/10.1039/D0CP00502A

List of suggested additional citations. These are papers that are important in the 'surrounding' of 
of this run, or papers that preceded the highly important papers. If you like your results we are grateful for a citation.

  1. Neese,F.
     The ORCA program system
     WIRES Comput. Molec. Sci., 2012 2(1)73-78
     doi.org/10.1002/wcms.81
  2. Neese,F.
     Software update: the ORCA program system, version 4.0
     WIRES Comput. Molec. Sci., 2018 8(1)1-6
     doi.org/10.1002/wcms.1327
  3. Neese,F.; Wennmohs,F.; Becker,U.; Riplinger,C.
     The ORCA quantum chemistry program package
     J. Chem. Phys., 2020 152 Art. No. L224108
     doi.org/10.1063/5.0004608

List of optional additional citations

  1. Neese,F.
     Approximate second-order SCF convergence for spin unrestricted wavefunctions
     Chem. Phys. Lett., 2000 325(1-3)93-98
     doi.org/10.1016/s0009-2614(00)00662-x

Timings for individual modules:

Sum of individual times          ...       11.024 sec (=   0.184 min)
Startup calculation              ...        0.541 sec (=   0.009 min)   4.9 %
SCF iterations                   ...       10.368 sec (=   0.173 min)  94.0 %
Property calculations            ...        0.115 sec (=   0.002 min)   1.0 %
                             ****ORCA TERMINATED NORMALLY****
TOTAL RUN TIME: 0 days 0 hours 0 minutes 11 seconds 608 msec
