      -----------------------------------------------------------      
     |                   =====================                   |     
     |                           x T B                           |     
     |                   =====================                   |     
     |                         S. Grimme                         |     
     |          Mulliken Center for Theoretical Chemistry        |     
     |                    University of Bonn                     |     
      -----------------------------------------------------------      

   * xtb version 6.7.1 (edcfbbe) compiled by 'albert@albert-system' on 2024-07-22

   xtb is free software: you can redistribute it and/or modify it under
   the terms of the GNU Lesser General Public License as published by
   the Free Software Foundation, either version 3 of the License, or
   (at your option) any later version.
   
   xtb is distributed in the hope that it will be useful,
   but WITHOUT ANY WARRANTY; without even the implied warranty of
   MERCHANTABILITY or FITNESS FOR A PARTICULAR PURPOSE.  See the
   GNU Lesser General Public License for more details.
   
   Cite this work as:
   * C. Bannwarth, E. Caldeweyher, S. Ehlert, A. Hansen, P. Pracht,
     J. Seibert, S. Spicher, S. Grimme, WIREs Comput. Mol. Sci., 2020, 11,
     e01493. DOI: 10.1002/wcms.1493
   
   for GFN2-xTB:
   * C. Bannwarth, S. Ehlert and S. Grimme., J. Chem. Theory Comput., 2019,
     15, 1652-1671. DOI: 10.1021/acs.jctc.8b01176
   for GFN1-xTB:
   * S. Grimme, C. Bannwarth, P. Shushkov, J. Chem. Theory Comput., 2017,
     13, 1989-2009. DOI: 10.1021/acs.jctc.7b00118
   for GFN0-xTB:
   * P. Pracht, E. Caldeweyher, S. Ehlert, S. Grimme, ChemRxiv, 2019, preprint.
     DOI: 10.26434/chemrxiv.8326202.v1
   for GFN-FF:
   * S. Spicher and S. Grimme, Angew. Chem. Int. Ed., 2020, 59, 15665-15673.
     DOI: 10.1002/anie.202004239
   
   for ALPB and GBSA implicit solvation:
   * S. Ehlert, M. Stahn, S. Spicher, S. Grimme, J. Chem. Theory Comput.,
     2021, 17, 4250-4261. DOI: 10.1021/acs.jctc.1c00471
   
   for ddCOSMO and CPCM-X implicit solvation:
   * M. Stahn, S. Ehlert, S. Grimme, J. Phys. Chem. A,
     2023, XX, XXXX-XXXX. DOI: 10.1021/acs.jpca.3c04382
   
   for DFT-D4:
   * E. Caldeweyher, C. Bannwarth and S. Grimme, J. Chem. Phys., 2017,
     147, 034112. DOI: 10.1063/1.4993215
   * E. Caldeweyher, S. Ehlert, A. Hansen, H. Neugebauer, S. Spicher,
     C. Bannwarth and S. Grimme, J. Chem. Phys., 2019, 150, 154122.
     DOI: 10.1063/1.5090222
   * E. Caldeweyher, J.-M. Mewes, S. Ehlert and S. Grimme, Phys. Chem. Chem. Phys.
     2020, 22, 8499-8512. DOI: 10.1039/D0CP00502A
   
   for sTDA-xTB:
   * S. Grimme and C. Bannwarth, J. Chem. Phys., 2016, 145, 054103.
     DOI: 10.1063/1.4959605
   
   in the mass-spec context:
   * V. Asgeirsson, C. Bauer and S. Grimme, Chem. Sci., 2017, 8, 4879.
     DOI: 10.1039/c7sc00601b
   * J. Koopman and S. Grimme, ACS Omega 2019, 4, 12, 15120-15133.
     DOI: 10.1021/acsomega.9b02011
   
   for metadynamics refer to:
   * S. Grimme, J. Chem. Theory Comput., 2019, 155, 2847-2862
     DOI: 10.1021/acs.jctc.9b00143
   
   for SPH calculations refer to:
   * S. Spicher and S. Grimme, J. Chem. Theory Comput., 2021, 17, 1701-1714
     DOI: 10.1021/acs.jctc.0c01306
   
   for ONIOM refer to:
   * C. Plett, A. Katbashev, S. Ehlert, S. Grimme, M. Bursch,
     Phys. Chem. Chem. Phys., 2023, 25, 17860-17868. DOI: 10.1039/D3CP02178E
   
   for DIPRO refer to:
   * J. Kohn, N. Gildemeister, S. Grimme, D. Fazzi, A. Hansen,
     J. Chem. Phys., 2023, just accepted.
   
   for PTB refer to:
   * S. Grimme, M. Mueller, A. Hansen, J. Chem. Phys., 2023, 158, 124111.
     DOI: 10.1063/5.0137838
   
   with help from (in alphabetical order)
   P. Atkinson, C. Bannwarth, F. Bohle, G. Brandenburg, E. Caldeweyher
   M. Checinski, S. Dohm, S. Ehlert, S. Ehrlich, I. Gerasimov, C. Hölzer
   A. Katbashev, J. Kohn, J. Koopman, C. Lavigne, S. Lehtola, F. März, M. Müller,
   F. Musil, H. Neugebauer, J. Pisarek, C. Plett, P. Pracht, F. Pultar,
   J. Seibert, P. Shushkov, S. Spicher, M. Stahn, M. Steiner, T. Strunk,
   J. Stückrath, T. Rose, and J. Unsleber
   
 * started run on 2025/04/03 at 21:39:56.062     
   ID    Z sym.   atoms
    1    6 C      1
    2   35 Br     2-4
    3    1 H      5

           -------------------------------------------------
          |                Calculation Setup                |
           -------------------------------------------------

          program call               : /srv/scratch/z5358697/.xtb/bin/xtb solv.coord --gfn2 --sp --chrg 0 --norestart --parallel 1 --alpb water reference -I xtb_sp-xcontrol-inp
          hostname                   : k158
          coordinate file            : solv.coord
          omp threads                :                     1


           -------------------------------------------------
          |                 G F N 2 - x T B                 |
           -------------------------------------------------

        Reference                      10.1021/acs.jctc.8b01176
      * Hamiltonian:
        H0-scaling (s, p, d)           1.850000    2.230000    2.230000
        zeta-weighting                 0.500000
      * Dispersion:
        s8                             2.700000
        a1                             0.520000
        a2                             5.000000
        s9                             5.000000
      * Repulsion:
        kExp                           1.500000    1.000000
        rExp                           1.000000
      * Coulomb:
        alpha                          2.000000
        third order                    shell-resolved
        anisotropic                    true
        a3                             3.000000
        a5                             4.000000
        cn-shift                       1.200000
        cn-exp                         4.000000
        max-rad                        5.000000

      * Solvation model:               ALPB
        Solvent                        water
        Parameter file                 internal GFN2-xTB/ALPB
        Dielectric constant                8.0200E+01
        Reference state                gsolv=reference [X=1]
        Free energy shift                  2.8945E-03 Eh       1.8164E+00 kcal/mol
        Temperature                        2.9815E+02 K
        Density                            1.0000E+00 kg/L
        Solvent mass                       1.8000E+01 g/mol
        Interaction kernel             P16
        Born radius scaling (c1)           1.4744E+00
        Born radii integrator          GBOBC
        Born offset                        0.0000E+00 a0       0.0000E+00 AA
        H-bond correction              true
        Ion screening                  false
        Surface tension                    1.0000E-05 Eh       1.5569E+01 dyn/cm
        Grid points                               974 per atom

          ...................................................
          :                      SETUP                      :
          :.................................................:
          :  # basis functions                  35          :
          :  # atomic orbitals                  32          :
          :  # shells                           12          :
          :  # electrons                        26          :
          :  max. iterations                   250          :
          :  Hamiltonian                  GFN2-xTB          :
          :  restarted?                      false          :
          :  GBSA solvation                   true          :
          :  PC potential                    false          :
          :  electronic temp.          300.0000000     K    :
          :  accuracy                    1.0000000          :
          :  -> integral cutoff          0.2500000E+02      :
          :  -> integral neglect         0.1000000E-07      :
          :  -> SCF convergence          0.1000000E-05 Eh   :
          :  -> wf. convergence          0.1000000E-03 e    :
          :  Broyden damping             0.4000000          :
          :  net charge                          0          :
          :  unpaired electrons                  0          :
          ...................................................

 iter      E             dE          RMSdq      gap      omega  full diag
   1    -14.7942957 -0.147943E+02  0.936E+00    4.59       0.0  T
   2    -14.8524553 -0.581596E-01  0.975E+00    3.73       1.0  T
   3    -14.8961995 -0.437442E-01  0.566E+00    3.90       1.0  T
   4    -14.9002758 -0.407635E-02  0.108E+00    3.81       1.0  T
   5    -14.9002799 -0.413598E-05  0.708E-01    3.81       1.0  T
   6    -14.9007087 -0.428730E-03  0.197E-01    3.79       1.0  T
   7    -14.9007428 -0.341619E-04  0.515E-02    3.79       1.0  T
   8    -14.9007437 -0.858131E-06  0.201E-02    3.79       2.2  T
   9    -14.9007438 -0.126964E-06  0.301E-03    3.79      14.8  T
  10    -14.9007438  0.972294E-09  0.204E-03    3.79      21.9  T
  11    -14.9007438 -0.431474E-08  0.315E-04    3.79     142.0  T
  12    -14.9007438 -0.570033E-10  0.131E-04    3.79     342.0  T

   *** convergence criteria satisfied after 12 iterations ***

         #    Occupation            Energy/Eh            Energy/eV
      -------------------------------------------------------------
         1        2.0000           -0.9045964             -24.6153
       ...           ...                  ...                  ...
         7        2.0000           -0.5822077             -15.8427
         8        2.0000           -0.4862394             -13.2312
         9        2.0000           -0.4862202             -13.2307
        10        2.0000           -0.4763375             -12.9618
        11        2.0000           -0.4763099             -12.9611
        12        2.0000           -0.4727980             -12.8655
        13        2.0000           -0.4722007             -12.8492 (HOMO)
        14                         -0.3327665              -9.0550 (LUMO)
        15                         -0.2700740              -7.3491
        16                         -0.2699436              -7.3455
        17                         -0.0474482              -1.2911
        18                         -0.0416258              -1.1327
       ...                                ...                  ...
        32                          0.4572993              12.4437
      -------------------------------------------------------------
                  HL-Gap            0.1394342 Eh            3.7942 eV
             Fermi-level           -0.4024836 Eh          -10.9521 eV

 SCC (total)                   0 d,  0 h,  0 min,  0.008 sec
 SCC setup                      ...        0 min,  0.000 sec (  4.441%)
 Dispersion                     ...        0 min,  0.000 sec (  0.282%)
 classical contributions        ...        0 min,  0.000 sec (  0.157%)
 integral evaluation            ...        0 min,  0.003 sec ( 36.116%)
 iterations                     ...        0 min,  0.003 sec ( 35.345%)
 molecular gradient             ...        0 min,  0.002 sec ( 21.848%)
 printout                       ...        0 min,  0.000 sec (  1.574%)

         :::::::::::::::::::::::::::::::::::::::::::::::::::::
         ::                     SUMMARY                     ::
         :::::::::::::::::::::::::::::::::::::::::::::::::::::
         :: total energy             -14.869829445414 Eh    ::
         :: total w/o Gsasa/hb       -14.870851473269 Eh    ::
         :: gradient norm              0.009654645783 Eh/a0 ::
         :: HOMO-LUMO gap              3.794197573054 eV    ::
         ::.................................................::
         :: SCC energy               -14.900743191324 Eh    ::
         :: -> isotropic ES            0.012060267675 Eh    ::
         :: -> anisotropic ES          0.007166480183 Eh    ::
         :: -> anisotropic XC         -0.000020778515 Eh    ::
         :: -> dispersion             -0.004689506881 Eh    ::
         :: -> Gsolv                  -0.000781624015 Eh    ::
         ::    -> Gelec               -0.001803651869 Eh    ::
         ::    -> Gsasa               -0.001261600182 Eh    ::
         ::    -> Ghb                 -0.000610921124 Eh    ::
         ::    -> Gshift               0.002894549160 Eh    ::
         :: repulsion energy           0.030913745909 Eh    ::
         :: add. restraining           0.000000000000 Eh    ::
         :: total charge              -0.000000000000 e     ::
         :::::::::::::::::::::::::::::::::::::::::::::::::::::

           -------------------------------------------------
          |                Property Printout                |
           -------------------------------------------------

    * Orbital Energies and Occupations

         #    Occupation            Energy/Eh            Energy/eV
      -------------------------------------------------------------
         1        2.0000           -0.9045964             -24.6153
         2        2.0000           -0.9045673             -24.6145
         3        2.0000           -0.9001915             -24.4955
         4        2.0000           -0.6744893             -18.3538
         5        2.0000           -0.5986209             -16.2893
         6        2.0000           -0.5822443             -15.8437
         7        2.0000           -0.5822077             -15.8427
         8        2.0000           -0.4862394             -13.2312
         9        2.0000           -0.4862202             -13.2307
        10        2.0000           -0.4763375             -12.9618
        11        2.0000           -0.4763099             -12.9611
        12        2.0000           -0.4727980             -12.8655
        13        2.0000           -0.4722007             -12.8492 (HOMO)
        14                         -0.3327665              -9.0550 (LUMO)
        15                         -0.2700740              -7.3491
        16                         -0.2699436              -7.3455
        17                         -0.0474482              -1.2911
        18                         -0.0416258              -1.1327
        19                         -0.0416054              -1.1321
        20                         -0.0305546              -0.8314
        21                         -0.0305322              -0.8308
        22                         -0.0274411              -0.7467
        23                         -0.0240119              -0.6534
        24                         -0.0239888              -0.6528
       ...                                ...                  ...
        32                          0.4572993              12.4437
      -------------------------------------------------------------
                  HL-Gap            0.1394342 Eh            3.7942 eV
             Fermi-level           -0.4024836 Eh          -10.9521 eV

     #   Z          covCN         q      C6AA      α(0)
     1   6 C        3.668     0.172    18.069     6.095
     2  35 Br       1.421    -0.100   187.789    22.095
     3  35 Br       1.420    -0.099   187.783    22.095
     4  35 Br       1.419    -0.100   187.793    22.096
     5   1 H        0.928     0.126     1.562     1.954

 Mol. C6AA /au·bohr⁶  :       2170.095394
 Mol. C8AA /au·bohr⁸  :     125284.363793
 Mol. α(0) /au        :         74.334796


Wiberg/Mayer (AO) data.
largest (>0.10) Wiberg bond orders for each atom

 ---------------------------------------------------------------------------
     #   Z sym  total        # sym  WBO       # sym  WBO       # sym  WBO
 ---------------------------------------------------------------------------
     1   6 C    3.935 --     3 Br   0.993     2 Br   0.993     4 Br   0.993
                             5 H    0.955
     2  35 Br   1.115 --     1 C    0.993
     3  35 Br   1.115 --     1 C    0.993
     4  35 Br   1.115 --     1 C    0.993
     5   1 H    0.984 --     1 C    0.955
 ---------------------------------------------------------------------------

Topologies differ in total number of bonds
Writing topology from bond orders to xtbtopo.mol

molecular dipole:
                 x           y           z       tot (Debye)
 q only:        0.001       0.001       0.575
   full:       -0.001       0.001       0.806       2.049
molecular quadrupole (traceless):
                xx          xy          yy          xz          yz          zz
 q only:       -1.600       0.003      -1.596       0.000      -0.000       3.196
  q+dip:       -4.732      -0.002      -4.742       0.003      -0.002       9.474
   full:       -3.876      -0.002      -3.887       0.003      -0.001       7.764


           -------------------------------------------------
          | TOTAL ENERGY              -14.869829445414 Eh   |
          | GRADIENT NORM               0.009654645783 Eh/α |
          | HOMO-LUMO GAP               3.794197573054 eV   |
           -------------------------------------------------

------------------------------------------------------------------------
 * finished run on 2025/04/03 at 21:39:56.102     
------------------------------------------------------------------------
 total:
 * wall-time:     0 d,  0 h,  0 min,  0.039 sec
 *  cpu-time:     0 d,  0 h,  0 min,  0.016 sec
 * ratio c/w:     0.404 speedup
 SCF:
 * wall-time:     0 d,  0 h,  0 min,  0.008 sec
 *  cpu-time:     0 d,  0 h,  0 min,  0.008 sec
 * ratio c/w:     0.988 speedup

