18
 energy: -235.783255921138 gnorm: 0.004591831379 xtb: 6.7.1 (edcfbbe)
C           -2.22392497347201       -0.04826054953489       -0.07203694332440
C           -0.76747160882414       -0.04815372922191        0.37681707104965
C            0.08030483085406       -1.17784658573916       -0.21830231715640
C            1.51382523205822       -0.73782481581412        0.09252671678243
C            1.50055301542558        0.79420025946572       -0.13052007382299
C            0.00785117755784        1.21650736275643       -0.03595481950288
H           -2.28577108008083        0.00823927512563       -1.16572357545708
H           -2.74170663392615       -0.95882138724859        0.24930801285028
H           -2.76792447598299        0.80901599113569        0.33967054069986
H           -0.73110231899881       -0.14267689447045        1.47216858120674
H           -0.16887195186032       -2.16280550617253        0.19112476789861
H           -0.08013087365846       -1.21312457648419       -1.30529609700321
H            1.74056138222791       -0.96364561578672        1.14105629274998
H            2.26328834421723       -1.24622214392607       -0.52121773822162
H            2.12594638009982        1.31226645911245        0.60604620823017
H            1.90368704510537        1.04184573049491       -1.11995248675849
H           -0.15533243312946        2.04536403457921        0.66440210231027
H           -0.35479292773927        1.55226137248053       -1.01856070481280
18
 energy: -235.783280047095 gnorm: 0.001459598446 xtb: 6.7.1 (edcfbbe)
C           -2.22447432714211       -0.04792726274982       -0.07076398263264
C           -0.76851988786267       -0.04806187111238        0.37537943401210
C            0.08088626763092       -1.17729047657849       -0.21908912500010
C            1.51422696493210       -0.73766530108917        0.09267265013205
C            1.49991657811933        0.79389131153786       -0.13048216091103
C            0.00845455695102        1.21631808399306       -0.03765131597497
H           -2.28854173457667        0.01019496495338       -1.16413652079107
H           -2.74149863305761       -0.95911415741137        0.24996063686507
H           -2.76871200282659        0.80841057592230        0.34299303368393
H           -0.72997170571368       -0.14157679437115        1.47050119678531
H           -0.16884652174926       -2.16227165583344        0.18990392822259
H           -0.07840164336011       -1.21232579193235       -1.30624630451748
H            1.73990043013114       -0.96314283278243        1.14159303531708
H            2.26497770303327       -1.24572178755997       -0.52029743471876
H            2.12204621484923        1.31113729273145        0.60666451019835
H            1.90437136550329        1.04139818809841       -1.11746936831808
H           -0.15461159178101        2.04375108137274        0.66116743556610
H           -0.35221389260725        1.55031506259515       -1.01914392554439
18
 energy: -235.783286171552 gnorm: 0.001306360312 xtb: 6.7.1 (edcfbbe)
C           -2.22388050851304       -0.04788696416442       -0.06862328953010
C           -0.76828526670348       -0.04797512635565        0.37390832178532
C            0.08074805353008       -1.17777491985810       -0.22096559762787
C            1.51306659567647       -0.73718007558041        0.09343435677676
C            1.49956309978843        0.79430049089449       -0.12935126984812
C            0.00895426662985        1.21677374380099       -0.04133188886572
H           -2.29257453248088        0.01366640140293       -1.16153225634870
H           -2.73985755767818       -0.96015031415154        0.25084831356939
H           -2.76820541514327        0.80652200620091        0.34940957769104
H           -0.72646402484152       -0.14021490312698        1.46890952348070
H           -0.16984712342436       -2.16309543625200        0.18674260500059
H           -0.07676333430181       -1.21153699606300       -1.30846418208165
H            1.73734345451217       -0.96293855359058        1.14266246184024
H            2.26515665672329       -1.24505046581518       -0.51834750984246
H            2.11811552759842        1.31042047733086        0.60985455385561
H            1.90700486981747        1.04147545471875       -1.11390846427666
H           -0.15525874097911        2.04386624979820        0.65546211894683
H           -0.34982785286330        1.54709741324476       -1.02315125654585
18
 energy: -235.783290592786 gnorm: 0.000939529421 xtb: 6.7.1 (edcfbbe)
C           -2.22465318686087       -0.04774234751437       -0.06694809337513
C           -0.76848549080806       -0.04782419620729        0.37303545751551
C            0.08105092239671       -1.17712923456457       -0.22198186900205
C            1.51341846374387       -0.73762544175890        0.09361387990202
C            1.49990094970138        0.79413297420247       -0.12850088640002
C            0.00894219147910        1.21645326572898       -0.04362197465221
H           -2.29525755541732        0.01610197500252       -1.15963735205004
H           -2.73945788667909       -0.96112548216130        0.25141559830602
H           -2.76901624776313        0.80533549895211        0.35384824047507
H           -0.72471172375514       -0.13946869166101        1.46805186994360
H           -0.17006800445961       -2.16261195077126        0.18493968388236
H           -0.07595857943900       -1.21015672367872       -1.30958407770730
H            1.73630231513174       -0.96384783974065        1.14302827691598
H            2.26616562845832       -1.24537608310150       -0.51741801766677
H            2.11669592608886        1.30984127187152        0.61293534986000
H            1.91011654512544        1.04202596015981       -1.11207321549491
H           -0.15715445435739        2.04506507635032        0.65148120012559
H           -0.34884164098546        1.54427032204532       -1.02702765950678
18
 energy: -235.783290592786 gnorm: 0.000939529421 xtb: 6.7.1 (edcfbbe)
C           -2.22465318686087       -0.04774234751437       -0.06694809337513
C           -0.76848549080806       -0.04782419620729        0.37303545751551
C            0.08105092239671       -1.17712923456457       -0.22198186900205
C            1.51341846374387       -0.73762544175890        0.09361387990202
C            1.49990094970138        0.79413297420247       -0.12850088640002
C            0.00894219147910        1.21645326572898       -0.04362197465221
H           -2.29525755541732        0.01610197500252       -1.15963735205004
H           -2.73945788667909       -0.96112548216130        0.25141559830602
H           -2.76901624776313        0.80533549895211        0.35384824047507
H           -0.72471172375514       -0.13946869166101        1.46805186994360
H           -0.17006800445961       -2.16261195077126        0.18493968388236
H           -0.07595857943900       -1.21015672367872       -1.30958407770730
H            1.73630231513174       -0.96384783974065        1.14302827691598
H            2.26616562845832       -1.24537608310150       -0.51741801766677
H            2.11669592608886        1.30984127187152        0.61293534986000
H            1.91011654512544        1.04202596015981       -1.11207321549491
H           -0.15715445435739        2.04506507635032        0.65148120012559
H           -0.34884164098546        1.54427032204532       -1.02702765950678
